GROningen MAchine for Chemical Simulation
95940
    1G5    HO5'    1   6.492   4.855   6.552
    1G5     O5'    2   6.564   4.857   6.616
    1G5     C5'    3   6.669   4.782   6.559
    1G5     H5'    4   6.764   4.832   6.573
    1G5    H5''    5   6.652   4.784   6.451
    1G5     C4'    6   6.682   4.633   6.601
    1G5     H4'    7   6.776   4.588   6.570
    1G5     O4'    8   6.677   4.631   6.741
    1G5     C1'    9   6.602   4.513   6.779
    1G5     H1'   10   6.650   4.440   6.844
    1G5      N9   11   6.481   4.554   6.857
    1G5      C8   12   6.436   4.682   6.871
    1G5      H8   13   6.476   4.772   6.828
    1G5      N7   14   6.335   4.691   6.958
    1G5      C5   15   6.309   4.562   6.984
    1G5      C6   16   6.205   4.504   7.063
    1G5      O6   17   6.118   4.556   7.138
    1G5      N1   18   6.216   4.370   7.076
    1G5      H1   19   6.143   4.318   7.122
    1G5      C2   20   6.293   4.289   6.995
    1G5      N2   21   6.266   4.163   7.019
    1G5     H21   22   6.193   4.133   7.082
    1G5     H22   23   6.323   4.099   6.966
    1G5      N3   24   6.383   4.335   6.910
    1G5      C4   25   6.387   4.473   6.910
    1G5     C3'   26   6.562   4.559   6.552
    1G5     H3'   27   6.474   4.622   6.566
    1G5     C2'   28   6.550   4.444   6.651
    1G5     H2'   29   6.446   4.413   6.664
    1G5     O2'   30   6.645   4.339   6.623
    1G5    HO2'   31   6.641   4.268   6.687
    1G5     O3'   32   6.570   4.519   6.408
    2G        P   33   6.433   4.478   6.339
    2G      OP1   34   6.468   4.408   6.215
    2G      OP2   35   6.343   4.593   6.323
    2G      O5'   36   6.352   4.380   6.436
    2G      C5'   37   6.369   4.243   6.437
    2G      H5'   38   6.460   4.216   6.490
    2G     H5''   39   6.383   4.201   6.337
    2G      C4'   40   6.249   4.183   6.517
    2G      H4'   41   6.259   4.075   6.518
    2G      O4'   42   6.252   4.244   6.647
    2G      C1'   43   6.115   4.255   6.693
    2G      H1'   44   6.103   4.210   6.792
    2G       N9   45   6.091   4.400   6.707
    2G       C8   46   6.144   4.514   6.651
    2G       H8   47   6.231   4.509   6.587
    2G       N7   48   6.104   4.626   6.704
    2G       C5   49   6.002   4.584   6.790
    2G       C6   50   5.905   4.663   6.865
    2G       O6   51   5.903   4.786   6.886
    2G       N1   52   5.822   4.583   6.932
    2G       H1   53   5.757   4.628   6.996
    2G       C2   54   5.814   4.449   6.921
    2G       N2   55   5.727   4.388   6.993
    2G      H21   56   5.647   4.434   7.035
    2G      H22   57   5.731   4.289   6.973
    2G       N3   58   5.895   4.372   6.848
    2G       C4   59   5.993   4.446   6.790
    2G      C3'   60   6.111   4.225   6.464
    2G      H3'   61   6.121   4.328   6.428
    2G      C2'   62   6.026   4.202   6.588
    2G      H2'   63   5.935   4.262   6.594
    2G      O2'   64   6.001   4.061   6.604
    2G     HO2'   65   6.015   4.014   6.521
    2G      O3'   66   6.061   4.139   6.360
    3G        P   67   5.947   4.194   6.261
    3G      OP1   68   5.927   4.081   6.167
    3G      OP2   69   5.995   4.325   6.206
    3G      O5'   70   5.818   4.221   6.344
    3G      C5'   71   5.732   4.119   6.385
    3G      H5'   72   5.789   4.048   6.446
    3G     H5''   73   5.705   4.059   6.298
    3G      C4'   74   5.617   4.160   6.470
    3G      H4'   75   5.558   4.075   6.503
    3G      O4'   76   5.673   4.219   6.587
    3G      C1'   77   5.593   4.344   6.611
    3G      H1'   78   5.550   4.349   6.711
    3G       N9   79   5.670   4.469   6.585
    3G       C8   80   5.773   4.495   6.498
    3G       H8   81   5.820   4.420   6.436
    3G       N7   82   5.802   4.620   6.493
    3G       C5   83   5.710   4.686   6.577
    3G       C6   84   5.690   4.826   6.603
    3G       O6   85   5.754   4.919   6.567
    3G       N1   86   5.601   4.841   6.703
    3G       H1   87   5.603   4.928   6.754
    3G       C2   88   5.526   4.742   6.760
    3G       N2   89   5.432   4.786   6.832
    3G      H21   90   5.401   4.882   6.840
    3G      H22   91   5.373   4.722   6.883
    3G       N3   92   5.538   4.611   6.731
    3G       C4   93   5.633   4.590   6.640
    3G      C3'   94   5.536   4.266   6.398
    3G      H3'   95   5.602   4.328   6.338
    3G      C2'   96   5.474   4.345   6.515
    3G      H2'   97   5.440   4.444   6.483
    3G      O2'   98   5.373   4.273   6.582
    3G     HO2'   99   5.353   4.196   6.528
    3G      O3'  100   5.426   4.196   6.335
    4U        P  101   5.329   4.278   6.241
    4U      OP1  102   5.261   4.181   6.147
    4U      OP2  103   5.401   4.395   6.186
    4U      O5'  104   5.213   4.327   6.337
    4U      C5'  105   5.113   4.229   6.385
    4U      H5'  106   5.157   4.152   6.448
    4U     H5''  107   5.070   4.183   6.296
    4U      C4'  108   5.003   4.311   6.459
    4U      H4'  109   4.930   4.244   6.504
    4U      O4'  110   5.058   4.383   6.567
    4U      C1'  111   4.974   4.505   6.584
    4U      H1'  112   4.937   4.510   6.687
    4U       N1  113   5.072   4.620   6.571
    4U       C6  114   5.206   4.606   6.530
    4U       H6  115   5.237   4.512   6.487
    4U       C5  116   5.286   4.715   6.523
    4U       H5  117   5.389   4.701   6.494
    4U       C4  118   5.244   4.851   6.568
    4U       O4  119   5.314   4.949   6.569
    4U       N3  120   5.115   4.850   6.610
    4U       H3  121   5.080   4.943   6.630
    4U       C2  122   5.026   4.750   6.602
    4U       O2  123   4.907   4.773   6.616
    4U      C3'  124   4.937   4.423   6.375
    4U      H3'  125   5.016   4.480   6.325
    4U      C2'  126   4.863   4.498   6.484
    4U      H2'  127   4.832   4.597   6.452
    4U      O2'  128   4.753   4.429   6.520
    4U     HO2'  129   4.720   4.373   6.450
    4U      O3'  130   4.860   4.355   6.275
    5U        P  131   4.827   4.419   6.132
    5U      OP1  132   4.722   4.338   6.066
    5U      OP2  133   4.960   4.439   6.065
    5U      O5'  134   4.766   4.569   6.145
    5U      C5'  135   4.633   4.593   6.187
    5U      H5'  136   4.604   4.525   6.267
    5U     H5''  137   4.578   4.570   6.096
    5U      C4'  138   4.600   4.738   6.223
    5U      H4'  139   4.495   4.742   6.252
    5U      O4'  140   4.684   4.771   6.333
    5U      C1'  141   4.730   4.904   6.322
    5U      H1'  142   4.701   4.972   6.402
    5U       N1  143   4.882   4.912   6.315
    5U       C6  144   4.951   4.799   6.265
    5U       H6  145   4.906   4.700   6.264
    5U       C5  146   5.074   4.821   6.218
    5U       H5  147   5.139   4.738   6.192
    5U       C4  148   5.153   4.940   6.239
    5U       O4  149   5.269   4.969   6.217
    5U       N3  150   5.086   5.042   6.295
    5U       H3  151   5.140   5.127   6.297
    5U       C2  152   4.951   5.040   6.319
    5U       O2  153   4.897   5.146   6.369
    5U      C3'  154   4.643   4.827   6.110
    5U      H3'  155   4.743   4.797   6.078
    5U      C2'  156   4.663   4.954   6.188
    5U      H2'  157   4.737   5.013   6.135
    5U      O2'  158   4.548   5.029   6.225
    5U     HO2'  159   4.488   4.970   6.271
    5U      O3'  160   4.554   4.834   5.998
    6A        P  161   4.599   4.904   5.861
    6A      OP1  162   4.527   4.848   5.744
    6A      OP2  163   4.744   4.915   5.857
    6A      O5'  164   4.555   5.054   5.882
    6A      C5'  165   4.413   5.085   5.906
    6A      H5'  166   4.383   5.055   6.006
    6A     H5''  167   4.347   5.030   5.839
    6A      C4'  168   4.387   5.234   5.906
    6A      H4'  169   4.280   5.248   5.917
    6A      O4'  170   4.442   5.316   6.010
    6A      C1'  171   4.502   5.429   5.952
    6A      H1'  172   4.483   5.515   6.015
    6A       N9  173   4.652   5.399   5.939
    6A       C8  174   4.725   5.303   6.007
    6A       H8  175   4.669   5.233   6.067
    6A       N7  176   4.854   5.312   5.988
    6A       C5  177   4.870   5.426   5.910
    6A       C6  178   4.979   5.495   5.860
    6A       N6  179   5.106   5.464   5.874
    6A      H61  180   5.172   5.511   5.813
    6A      H62  181   5.123   5.368   5.901
    6A       N1  182   4.963   5.621   5.807
    6A       C2  183   4.836   5.662   5.796
    6A       H2  184   4.816   5.756   5.746
    6A       N3  185   4.728   5.601   5.839
    6A       C4  186   4.747   5.487   5.892
    6A      C3'  187   4.418   5.303   5.771
    6A      H3'  188   4.499   5.249   5.724
    6A      C2'  189   4.442   5.448   5.807
    6A      H2'  190   4.519   5.498   5.748
    6A      O2'  191   4.318   5.524   5.809
    6A     HO2'  192   4.255   5.464   5.768
    6A      O3'  193   4.306   5.289   5.684
    7G        P  194   4.328   5.267   5.535
    7G      OP1  195   4.200   5.294   5.464
    7G      OP2  196   4.384   5.135   5.524
    7G      O5'  197   4.441   5.374   5.486
    7G      C5'  198   4.402   5.507   5.459
    7G      H5'  199   4.364   5.551   5.551
    7G     H5''  200   4.324   5.500   5.383
    7G      C4'  201   4.511   5.586   5.398
    7G      H4'  202   4.464   5.674   5.354
    7G      O4'  203   4.604   5.627   5.490
    7G      C1'  204   4.736   5.603   5.447
    7G      H1'  205   4.810   5.678   5.474
    7G       N9  206   4.801   5.489   5.510
    7G       C8  207   4.741   5.385   5.583
    7G       H8  208   4.638   5.379   5.613
    7G       N7  209   4.830   5.305   5.634
    7G       C5  210   4.946   5.339   5.564
    7G       C6  211   5.073   5.276   5.578
    7G       O6  212   5.110   5.182   5.649
    7G       N1  213   5.168   5.322   5.489
    7G       H1  214   5.265   5.296   5.498
    7G       C2  215   5.146   5.437   5.413
    7G       N2  216   5.247   5.490   5.355
    7G      H21  217   5.341   5.452   5.362
    7G      H22  218   5.230   5.584   5.321
    7G       N3  219   5.028   5.496   5.402
    7G       C4  220   4.926   5.443   5.481
    7G      C3'  221   4.582   5.515   5.287
    7G      H3'  222   4.603   5.410   5.311
    7G      C2'  223   4.724   5.583   5.298
    7G      H2'  224   4.805   5.527   5.252
    7G      O2'  225   4.715   5.715   5.242
    7G     HO2'  226   4.691   5.708   5.150
    7G      O3'  227   4.530   5.522   5.150
    8G        P  228   4.545   5.404   5.050
    8G      OP1  229   4.475   5.440   4.928
    8G      OP2  230   4.490   5.290   5.120
    8G      O5'  231   4.708   5.399   5.037
    8G      C5'  232   4.775   5.480   4.946
    8G      H5'  233   4.768   5.585   4.972
    8G     H5''  234   4.733   5.457   4.848
    8G      C4'  235   4.921   5.439   4.954
    8G      H4'  236   4.962   5.522   4.897
    8G      O4'  237   4.987   5.443   5.075
    8G      C1'  238   5.083   5.339   5.094
    8G      H1'  239   5.180   5.370   5.132
    8G       N9  240   5.028   5.233   5.188
    8G       C8  241   4.909   5.219   5.260
    8G       H8  242   4.826   5.287   5.257
    8G       N7  243   4.909   5.112   5.333
    8G       C5  244   5.040   5.060   5.315
    8G       C6  245   5.111   4.954   5.384
    8G       O6  246   5.078   4.885   5.479
    8G       N1  247   5.238   4.920   5.331
    8G       H1  248   5.301   4.866   5.389
    8G       C2  249   5.293   4.992   5.231
    8G       N2  250   5.402   4.960   5.173
    8G      H21  251   5.446   4.870   5.183
    8G      H22  252   5.440   5.034   5.115
    8G       N3  253   5.240   5.106   5.182
    8G       C4  254   5.111   5.131   5.224
    8G      C3'  255   4.957   5.310   4.880
    8G      H3'  256   4.888   5.230   4.907
    8G      C2'  257   5.089   5.277   4.949
    8G      H2'  258   5.112   5.170   4.943
    8G      O2'  259   5.202   5.355   4.894
    8G     HO2'  260   5.182   5.369   4.801
    8G      O3'  261   4.960   5.313   4.732
    9G        P  262   4.930   5.180   4.654
    9G      OP1  263   4.939   5.211   4.513
    9G      OP2  264   4.796   5.122   4.696
    9G      O5'  265   5.042   5.084   4.696
    9G      C5'  266   5.171   5.085   4.643
    9G      H5'  267   5.217   5.178   4.679
    9G     H5''  268   5.175   5.081   4.535
    9G      C4'  269   5.253   4.971   4.687
    9G      H4'  270   5.351   4.985   4.642
    9G      O4'  271   5.272   4.979   4.830
    9G      C1'  272   5.271   4.852   4.885
    9G      H1'  273   5.361   4.836   4.944
    9G       N9  274   5.153   4.829   4.969
    9G       C8  275   5.024   4.884   4.963
    9G       H8  276   5.003   4.956   4.885
    9G       N7  277   4.940   4.842   5.050
    9G       C5  278   5.013   4.744   5.120
    9G       C6  279   4.984   4.663   5.235
    9G       O6  280   4.887   4.660   5.316
    9G       N1  281   5.088   4.585   5.280
    9G       H1  282   5.081   4.507   5.343
    9G       C2  283   5.201   4.579   5.208
    9G       N2  284   5.272   4.478   5.230
    9G      H21  285   5.242   4.401   5.288
    9G      H22  286   5.355   4.473   5.173
    9G       N3  287   5.235   4.652   5.108
    9G       C4  288   5.136   4.730   5.061
    9G      C3'  289   5.203   4.830   4.652
    9G      H3'  290   5.095   4.828   4.667
    9G      C2'  291   5.257   4.757   4.768
    9G      H2'  292   5.190   4.672   4.781
    9G      O2'  293   5.388   4.715   4.750
    9G     HO2'  294   5.428   4.763   4.677
    9G      O3'  295   5.257   4.793   4.524
   10U        P  296   5.177   4.715   4.413
   10U      OP1  297   5.278   4.676   4.307
   10U      OP2  298   5.062   4.794   4.375
   10U      O5'  299   5.124   4.584   4.487
   10U      C5'  300   5.213   4.482   4.528
   10U      H5'  301   5.302   4.534   4.564
   10U     H5''  302   5.235   4.422   4.440
   10U      C4'  303   5.150   4.388   4.629
   10U      H4'  304   5.225   4.315   4.658
   10U      O4'  305   5.113   4.467   4.741
   10U      C1'  306   5.009   4.399   4.810
   10U      H1'  307   5.043   4.344   4.898
   10U       N1  308   4.904   4.491   4.842
   10U       C6  309   4.849   4.579   4.754
   10U       H6  310   4.899   4.581   4.659
   10U       C5  311   4.741   4.657   4.789
   10U       H5  312   4.695   4.721   4.716
   10U       C4  313   4.679   4.641   4.916
   10U       O4  314   4.575   4.696   4.944
   10U       N3  315   4.743   4.552   4.996
   10U       H3  316   4.707   4.538   5.089
   10U       C2  317   4.853   4.476   4.972
   10U       O2  318   4.890   4.395   5.052
   10U      C3'  319   5.020   4.323   4.581
   10U      H3'  320   4.956   4.386   4.519
   10U      C2'  321   4.956   4.291   4.710
   10U      H2'  322   4.847   4.300   4.705
   10U      O2'  323   5.000   4.161   4.755
   10U     HO2'  324   5.046   4.128   4.677
   10U      O3'  325   5.048   4.202   4.507
   11U        P  326   4.944   4.143   4.406
   11U      OP1  327   5.002   4.018   4.351
   11U      OP2  328   4.878   4.247   4.321
   11U      O5'  329   4.827   4.083   4.509
   11U      C5'  330   4.776   3.954   4.488
   11U      H5'  331   4.850   3.882   4.522
   11U     H5''  332   4.764   3.939   4.381
   11U      C4'  333   4.643   3.910   4.544
   11U      H4'  334   4.615   3.814   4.499
   11U      O4'  335   4.655   3.907   4.682
   11U      C1'  336   4.526   3.950   4.732
   11U      H1'  337   4.482   3.866   4.786
   11U       N1  338   4.533   4.064   4.823
   11U       C6  339   4.597   4.175   4.785
   11U       H6  340   4.661   4.187   4.698
   11U       C5  341   4.576   4.287   4.861
   11U       H5  342   4.622   4.378   4.823
   11U       C4  343   4.492   4.294   4.979
   11U       O4  344   4.459   4.389   5.052
   11U       N3  345   4.452   4.166   5.024
   11U       H3  346   4.405   4.160   5.113
   11U       C2  347   4.473   4.048   4.949
   11U       O2  348   4.428   3.946   4.998
   11U      C3'  349   4.533   4.007   4.516
   11U      H3'  350   4.575   4.106   4.535
   11U      C2'  351   4.431   3.967   4.617
   11U      H2'  352   4.353   4.038   4.646
   11U      O2'  353   4.364   3.846   4.579
   11U     HO2'  354   4.377   3.837   4.485
   11U      O3'  355   4.491   3.980   4.381
   12A        P  356   4.397   4.091   4.308
   12A      OP1  357   4.371   4.041   4.168
   12A      OP2  358   4.470   4.217   4.327
   12A      O5'  359   4.251   4.112   4.369
   12A      C5'  360   4.150   4.018   4.357
   12A      H5'  361   4.178   3.928   4.412
   12A     H5''  362   4.129   3.985   4.255
   12A      C4'  363   4.012   4.065   4.412
   12A      H4'  364   3.929   4.007   4.371
   12A      O4'  365   4.025   4.066   4.555
   12A      C1'  366   3.958   4.178   4.604
   12A      H1'  367   3.890   4.152   4.686
   12A       N9  368   4.056   4.274   4.666
   12A       C8  369   4.192   4.264   4.657
   12A       H8  370   4.245   4.195   4.593
   12A       N7  371   4.262   4.356   4.721
   12A       C5  372   4.166   4.421   4.786
   12A       C6  373   4.164   4.525   4.878
   12A       N6  374   4.274   4.585   4.921
   12A      H61  375   4.251   4.665   4.980
   12A      H62  376   4.369   4.557   4.906
   12A       N1  377   4.048   4.587   4.914
   12A       C2  378   3.941   4.526   4.876
   12A       H2  379   3.852   4.579   4.908
   12A       N3  380   3.927   4.422   4.800
   12A       C4  381   4.042   4.376   4.755
   12A      C3'  382   3.982   4.207   4.369
   12A      H3'  383   4.075   4.258   4.391
   12A      C2'  384   3.882   4.240   4.477
   12A      H2'  385   3.878   4.349   4.482
   12A      O2'  386   3.757   4.173   4.450
   12A     HO2'  387   3.684   4.234   4.459
   12A      O3'  388   3.921   4.223   4.245
   13G        P  389   3.950   4.356   4.158
   13G      OP1  390   3.859   4.348   4.041
   13G      OP2  391   4.089   4.378   4.124
   13G      O5'  392   3.905   4.481   4.245
   13G      C5'  393   3.769   4.513   4.267
   13G      H5'  394   3.720   4.419   4.291
   13G     H5''  395   3.728   4.541   4.169
   13G      C4'  396   3.745   4.628   4.377
   13G      H4'  397   3.641   4.652   4.395
   13G      O4'  398   3.805   4.599   4.502
   13G      C1'  399   3.879   4.703   4.564
   13G      H1'  400   3.839   4.706   4.665
   13G       N9  401   4.026   4.683   4.558
   13G       C8  402   4.107   4.611   4.470
   13G       H8  403   4.070   4.550   4.389
   13G       N7  404   4.233   4.632   4.483
   13G       C5  405   4.238   4.726   4.584
   13G       C6  406   4.351   4.791   4.645
   13G       O6  407   4.474   4.782   4.622
   13G       N1  408   4.317   4.882   4.746
   13G       H1  409   4.391   4.937   4.786
   13G       C2  410   4.189   4.899   4.797
   13G       N2  411   4.174   4.993   4.888
   13G      H21  412   4.249   5.052   4.920
   13G      H22  413   4.078   5.011   4.914
   13G       N3  414   4.081   4.846   4.736
   13G       C4  415   4.111   4.767   4.630
   13G      C3'  416   3.798   4.771   4.352
   13G      H3'  417   3.888   4.766   4.291
   13G      C2'  418   3.838   4.828   4.496
   13G      H2'  419   3.920   4.900   4.488
   13G      O2'  420   3.727   4.880   4.576
   13G     HO2'  421   3.684   4.945   4.520
   13G      O3'  422   3.706   4.865   4.290
   14G        P  423   3.757   4.985   4.201
   14G      OP1  424   3.648   5.046   4.131
   14G      OP2  425   3.874   4.937   4.129
   14G      O5'  426   3.823   5.094   4.304
   14G      C5'  427   3.742   5.174   4.395
   14G      H5'  428   3.673   5.117   4.457
   14G     H5''  429   3.681   5.235   4.328
   14G      C4'  430   3.831   5.260   4.497
   14G      H4'  431   3.763   5.301   4.571
   14G      O4'  432   3.919   5.179   4.571
   14G      C1'  433   4.048   5.232   4.583
   14G      H1'  434   4.086   5.235   4.685
   14G       N9  435   4.153   5.161   4.506
   14G       C8  436   4.129   5.076   4.394
   14G       H8  437   4.039   5.059   4.337
   14G       N7  438   4.241   5.017   4.360
   14G       C5  439   4.342   5.062   4.443
   14G       C6  440   4.483   5.045   4.440
   14G       O6  441   4.542   4.966   4.366
   14G       N1  442   4.542   5.114   4.539
   14G       H1  443   4.642   5.102   4.554
   14G       C2  444   4.480   5.197   4.623
   14G       N2  445   4.561   5.254   4.705
   14G      H21  446   4.656   5.221   4.714
   14G      H22  447   4.516   5.323   4.763
   14G       N3  448   4.351   5.216   4.633
   14G       C4  449   4.283   5.152   4.532
   14G      C3'  450   3.922   5.360   4.425
   14G      H3'  451   3.950   5.306   4.335
   14G      C2'  452   4.030   5.377   4.529
   14G      H2'  453   4.118   5.417   4.479
   14G      O2'  454   3.984   5.457   4.641
   14G     HO2'  455   4.059   5.466   4.701
   14G      O3'  456   3.844   5.472   4.412
   15G        P  457   3.886   5.589   4.303
   15G      OP1  458   3.775   5.688   4.318
   15G      OP2  459   3.921   5.540   4.169
   15G      O5'  460   4.016   5.662   4.370
   15G      C5'  461   4.006   5.744   4.485
   15G      H5'  462   3.937   5.690   4.550
   15G     H5''  463   3.965   5.843   4.463
   15G      C4'  464   4.144   5.769   4.549
   15G      H4'  465   4.143   5.834   4.636
   15G      O4'  466   4.207   5.644   4.592
   15G      C1'  467   4.346   5.659   4.567
   15G      H1'  468   4.404   5.638   4.658
   15G       N9  469   4.382   5.551   4.464
   15G       C8  470   4.309   5.483   4.368
   15G       H8  471   4.206   5.507   4.347
   15G       N7  472   4.373   5.397   4.302
   15G       C5  473   4.505   5.404   4.353
   15G       C6  474   4.630   5.334   4.321
   15G       O6  475   4.654   5.239   4.247
   15G       N1  476   4.734   5.379   4.403
   15G       H1  477   4.821   5.334   4.380
   15G       C2  478   4.726   5.479   4.494
   15G       N2  479   4.836   5.508   4.563
   15G      H21  480   4.928   5.478   4.537
   15G      H22  481   4.825   5.584   4.629
   15G       N3  482   4.620   5.543   4.529
   15G       C4  483   4.511   5.499   4.456
   15G      C3'  484   4.244   5.833   4.449
   15G      H3'  485   4.239   5.776   4.355
   15G      C2'  486   4.377   5.797   4.501
   15G      H2'  487   4.443   5.787   4.415
   15G      O2'  488   4.429   5.887   4.591
   15G     HO2'  489   4.524   5.893   4.577
   15G      O3'  490   4.218   5.974   4.427
   16U        P  491   4.244   6.028   4.279
   16U      OP1  492   4.200   6.173   4.272
   16U      OP2  493   4.191   5.931   4.182
   16U      O5'  494   4.391   6.028   4.263
   16U      C5'  495   4.471   6.121   4.343
   16U      H5'  496   4.438   6.104   4.445
   16U     H5''  497   4.463   6.224   4.309
   16U      C4'  498   4.620   6.085   4.342
   16U      H4'  499   4.677   6.144   4.414
   16U      O4'  500   4.645   5.956   4.398
   16U      C1'  501   4.755   5.899   4.327
   16U      H1'  502   4.842   5.872   4.387
   16U       N1  503   4.718   5.770   4.252
   16U       C6  504   4.605   5.767   4.167
   16U       H6  505   4.536   5.849   4.164
   16U       C5  506   4.579   5.654   4.098
   16U       H5  507   4.488   5.654   4.040
   16U       C4  508   4.668   5.541   4.089
   16U       O4  509   4.663   5.447   4.016
   16U       N3  510   4.781   5.554   4.160
   16U       H3  511   4.859   5.497   4.129
   16U       C2  512   4.820   5.670   4.233
   16U       O2  513   4.928   5.668   4.289
   16U      C3'  514   4.680   6.090   4.204
   16U      H3'  515   4.609   6.056   4.130
   16U      C2'  516   4.796   5.993   4.220
   16U      H2'  517   4.838   5.945   4.131
   16U      O2'  518   4.908   6.077   4.259
   16U     HO2'  519   4.952   6.103   4.178
   16U      O3'  520   4.715   6.225   4.174
   17U        P  521   4.772   6.271   4.036
   17U      OP1  522   4.769   6.414   4.057
   17U      OP2  523   4.700   6.211   3.922
   17U      O5'  524   4.923   6.216   4.015
   17U      C5'  525   5.018   6.288   3.944
   17U      H5'  526   5.041   6.372   4.008
   17U     H5''  527   4.976   6.331   3.853
   17U      C4'  528   5.144   6.216   3.914
   17U      H4'  529   5.205   6.299   3.879
   17U      O4'  530   5.205   6.152   4.024
   17U      C1'  531   5.305   6.061   3.975
   17U      H1'  532   5.397   6.119   3.980
   17U       N1  533   5.314   5.935   4.048
   17U       C6  534   5.245   5.919   4.166
   17U       H6  535   5.160   5.980   4.192
   17U       C5  536   5.276   5.821   4.258
   17U       H5  537   5.224   5.817   4.352
   17U       C4  538   5.376   5.728   4.234
   17U       O4  539   5.410   5.640   4.311
   17U       N3  540   5.444   5.749   4.112
   17U       H3  541   5.508   5.676   4.083
   17U       C2  542   5.421   5.845   4.022
   17U       O2  543   5.485   5.836   3.919
   17U      C3'  544   5.141   6.108   3.809
   17U      H3'  545   5.059   6.042   3.835
   17U      C2'  546   5.279   6.038   3.830
   17U      H2'  547   5.280   5.931   3.807
   17U      O2'  548   5.383   6.108   3.758
   17U     HO2'  549   5.351   6.130   3.671
   17U      O3'  550   5.130   6.153   3.675
   18A        P  551   5.055   6.079   3.562
   18A      OP1  552   5.062   6.154   3.442
   18A      OP2  553   4.923   6.040   3.606
   18A      O5'  554   5.135   5.943   3.541
   18A      C5'  555   5.222   5.923   3.435
   18A      H5'  556   5.294   6.005   3.430
   18A     H5''  557   5.168   5.912   3.342
   18A      C4'  558   5.291   5.787   3.451
   18A      H4'  559   5.376   5.775   3.383
   18A      O4'  560   5.343   5.766   3.583
   18A      C1'  561   5.339   5.629   3.626
   18A      H1'  562   5.437   5.592   3.655
   18A       N9  563   5.256   5.617   3.747
   18A       C8  564   5.146   5.684   3.783
   18A       H8  565   5.090   5.740   3.709
   18A       N7  566   5.098   5.663   3.906
   18A       C5  567   5.198   5.575   3.955
   18A       C6  568   5.208   5.499   4.071
   18A       N6  569   5.133   5.505   4.177
   18A      H61  570   5.148   5.442   4.254
   18A      H62  571   5.050   5.563   4.178
   18A       N1  572   5.313   5.418   4.086
   18A       C2  573   5.407   5.413   3.990
   18A       H2  574   5.495   5.353   4.010
   18A       N3  575   5.405   5.476   3.874
   18A       C4  576   5.296   5.550   3.862
   18A      C3'  577   5.202   5.660   3.437
   18A      H3'  578   5.116   5.689   3.498
   18A      C2'  579   5.276   5.551   3.515
   18A      H2'  580   5.205   5.480   3.560
   18A      O2'  581   5.392   5.502   3.440
   18A     HO2'  582   5.427   5.428   3.490
   18A      O3'  583   5.162   5.624   3.306
   19G        P  584   5.030   5.542   3.282
   19G      OP1  585   5.012   5.547   3.136
   19G      OP2  586   4.927   5.587   3.373
   19G      O5'  587   5.069   5.390   3.323
   19G      C5'  588   5.162   5.309   3.254
   19G      H5'  589   5.251   5.367   3.230
   19G     H5''  590   5.136   5.270   3.156
   19G      C4'  591   5.214   5.195   3.349
   19G      H4'  592   5.297   5.147   3.296
   19G      O4'  593   5.255   5.230   3.480
   19G      C1'  594   5.206   5.135   3.575
   19G      H1'  595   5.293   5.102   3.631
   19G       N9  596   5.113   5.197   3.668
   19G       C8  597   5.002   5.274   3.650
   19G       H8  598   4.973   5.309   3.552
   19G       N7  599   4.945   5.307   3.763
   19G       C5  600   5.013   5.238   3.859
   19G       C6  601   4.990   5.222   3.995
   19G       O6  602   4.898   5.261   4.069
   19G       N1  603   5.091   5.150   4.062
   19G       H1  604   5.078   5.118   4.157
   19G       C2  605   5.200   5.104   4.001
   19G       N2  606   5.267   5.021   4.078
   19G      H21  607   5.264   5.035   4.178
   19G      H22  608   5.342   4.969   4.035
   19G       N3  609   5.213   5.101   3.866
   19G       C4  610   5.122   5.180   3.807
   19G      C3'  611   5.107   5.092   3.363
   19G      H3'  612   5.010   5.142   3.365
   19G      C2'  613   5.140   5.024   3.493
   19G      H2'  614   5.048   4.987   3.537
   19G      O2'  615   5.235   4.919   3.480
   19G     HO2'  616   5.188   4.839   3.454
   19G      O3'  617   5.092   5.008   3.254
   20G        P  618   4.961   4.924   3.219
   20G      OP1  619   4.949   4.899   3.076
   20G      OP2  620   4.846   4.979   3.291
   20G      O5'  621   4.989   4.788   3.291
   20G      C5'  622   5.072   4.692   3.232
   20G      H5'  623   5.166   4.737   3.198
   20G     H5''  624   5.030   4.652   3.140
   20G      C4'  625   5.112   4.588   3.334
   20G      H4'  626   5.170   4.517   3.276
   20G      O4'  627   5.178   4.643   3.446
   20G      C1'  628   5.123   4.582   3.558
   20G      H1'  629   5.197   4.523   3.612
   20G       N9  630   5.075   4.690   3.647
   20G       C8  631   4.962   4.760   3.632
   20G       H8  632   4.905   4.758   3.541
   20G       N7  633   4.919   4.825   3.736
   20G       C5  634   5.010   4.797   3.830
   20G       C6  635   5.008   4.822   3.975
   20G       O6  636   4.918   4.887   4.033
   20G       N1  637   5.108   4.754   4.042
   20G       H1  638   5.096   4.744   4.142
   20G       C2  639   5.198   4.668   3.979
   20G       N2  640   5.272   4.586   4.052
   20G      H21  641   5.280   4.603   4.151
   20G      H22  642   5.329   4.511   4.015
   20G       N3  643   5.205   4.655   3.850
   20G       C4  644   5.114   4.718   3.779
   20G      C3'  645   4.986   4.515   3.370
   20G      H3'  646   4.896   4.575   3.356
   20G      C2'  647   5.016   4.486   3.518
   20G      H2'  648   4.923   4.497   3.574
   20G      O2'  649   5.050   4.349   3.536
   20G     HO2'  650   5.003   4.297   3.471
   20G      O3'  651   4.972   4.401   3.286
   21G3       P  652   4.843   4.311   3.277
   21G3     OP1  653   4.837   4.257   3.137
   21G3     OP2  654   4.725   4.385   3.329
   21G3     O5'  655   4.872   4.201   3.378
   21G3     C5'  656   4.964   4.097   3.344
   21G3     H5'  657   5.067   4.133   3.334
   21G3    H5''  658   4.954   4.047   3.248
   21G3     C4'  659   4.948   3.978   3.442
   21G3     H4'  660   5.020   3.899   3.420
   21G3     O4'  661   4.995   4.026   3.571
   21G3     C1'  662   4.899   4.006   3.670
   21G3     H1'  663   4.931   3.964   3.766
   21G3      N9  664   4.843   4.139   3.706
   21G3      C8  665   4.724   4.194   3.669
   21G3      H8  666   4.659   4.149   3.596
   21G3      N7  667   4.703   4.312   3.707
   21G3      C5  668   4.817   4.334   3.793
   21G3      C6  669   4.847   4.450   3.878
   21G3      O6  670   4.785   4.557   3.895
   21G3      N1  671   4.963   4.424   3.954
   21G3      H1  672   4.993   4.499   4.015
   21G3      C2  673   5.034   4.319   3.949
   21G3      N2  674   5.124   4.313   4.043
   21G3     H21  675   5.144   4.398   4.094
   21G3     H22  676   5.179   4.229   4.052
   21G3      N3  677   5.012   4.213   3.873
   21G3      C4  678   4.904   4.232   3.796
   21G3     C3'  679   4.807   3.922   3.462
   21G3     H3'  680   4.732   3.997   3.437
   21G3     C2'  681   4.798   3.905   3.615
   21G3     H2'  682   4.697   3.927   3.650
   21G3     O2'  683   4.843   3.779   3.668
   21G3    HO2'  684   4.766   3.729   3.696
   21G3     O3'  685   4.784   3.793   3.403
   21G3    HO3'  686   4.856   3.737   3.432
   22Cl-    Cl-  687   0.220   5.067   0.083
   23Cl-    Cl-  688   2.456   9.379   4.118
   24Cl-    Cl-  689   2.013   1.388   3.526
   25Cl-    Cl-  690   3.385   4.224   2.390
   26Cl-    Cl-  691   4.230   9.101   6.497
   27Cl-    Cl-  692   1.789   4.033   2.986
   28Cl-    Cl-  693   0.064   2.881   5.132
   29Cl-    Cl-  694   9.565   5.150   8.682
   30Cl-    Cl-  695   6.997   6.928   1.178
   31Cl-    Cl-  696   3.119   6.938   5.406
   32Cl-    Cl-  697   1.962   0.324   0.675
   33Cl-    Cl-  698   8.475   0.712   8.256
   34Cl-    Cl-  699   7.765   8.715   2.950
   35Cl-    Cl-  700   6.056   9.055   1.092
   36Cl-    Cl-  701   9.114   2.006   5.551
   37Cl-    Cl-  702   8.547   7.513   9.484
   38Cl-    Cl-  703   1.095   1.304   4.500
   39Cl-    Cl-  704   7.860   7.588   2.735
   40Cl-    Cl-  705   6.797   1.951   0.284
   41Cl-    Cl-  706   5.495   4.435   0.371
   42Cl-    Cl-  707   9.529   8.879   5.940
   43Cl-    Cl-  708   9.073   9.508   7.857
   44Cl-    Cl-  709   6.250   6.548   6.479
   45Cl-    Cl-  710   8.819   3.036   3.029
   46Cl-    Cl-  711   2.370   6.425   0.628
   47Cl-    Cl-  712   2.804   3.401   4.919
   48Cl-    Cl-  713   7.188   3.839   2.061
   49Cl-    Cl-  714   7.227   5.826   3.224
   50Cl-    Cl-  715   2.365   4.482   6.655
   51Cl-    Cl-  716   2.768   3.726   1.223
   52Cl-    Cl-  717   8.899   4.290   5.280
   53Cl-    Cl-  718   9.090   5.197   8.966
   54Cl-    Cl-  719   2.303   4.074   8.550
   55Cl-    Cl-  720   3.224   1.528   2.276
   56Cl-    Cl-  721   9.884   2.755   1.067
   57Cl-    Cl-  722   0.697   2.355   8.211
   58Cl-    Cl-  723   6.105   0.196   5.498
   59Cl-    Cl-  724   9.326   3.014   6.230
   60Cl-    Cl-  725   2.000   7.752   7.935
   61Cl-    Cl-  726   3.990   1.156   3.199
   62Cl-    Cl-  727   1.411   9.106   7.196
   63Cl-    Cl-  728   1.244   7.590   2.389
   64Cl-    Cl-  729   5.740   6.687   0.177
   65Cl-    Cl-  730   1.325   7.775   7.074
   66Cl-    Cl-  731   1.513   5.421   6.708
   67Cl-    Cl-  732   2.377   2.586   6.924
   68Cl-    Cl-  733   7.199   6.903   9.282
   69Cl-    Cl-  734   9.343   5.455   1.689
   70Cl-    Cl-  735   0.491   0.097   3.672
   71Cl-    Cl-  736   6.053   5.464   5.684
   72Cl-    Cl-  737   3.061   8.751   5.938
   73Cl-    Cl-  738   3.109   2.702   3.725
   74Cl-    Cl-  739   5.343   6.250   2.864
   75Cl-    Cl-  740   9.192   7.892   0.621
   76Cl-    Cl-  741   0.298   8.273   4.179
   77Cl-    Cl-  742   2.099   4.910   0.334
   78Cl-    Cl-  743   9.640   3.742   2.550
   79Cl-    Cl-  744   0.879   4.326   4.097
   80Cl-    Cl-  745   2.771   0.451   8.280
   81Cl-    Cl-  746   3.806   7.901   7.857
   82Cl-    Cl-  747   6.848   3.884   9.716
   83Cl-    Cl-  748   8.013   0.049   7.336
   84Cl-    Cl-  749   0.177   0.666   0.380
   85Cl-    Cl-  750   5.102   7.996   1.018
   86Cl-    Cl-  751   1.511   0.779   3.875
   87Cl-    Cl-  752   0.758   8.994   8.943
   88Cl-    Cl-  753   8.039   6.112   9.444
   89Cl-    Cl-  754   9.478   2.098   7.033
   90Cl-    Cl-  755   6.909   7.731   7.707
   91Cl-    Cl-  756   7.198   9.083   8.359
   92Cl-    Cl-  757   4.565   7.671   4.106
   93Cl-    Cl-  758   4.836   8.829   4.707
   94Cl-    Cl-  759   2.058   2.344   4.327
   95Cl-    Cl-  760   3.881   4.592   2.200
   96Cl-    Cl-  761   3.133   6.266   4.285
   97Cl-    Cl-  762   5.880   2.552   9.406
   98Cl-    Cl-  763   0.722   0.602   7.582
   99Cl-    Cl-  764   8.115   0.395   0.726
  100Cl-    Cl-  765   6.905   0.215   5.761
  101Cl-    Cl-  766   8.356   8.428   4.549
  102Cl-    Cl-  767   4.945   6.319   6.159
  103Cl-    Cl-  768   9.257   1.053   3.884
  104Cl-    Cl-  769   8.421   0.526   6.298
  105Cl-    Cl-  770   8.745   6.800   0.481
  106Cl-    Cl-  771   3.123   9.832   3.078
  107K+      K+  772   6.542   2.021   9.341
  108K+      K+  773   9.535   4.900   9.067
  109K+      K+  774   4.502   4.844   5.141
  110K+      K+  775   4.857   3.008   7.420
  111K+      K+  776   8.389   0.693   3.823
  112K+      K+  777   7.495   0.404   2.036
  113K+      K+  778   2.997   0.459   3.428
  114K+      K+  779   4.428   1.922   6.593
  115K+      K+  780   0.022   3.074   3.851
  116K+      K+  781   5.633   6.609   7.052
  117K+      K+  782   5.754   0.727   3.864
  118K+      K+  783   6.800   3.558   3.028
  119K+      K+  784   0.923   7.962   8.621
  120K+      K+  785   7.507   0.729   7.708
  121K+      K+  786   4.226   5.415   3.277
  122K+      K+  787   5.911   4.761   6.282
  123K+      K+  788   0.770   0.131   7.903
  124K+      K+  789   7.348   6.310   3.491
  125K+      K+  790   0.191   0.339   0.043
  126K+      K+  791   4.538   4.529   3.718
  127K+      K+  792   3.592   3.901   4.460
  128K+      K+  793   7.977   9.504   0.392
  129K+      K+  794   5.654   8.089   1.222
  130K+      K+  795   2.545   2.566   6.113
  131K+      K+  796   1.331   2.332   4.406
  132K+      K+  797   3.296   9.025   7.648
  133K+      K+  798   9.058   7.158   0.835
  134K+      K+  799   1.174   3.944   8.717
  135K+      K+  800   4.531   4.666   4.401
  136K+      K+  801   3.304   5.081   1.700
  137K+      K+  802   0.290   6.291   1.361
  138K+      K+  803   6.854   2.756   8.188
  139K+      K+  804   7.547   4.126   9.483
  140K+      K+  805   0.808   1.777   1.522
  141K+      K+  806   4.663   4.661   5.462
  142K+      K+  807   3.974   5.019   6.765
  143K+      K+  808   5.510   9.383   5.149
  144K+      K+  809   9.180   3.563   2.543
  145K+      K+  810   2.627   3.392   4.319
  146K+      K+  811   8.389   1.312   6.106
  147K+      K+  812   4.469   6.551   1.914
  148K+      K+  813   4.675   5.350   3.773
  149K+      K+  814   7.354   8.683   8.768
  150K+      K+  815   3.255   4.160   9.522
  151K+      K+  816   0.668   6.603   4.801
  152K+      K+  817   4.876   6.361   5.229
  153K+      K+  818   0.486   7.416   8.816
  154K+      K+  819   7.000   8.166   9.470
  155K+      K+  820   8.943   3.102   8.595
  156K+      K+  821   4.665   4.974   2.922
  157K+      K+  822   8.440   7.282   3.529
  158K+      K+  823   0.549   7.808   6.860
  159K+      K+  824   3.301   4.153   0.330
  160K+      K+  825   3.064   7.885   4.549
  161K+      K+  826   8.997   7.865   1.620
  162K+      K+  827   6.838   7.268   1.710
  163K+      K+  828   4.741   5.011   4.177
  164K+      K+  829   4.185   4.184   3.745
  165K+      K+  830   5.010   9.527   7.774
  166K+      K+  831   5.197   0.551   7.741
  167K+      K+  832   1.950   7.833   1.117
  168K+      K+  833   0.201   9.107   4.222
  169K+      K+  834   2.152   7.333   5.949
  170K+      K+  835   2.864   6.428   4.651
  171K+      K+  836   4.894   5.037   5.658
  172K+      K+  837   7.038   3.789   5.337
  173K+      K+  838   3.992   9.069   0.007
  174K+      K+  839   4.575   5.885   3.560
  175K+      K+  840   3.954   3.280   4.213
  176K+      K+  841   1.583   2.072   5.489
  177K+      K+  842   0.226   2.288   6.812
  178K+      K+  843   1.422   8.749   3.320
  179K+      K+  844   6.750   7.705   5.088
  180K+      K+  845   4.800   7.563   2.836
  181K+      K+  846   2.806   3.114   7.350
  182K+      K+  847   7.708   8.720   5.407
  183K+      K+  848   8.304   1.806   6.058
  184K+      K+  849   9.530   1.161   0.293
  185K+      K+  850   3.490   8.181   7.009
  186K+      K+  851   9.703   5.688   1.925
  187K+      K+  852   5.757   1.734   1.149
  188K+      K+  853   2.163   1.754   4.042
  189K+      K+  854   5.030   6.162   7.956
  190K+      K+  855   3.616   0.074   3.796
  191K+      K+  856   9.285   2.441   5.005
  192K+      K+  857   8.530   9.521   6.513
  193K+      K+  858   9.566   8.566   9.213
  194K+      K+  859   8.484   6.076   9.293
  195K+      K+  860   1.365   3.687   3.508
  196K+      K+  861   9.382   2.475   6.014
  197K+      K+  862   3.126   8.171   5.895
  198K+      K+  863   9.886   5.814   0.030
  199K+      K+  864   5.452   5.106   6.367
  200K+      K+  865   6.395   5.976   8.154
  201K+      K+  866   9.043   4.466   2.939
  202K+      K+  867   7.996   9.704   8.251
  203K+      K+  868   3.387   2.873   9.109
  204K+      K+  869   8.678   1.761   3.153
  205K+      K+  870   5.843   5.795   3.806
  206K+      K+  871   9.421   3.142   7.449
  207K+      K+  872   1.175   5.907   1.458
  208K+      K+  873   2.301   5.540   7.593
  209K+      K+  874   4.196   9.454   4.784
  210K+      K+  875   9.491   0.944   1.788
  211K+      K+  876   4.908   2.414   5.292
  212WAT      O  877   0.042   6.621   3.421
  212WAT     H1  878   0.020   6.526   3.400
  212WAT     H2  879  -0.024   6.658   3.487
  213WAT      O  880   5.910   5.357   9.095
  213WAT     H1  881   5.868   5.368   9.185
  213WAT     H2  882   5.895   5.263   9.063
  214WAT      O  883   5.934   4.513   7.888
  214WAT     H1  884   5.843   4.493   7.852
  214WAT     H2  885   5.962   4.604   7.858
  215WAT      O  886   4.191   6.020   0.529
  215WAT     H1  887   4.109   5.963   0.519
  215WAT     H2  888   4.219   6.020   0.625
  216WAT      O  889   8.957   2.125   7.991
  216WAT     H1  890   9.033   2.063   7.971
  216WAT     H2  891   8.962   2.205   7.932
  217WAT      O  892   8.204   0.051   0.199
  217WAT     H1  893   8.237   0.144   0.219
  217WAT     H2  894   8.121   0.057   0.144
  218WAT      O  895   0.079   3.074   2.283
  218WAT     H1  896   0.078   3.004   2.212
  218WAT     H2  897   0.098   3.163   2.242
  219WAT      O  898   2.217   7.725   1.032
  219WAT     H1  899   2.264   7.643   1.062
  219WAT     H2  900   2.167   7.705   0.948
  220WAT      O  901   0.158   8.722   2.384
  220WAT     H1  902   0.103   8.661   2.327
  220WAT     H2  903   0.220   8.667   2.441
  221WAT      O  904   3.335   5.659   1.700
  221WAT     H1  905   3.340   5.580   1.762
  221WAT     H2  906   3.421   5.710   1.705
  222WAT      O  907   3.047   6.351   0.884
  222WAT     H1  908   3.029   6.349   0.785
  222WAT     H2  909   3.000   6.275   0.928
  223WAT      O  910   2.398   9.321   0.185
  223WAT     H1  911   2.304   9.332   0.218
  223WAT     H2  912   2.426   9.225   0.197
  224WAT      O  913   4.969   6.754   3.502
  224WAT     H1  914   4.996   6.691   3.574
  224WAT     H2  915   4.985   6.848   3.532
  225WAT      O  916   3.576   9.786   8.390
  225WAT     H1  917   3.541   9.831   8.307
  225WAT     H2  918   3.525   9.818   8.470
  226WAT      O  919   2.455   4.225   1.379
  226WAT     H1  920   2.532   4.161   1.388
  226WAT     H2  921   2.369   4.174   1.376
  227WAT      O  922   3.315   7.001   4.515
  227WAT     H1  923   3.354   7.088   4.487
  227WAT     H2  924   3.381   6.952   4.572
  228WAT      O  925   9.271   6.967   6.169
  228WAT     H1  926   9.233   7.019   6.246
  228WAT     H2  927   9.236   7.005   6.083
  229WAT      O  928   7.365   1.364   7.231
  229WAT     H1  929   7.327   1.392   7.143
  229WAT     H2  930   7.325   1.419   7.304
  230WAT      O  931   8.667   0.824   5.668
  230WAT     H1  932   8.757   0.824   5.711
  230WAT     H2  933   8.652   0.735   5.625
  231WAT      O  934   6.912   5.683   9.397
  231WAT     H1  935   6.972   5.629   9.457
  231WAT     H2  936   6.953   5.687   9.306
  232WAT      O  937   8.650   5.986  -0.002
  232WAT     H1  938   8.630   5.892   0.023
  232WAT     H2  939   8.588   6.048   0.046
  233WAT      O  940   5.006   8.393   7.740
  233WAT     H1  941   4.955   8.461   7.792
  233WAT     H2  942   5.011   8.421   7.644
  234WAT      O  943   1.773   3.776   0.045
  234WAT     H1  944   1.730   3.865   0.057
  234WAT     H2  945   1.704   3.704   0.053
  235WAT      O  946   9.173   8.350   9.485
  235WAT     H1  947   9.093   8.320   9.537
  235WAT     H2  948   9.179   8.449   9.487
  236WAT      O  949   4.427   6.577   2.201
  236WAT     H1  950   4.505   6.640   2.197
  236WAT     H2  951   4.371   6.599   2.281
  237WAT      O  952   1.397   1.025   3.753
  237WAT     H1  953   1.298   1.036   3.754
  237WAT     H2  954   1.421   0.932   3.781
  238WAT      O  955   0.665   4.426   6.699
  238WAT     H1  956   0.720   4.417   6.616
  238WAT     H2  957   0.709   4.492   6.760
  239WAT      O  958   1.168   4.459   7.963
  239WAT     H1  959   1.256   4.472   7.917
  239WAT     H2  960   1.181   4.404   8.046
  240WAT      O  961   6.639   7.175   7.653
  240WAT     H1  962   6.695   7.095   7.675
  240WAT     H2  963   6.685   7.258   7.685
  241WAT      O  964   5.356   1.653   9.309
  241WAT     H1  965   5.428   1.679   9.245
  241WAT     H2  966   5.267   1.680   9.271
  242WAT      O  967   6.831   9.683   5.320
  242WAT     H1  968   6.860   9.613   5.255
  242WAT     H2  969   6.893   9.762   5.315
  243WAT      O  970   4.447   1.683   8.849
  243WAT     H1  971   4.532   1.709   8.895
  243WAT     H2  972   4.469   1.635   8.764
  244WAT      O  973   6.291   0.696   0.440
  244WAT     H1  974   6.253   0.731   0.354
  244WAT     H2  975   6.219   0.690   0.509
  245WAT      O  976   4.858   1.867   4.356
  245WAT     H1  977   4.814   1.927   4.289
  245WAT     H2  978   4.955   1.890   4.363
  246WAT      O  979   3.740   5.964   0.772
  246WAT     H1  980   3.726   5.870   0.741
  246WAT     H2  981   3.740   5.966   0.872
  247WAT      O  982   5.443   7.331   7.596
  247WAT     H1  983   5.367   7.317   7.532
  247WAT     H2  984   5.441   7.260   7.666
  248WAT      O  985   5.072   7.703   5.574
  248WAT     H1  986   4.981   7.662   5.584
  248WAT     H2  987   5.064   7.802   5.562
  249WAT      O  988   8.827   1.201   9.780
  249WAT     H1  989   8.815   1.133   9.707
  249WAT     H2  990   8.863   1.286   9.741
  250WAT      O  991   7.801   2.467   7.134
  250WAT     H1  992   7.868   2.393   7.142
  250WAT     H2  993   7.779   2.502   7.225
  251WAT      O  994   4.619   7.730   4.482
  251WAT     H1  995   4.692   7.675   4.442
  251WAT     H2  996   4.530   7.699   4.447
  252WAT      O  997   4.313   0.070   2.046
  252WAT     H1  998   4.276   0.162   2.033
  252WAT     H2  999   4.346   0.060   2.140
  253WAT      O 1000   7.063   4.986   5.057
  253WAT     H1 1001   6.980   4.949   5.100
  253WAT     H2 1002   7.144   4.951   5.105
  254WAT      O 1003   0.259   6.950   1.228
  254WAT     H1 1004   0.234   7.033   1.178
  254WAT     H2 1005   0.223   6.870   1.180
  255WAT      O 1006   3.038   8.928   0.074
  255WAT     H1 1007   3.109   8.946   0.005
  255WAT     H2 1008   3.073   8.862   0.141
  256WAT      O 1009   6.292   1.622   3.586
  256WAT     H1 1010   6.343   1.613   3.671
  256WAT     H2 1011   6.322   1.705   3.538
  257WAT      O 1012   0.538   9.374   2.904
  257WAT     H1 1013   0.453   9.384   2.955
  257WAT     H2 1014   0.601   9.448   2.930
  258WAT      O 1015   2.183   2.120   7.650
  258WAT     H1 1016   2.262   2.059   7.645
  258WAT     H2 1017   2.205   2.208   7.608
  259WAT      O 1018   2.337   8.773   5.114
  259WAT     H1 1019   2.256   8.787   5.170
  259WAT     H2 1020   2.385   8.860   5.101
  260WAT      O 1021   9.815   4.055   5.185
  260WAT     H1 1022   9.911   4.070   5.164
  260WAT     H2 1023   9.758   4.117   5.132
  261WAT      O 1024   3.745   6.502   6.371
  261WAT     H1 1025   3.709   6.444   6.297
  261WAT     H2 1026   3.759   6.595   6.336
  262WAT      O 1027   1.128   1.887   5.479
  262WAT     H1 1028   1.095   1.921   5.391
  262WAT     H2 1029   1.119   1.788   5.482
  263WAT      O 1030   5.788   9.351   2.216
  263WAT     H1 1031   5.878   9.357   2.259
  263WAT     H2 1032   5.721   9.401   2.271
  264WAT      O 1033   8.100   5.652   0.228
  264WAT     H1 1034   8.075   5.582   0.160
  264WAT     H2 1035   8.028   5.659   0.297
  265WAT      O 1036   3.487   8.690   7.324
  265WAT     H1 1037   3.499   8.745   7.407
  265WAT     H2 1038   3.480   8.750   7.245
  266WAT      O 1039   0.488   6.166   1.032
  266WAT     H1 1040   0.578   6.186   1.072
  266WAT     H2 1041   0.418   6.220   1.078
  267WAT      O 1042   8.064   6.752   1.621
  267WAT     H1 1043   8.073   6.763   1.720
  267WAT     H2 1044   8.141   6.797   1.575
  268WAT      O 1045   8.728   0.024   7.565
  268WAT     H1 1046   8.662  -0.042   7.599
  268WAT     H2 1047   8.813  -0.023   7.540
  269WAT      O 1048   8.882   3.133   6.395
  269WAT     H1 1049   8.790   3.159   6.364
  269WAT     H2 1050   8.947   3.206   6.371
  270WAT      O 1051   2.017   6.240   6.952
  270WAT     H1 1052   2.061   6.162   6.996
  270WAT     H2 1053   2.024   6.230   6.852
  271WAT      O 1054   5.299   0.324   4.414
  271WAT     H1 1055   5.239   0.346   4.337
  271WAT     H2 1056   5.276   0.383   4.492
  272WAT      O 1057   5.442   6.573   0.570
  272WAT     H1 1058   5.351   6.537   0.588
  272WAT     H2 1059   5.488   6.516   0.501
  273WAT      O 1060   4.588   1.702   9.794
  273WAT     H1 1061   4.539   1.757   9.861
  273WAT     H2 1062   4.645   1.634   9.841
  274WAT      O 1063   0.807   0.650   5.685
  274WAT     H1 1064   0.760   0.734   5.711
  274WAT     H2 1065   0.805   0.586   5.761
  275WAT      O 1066   2.825   1.509   2.855
  275WAT     H1 1067   2.849   1.426   2.804
  275WAT     H2 1068   2.873   1.509   2.942
  276WAT      O 1069   5.458   9.554   9.511
  276WAT     H1 1070   5.501   9.602   9.587
  276WAT     H2 1071   5.359   9.572   9.512
  277WAT      O 1072   9.131   0.748   8.196
  277WAT     H1 1073   9.131   0.831   8.140
  277WAT     H2 1074   9.038   0.725   8.223
  278WAT      O 1075   1.066   7.750   9.801
  278WAT     H1 1076   1.070   7.664   9.751
  278WAT     H2 1077   1.156   7.770   9.841
  279WAT      O 1078   5.189   6.121   2.626
  279WAT     H1 1079   5.180   6.172   2.541
  279WAT     H2 1080   5.252   6.169   2.688
  280WAT      O 1081   2.613   9.689   2.616
  280WAT     H1 1082   2.630   9.681   2.714
  280WAT     H2 1083   2.685   9.643   2.565
  281WAT      O 1084   0.743   8.099   3.168
  281WAT     H1 1085   0.645   8.106   3.187
  281WAT     H2 1086   0.787   8.186   3.189
  282WAT      O 1087   6.858   5.973   0.235
  282WAT     H1 1088   6.839   5.897   0.298
  282WAT     H2 1089   6.870   6.057   0.287
  283WAT      O 1090   7.054   6.901   7.187
  283WAT     H1 1091   7.048   6.944   7.097
  283WAT     H2 1092   6.972   6.921   7.240
  284WAT      O 1093   9.746   3.403   9.000
  284WAT     H1 1094   9.828   3.405   8.943
  284WAT     H2 1095   9.769   3.436   9.092
  285WAT      O 1096   7.304   3.527   7.261
  285WAT     H1 1097   7.391   3.512   7.215
  285WAT     H2 1098   7.229   3.508   7.197
  286WAT      O 1099   8.130   3.040   7.142
  286WAT     H1 1100   8.160   2.999   7.228
  286WAT     H2 1101   8.080   2.973   7.089
  287WAT      O 1102   1.857   4.110   5.972
  287WAT     H1 1103   1.886   4.075   6.061
  287WAT     H2 1104   1.805   4.040   5.923
  288WAT      O 1105   3.486   3.549   9.421
  288WAT     H1 1106   3.500   3.602   9.337
  288WAT     H2 1107   3.570   3.550   9.476
  289WAT      O 1108   5.558   5.534   3.157
  289WAT     H1 1109   5.570   5.573   3.249
  289WAT     H2 1110   5.589   5.439   3.157
  290WAT      O 1111   6.612   2.160   7.230
  290WAT     H1 1112   6.681   2.225   7.264
  290WAT     H2 1113   6.653   2.104   7.158
  291WAT      O 1114   4.834   4.718   2.331
  291WAT     H1 1115   4.756   4.656   2.338
  291WAT     H2 1116   4.863   4.747   2.422
  292WAT      O 1117   3.912   2.783   5.315
  292WAT     H1 1118   3.841   2.750   5.377
  292WAT     H2 1119   3.871   2.840   5.244
  293WAT      O 1120   5.600   3.092   3.612
  293WAT     H1 1121   5.566   3.056   3.525
  293WAT     H2 1122   5.532   3.153   3.651
  294WAT      O 1123   3.130   1.911   3.329
  294WAT     H1 1124   3.074   1.928   3.248
  294WAT     H2 1125   3.109   1.980   3.399
  295WAT      O 1126   9.650   3.674   1.345
  295WAT     H1 1127   9.653   3.709   1.251
  295WAT     H2 1128   9.617   3.745   1.407
  296WAT      O 1129   2.648   3.280   0.768
  296WAT     H1 1130   2.617   3.338   0.843
  296WAT     H2 1131   2.569   3.244   0.719
  297WAT      O 1132   2.205   0.806   8.810
  297WAT     H1 1133   2.242   0.872   8.876
  297WAT     H2 1134   2.281   0.759   8.764
  298WAT      O 1135   6.503   0.367   2.116
  298WAT     H1 1136   6.525   0.452   2.163
  298WAT     H2 1137   6.408   0.371   2.084
  299WAT      O 1138   5.530   6.688   9.696
  299WAT     H1 1139   5.534   6.770   9.752
  299WAT     H2 1140   5.517   6.608   9.754
  300WAT      O 1141   8.703   1.949   2.330
  300WAT     H1 1142   8.664   1.870   2.377
  300WAT     H2 1143   8.681   2.032   2.380
  301WAT      O 1144   6.333   5.558   5.105
  301WAT     H1 1145   6.250   5.527   5.058
  301WAT     H2 1146   6.336   5.520   5.197
  302WAT      O 1147   5.558   0.887   8.581
  302WAT     H1 1148   5.643   0.939   8.571
  302WAT     H2 1149   5.564   0.803   8.528
  303WAT      O 1150   5.968   2.164   6.898
  303WAT     H1 1151   5.908   2.108   6.839
  303WAT     H2 1152   5.913   2.233   6.944
  304WAT      O 1153   7.888   6.131   7.519
  304WAT     H1 1154   7.837   6.170   7.442
  304WAT     H2 1155   7.828   6.069   7.570
  305WAT      O 1156   3.064   1.086   9.122
  305WAT     H1 1157   3.155   1.045   9.126
  305WAT     H2 1158   3.010   1.041   9.051
  306WAT      O 1159   6.662   4.972   0.396
  306WAT     H1 1160   6.696   4.898   0.455
  306WAT     H2 1161   6.577   4.943   0.352
  307WAT      O 1162   5.005   0.673   7.534
  307WAT     H1 1163   5.017   0.645   7.439
  307WAT     H2 1164   5.059   0.756   7.551
  308WAT      O 1165   1.766   4.524   9.612
  308WAT     H1 1166   1.676   4.527   9.656
  308WAT     H2 1167   1.788   4.614   9.575
  309WAT      O 1168   4.408   3.137   9.671
  309WAT     H1 1169   4.436   3.046   9.639
  309WAT     H2 1170   4.488   3.195   9.684
  310WAT      O 1171   9.364   5.207   6.611
  310WAT     H1 1172   9.317   5.186   6.697
  310WAT     H2 1173   9.320   5.285   6.567
  311WAT      O 1174   3.613   7.885   4.093
  311WAT     H1 1175   3.576   7.929   4.175
  311WAT     H2 1176   3.701   7.842   4.115
  312WAT      O 1177   2.760   0.459   6.857
  312WAT     H1 1178   2.668   0.494   6.873
  312WAT     H2 1179   2.763   0.410   6.770
  313WAT      O 1180   5.797   6.890   2.817
  313WAT     H1 1181   5.752   6.919   2.900
  313WAT     H2 1182   5.890   6.927   2.815
  314WAT      O 1183   7.536   7.526   5.944
  314WAT     H1 1184   7.498   7.515   6.035
  314WAT     H2 1185   7.502   7.455   5.883
  315WAT      O 1186   0.004   0.843   0.795
  315WAT     H1 1187  -0.008   0.838   0.696
  315WAT     H2 1188   0.058   0.924   0.818
  316WAT      O 1189   0.088   0.330   8.475
  316WAT     H1 1190   0.037   0.256   8.519
  316WAT     H2 1191   0.137   0.382   8.545
  317WAT      O 1192   2.258   7.353   2.868
  317WAT     H1 1193   2.271   7.273   2.928
  317WAT     H2 1194   2.226   7.430   2.922
  318WAT      O 1195   8.702   1.481   7.693
  318WAT     H1 1196   8.798   1.456   7.707
  318WAT     H2 1197   8.644   1.427   7.754
  319WAT      O 1198   1.436   1.042   0.263
  319WAT     H1 1199   1.423   1.028   0.165
  319WAT     H2 1200   1.511   0.984   0.296
  320WAT      O 1201   7.376   9.832   6.114
  320WAT     H1 1202   7.283   9.800   6.134
  320WAT     H2 1203   7.431   9.755   6.082
  321WAT      O 1204   7.638   0.110   7.057
  321WAT     H1 1205   7.604   0.176   6.991
  321WAT     H2 1206   7.644   0.152   7.148
  322WAT      O 1207   0.153   8.166   3.692
  322WAT     H1 1208   0.170   8.173   3.593
  322WAT     H2 1209   0.234   8.196   3.742
  323WAT      O 1210   5.007   7.915   3.065
  323WAT     H1 1211   4.979   7.884   2.974
  323WAT     H2 1212   5.034   8.011   3.061
  324WAT      O 1213   4.268   9.779   3.666
  324WAT     H1 1214   4.313   9.717   3.730
  324WAT     H2 1215   4.324   9.788   3.583
  325WAT      O 1216   3.653   8.111   2.315
  325WAT     H1 1217   3.637   8.100   2.413
  325WAT     H2 1218   3.637   8.207   2.289
  326WAT      O 1219   2.658   2.815   7.774
  326WAT     H1 1220   2.602   2.850   7.699
  326WAT     H2 1221   2.603   2.807   7.857
  327WAT      O 1222   6.445   1.049   0.988
  327WAT     H1 1223   6.400   0.960   0.983
  327WAT     H2 1224   6.497   1.065   0.904
  328WAT      O 1225   4.504   9.128   7.714
  328WAT     H1 1226   4.430   9.133   7.780
  328WAT     H2 1227   4.477   9.069   7.638
  329WAT      O 1228   0.439   6.603   5.156
  329WAT     H1 1229   0.424   6.523   5.215
  329WAT     H2 1230   0.378   6.677   5.184
  330WAT      O 1231   3.204   8.960   9.737
  330WAT     H1 1232   3.250   8.889   9.684
  330WAT     H2 1233   3.146   9.014   9.676
  331WAT      O 1234   1.673   0.966   2.938
  331WAT     H1 1235   1.696   1.033   2.867
  331WAT     H2 1236   1.598   1.002   2.994
  332WAT      O 1237   2.387   8.902   6.037
  332WAT     H1 1238   2.449   8.882   5.961
  332WAT     H2 1239   2.405   8.995   6.070
  333WAT      O 1240   3.585   9.800   9.656
  333WAT     H1 1241   3.536   9.827   9.574
  333WAT     H2 1242   3.683   9.794   9.636
  334WAT      O 1243   0.898   1.476   3.246
  334WAT     H1 1244   0.803   1.485   3.275
  334WAT     H2 1245   0.956   1.465   3.326
  335WAT      O 1246   9.311   6.403   2.867
  335WAT     H1 1247   9.298   6.502   2.874
  335WAT     H2 1248   9.265   6.370   2.785
  336WAT      O 1249   2.209   1.557   4.756
  336WAT     H1 1250   2.212   1.482   4.691
  336WAT     H2 1251   2.267   1.537   4.835
  337WAT      O 1252   8.478   7.685   8.323
  337WAT     H1 1253   8.551   7.740   8.281
  337WAT     H2 1254   8.410   7.661   8.254
  338WAT      O 1255   8.954   8.098   4.312
  338WAT     H1 1256   9.023   8.170   4.310
  338WAT     H2 1257   8.899   8.106   4.395
  339WAT      O 1258   9.474   8.494   8.676
  339WAT     H1 1259   9.465   8.475   8.578
  339WAT     H2 1260   9.566   8.472   8.706
  340WAT      O 1261   0.045   1.942   9.535
  340WAT     H1 1262   0.097   1.863   9.501
  340WAT     H2 1263  -0.016   1.975   9.463
  341WAT      O 1264   9.173   2.236   5.163
  341WAT     H1 1265   9.092   2.270   5.211
  341WAT     H2 1266   9.195   2.144   5.196
  342WAT      O 1267   1.817   5.936   6.958
  342WAT     H1 1268   1.782   5.844   6.975
  342WAT     H2 1269   1.824   5.985   7.044
  343WAT      O 1270   7.176   0.553   2.899
  343WAT     H1 1271   7.097   0.590   2.948
  343WAT     H2 1272   7.206   0.468   2.943
  344WAT      O 1273   9.034   0.821   7.438
  344WAT     H1 1274   9.123   0.789   7.470
  344WAT     H2 1275   9.039   0.841   7.340
  345WAT      O 1276   1.240   7.175   7.866
  345WAT     H1 1277   1.229   7.124   7.780
  345WAT     H2 1278   1.248   7.110   7.942
  346WAT      O 1279   2.569   9.487   3.834
  346WAT     H1 1280   2.573   9.442   3.745
  346WAT     H2 1281   2.522   9.428   3.899
  347WAT      O 1282   5.417   3.318   2.784
  347WAT     H1 1283   5.448   3.285   2.695
  347WAT     H2 1284   5.494   3.319   2.847
  348WAT      O 1285   5.701   6.283   4.905
  348WAT     H1 1286   5.632   6.215   4.880
  348WAT     H2 1287   5.674   6.329   4.989
  349WAT      O 1288   8.554   5.772   3.765
  349WAT     H1 1289   8.475   5.732   3.810
  349WAT     H2 1290   8.603   5.832   3.828
  350WAT      O 1291   4.438   3.696   2.225
  350WAT     H1 1292   4.440   3.780   2.279
  350WAT     H2 1293   4.393   3.713   2.138
  351WAT      O 1294   5.747   7.718   0.219
  351WAT     H1 1295   5.840   7.680   0.218
  351WAT     H2 1296   5.682   7.646   0.193
  352WAT      O 1297   9.122   7.074   9.547
  352WAT     H1 1298   9.092   7.168   9.565
  352WAT     H2 1299   9.073   7.011   9.607
  353WAT      O 1300   8.457   2.741   5.664
  353WAT     H1 1301   8.457   2.685   5.747
  353WAT     H2 1302   8.493   2.832   5.686
  354WAT      O 1303   4.647   0.617   2.794
  354WAT     H1 1304   4.558   0.576   2.773
  354WAT     H2 1305   4.704   0.616   2.711
  355WAT      O 1306   5.140   6.505   1.592
  355WAT     H1 1307   5.101   6.534   1.505
  355WAT     H2 1308   5.150   6.585   1.653
  356WAT      O 1309   8.203   0.393   8.048
  356WAT     H1 1310   8.297   0.372   8.073
  356WAT     H2 1311   8.146   0.394   8.131
  357WAT      O 1312   8.409   6.662   3.146
  357WAT     H1 1313   8.449   6.750   3.122
  357WAT     H2 1314   8.432   6.595   3.076
  358WAT      O 1315   5.302   2.094   9.675
  358WAT     H1 1316   5.215   2.137   9.651
  358WAT     H2 1317   5.342   2.052   9.594
  359WAT      O 1318   1.753   7.354   8.684
  359WAT     H1 1319   1.713   7.318   8.600
  359WAT     H2 1320   1.840   7.308   8.702
  360WAT      O 1321   6.043   1.129   7.480
  360WAT     H1 1322   5.979   1.191   7.436
  360WAT     H2 1323   6.085   1.069   7.411
  361WAT      O 1324   0.736   0.703   7.882
  361WAT     H1 1325   0.695   0.680   7.794
  361WAT     H2 1326   0.765   0.620   7.929
  362WAT      O 1327   5.640   9.290   6.358
  362WAT     H1 1328   5.645   9.308   6.456
  362WAT     H2 1329   5.729   9.309   6.316
  363WAT      O 1330   1.532   1.472   6.805
  363WAT     H1 1331   1.555   1.408   6.879
  363WAT     H2 1332   1.584   1.448   6.723
  364WAT      O 1333   6.198   8.365   7.499
  364WAT     H1 1334   6.202   8.465   7.497
  364WAT     H2 1335   6.280   8.327   7.455
  365WAT      O 1336   3.762   2.219   1.713
  365WAT     H1 1337   3.747   2.283   1.788
  365WAT     H2 1338   3.717   2.252   1.631
  366WAT      O 1339   0.086   0.209   2.642
  366WAT     H1 1340   0.150   0.247   2.575
  366WAT     H2 1341   0.097   0.110   2.647
  367WAT      O 1342   1.749   1.843   0.168
  367WAT     H1 1343   1.812   1.777   0.128
  367WAT     H2 1344   1.758   1.931   0.121
  368WAT      O 1345   7.119   3.468   9.878
  368WAT     H1 1346   7.172   3.552   9.885
  368WAT     H2 1347   7.031   3.488   9.834
  369WAT      O 1348   1.368   1.615   3.694
  369WAT     H1 1349   1.427   1.536   3.715
  369WAT     H2 1350   1.351   1.619   3.596
  370WAT      O 1351   4.102   7.994   2.280
  370WAT     H1 1352   4.042   8.054   2.229
  370WAT     H2 1353   4.174   8.048   2.325
  371WAT      O 1354   8.493   1.717   4.132
  371WAT     H1 1355   8.559   1.730   4.058
  371WAT     H2 1356   8.542   1.711   4.219
  372WAT      O 1357   3.042   6.153   2.501
  372WAT     H1 1358   3.029   6.241   2.454
  372WAT     H2 1359   3.010   6.161   2.596
  373WAT      O 1360   8.743   7.710   0.798
  373WAT     H1 1361   8.693   7.760   0.728
  373WAT     H2 1362   8.679   7.668   0.863
  374WAT      O 1363   9.557   9.557   4.302
  374WAT     H1 1364   9.484   9.569   4.370
  374WAT     H2 1365   9.596   9.647   4.279
  375WAT      O 1366   0.110   6.849   5.646
  375WAT     H1 1367   0.206   6.869   5.665
  375WAT     H2 1368   0.094   6.751   5.660
  376WAT      O 1369   5.309   8.526   3.255
  376WAT     H1 1370   5.274   8.452   3.313
  376WAT     H2 1371   5.299   8.500   3.159
  377WAT      O 1372   4.300   9.487   3.452
  377WAT     H1 1373   4.375   9.539   3.492
  377WAT     H2 1374   4.242   9.450   3.525
  378WAT      O 1375   0.778   9.647   7.003
  378WAT     H1 1376   0.714   9.724   6.996
  378WAT     H2 1377   0.765   9.601   7.091
  379WAT      O 1378   0.676   1.892   8.164
  379WAT     H1 1379   0.594   1.864   8.115
  379WAT     H2 1380   0.751   1.830   8.140
  380WAT      O 1381   3.763   8.814   7.803
  380WAT     H1 1382   3.829   8.807   7.728
  380WAT     H2 1383   3.790   8.888   7.865
  381WAT      O 1384   1.231   6.609   4.125
  381WAT     H1 1385   1.289   6.579   4.049
  381WAT     H2 1386   1.216   6.533   4.188
  382WAT      O 1387   0.177   7.148   3.350
  382WAT     H1 1388   0.233   7.090   3.409
  382WAT     H2 1389   0.122   7.210   3.406
  383WAT      O 1390   4.251   3.052   3.108
  383WAT     H1 1391   4.200   2.975   3.147
  383WAT     H2 1392   4.188   3.129   3.092
  384WAT      O 1393   0.691   8.440   0.616
  384WAT     H1 1394   0.604   8.458   0.662
  384WAT     H2 1395   0.678   8.442   0.517
  385WAT      O 1396   3.070   6.860   1.326
  385WAT     H1 1397   3.049   6.762   1.317
  385WAT     H2 1398   3.120   6.875   1.411
  386WAT      O 1399   4.636   4.209   9.195
  386WAT     H1 1400   4.590   4.289   9.157
  386WAT     H2 1401   4.722   4.194   9.146
  387WAT      O 1402   3.005   2.378   4.008
  387WAT     H1 1403   3.080   2.412   3.952
  387WAT     H2 1404   2.944   2.321   3.952
  388WAT      O 1405   3.588   8.546   6.220
  388WAT     H1 1406   3.566   8.455   6.254
  388WAT     H2 1407   3.592   8.544   6.120
  389WAT      O 1408   1.704   9.180   7.839
  389WAT     H1 1409   1.759   9.159   7.758
  389WAT     H2 1410   1.765   9.197   7.917
  390WAT      O 1411   4.647   4.258   7.366
  390WAT     H1 1412   4.634   4.297   7.457
  390WAT     H2 1413   4.616   4.323   7.297
  391WAT      O 1414   3.118   8.887   3.414
  391WAT     H1 1415   3.077   8.905   3.503
  391WAT     H2 1416   3.055   8.834   3.358
  392WAT      O 1417   8.165   6.785   0.893
  392WAT     H1 1418   8.229   6.708   0.896
  392WAT     H2 1419   8.126   6.799   0.984
  393WAT      O 1420   4.440   9.381   0.815
  393WAT     H1 1421   4.378   9.400   0.891
  393WAT     H2 1422   4.478   9.466   0.782
  394WAT      O 1423   9.581   7.094   7.629
  394WAT     H1 1424   9.566   7.031   7.706
  394WAT     H2 1425   9.496   7.105   7.578
  395WAT      O 1426   3.449   5.438   1.823
  395WAT     H1 1427   3.480   5.428   1.729
  395WAT     H2 1428   3.528   5.442   1.884
  396WAT      O 1429   7.642   6.921   5.066
  396WAT     H1 1430   7.703   6.853   5.026
  396WAT     H2 1431   7.620   6.990   4.997
  397WAT      O 1432   9.247   8.568   9.279
  397WAT     H1 1433   9.237   8.611   9.189
  397WAT     H2 1434   9.185   8.612   9.344
  398WAT      O 1435   9.381   0.044   8.276
  398WAT     H1 1436   9.408  -0.026   8.342
  398WAT     H2 1437   9.451   0.115   8.272
  399WAT      O 1438   2.796   5.505   5.700
  399WAT     H1 1439   2.851   5.492   5.618
  399WAT     H2 1440   2.825   5.439   5.770
  400WAT      O 1441   0.138   1.467   6.831
  400WAT     H1 1442   0.114   1.514   6.745
  400WAT     H2 1443   0.236   1.447   6.831
  401WAT      O 1444   2.089   7.640   0.809
  401WAT     H1 1445   2.104   7.729   0.765
  401WAT     H2 1446   1.997   7.607   0.787
  402WAT      O 1447   9.667   4.016   7.135
  402WAT     H1 1448   9.704   4.098   7.178
  402WAT     H2 1449   9.617   3.963   7.203
  403WAT      O 1450   0.024   4.810   5.905
  403WAT     H1 1451  -0.040   4.734   5.910
  403WAT     H2 1452   0.116   4.778   5.930
  404WAT      O 1453   3.449   1.843   7.256
  404WAT     H1 1454   3.463   1.779   7.181
  404WAT     H2 1455   3.426   1.792   7.339
  405WAT      O 1456   4.950   7.038   1.243
  405WAT     H1 1457   4.862   7.047   1.196
  405WAT     H2 1458   5.024   7.050   1.177
  406WAT      O 1459   4.327   0.573   1.491
  406WAT     H1 1460   4.358   0.566   1.586
  406WAT     H2 1461   4.268   0.495   1.469
  407WAT      O 1462   9.261   7.150   9.084
  407WAT     H1 1463   9.360   7.138   9.074
  407WAT     H2 1464   9.231   7.107   9.170
  408WAT      O 1465   5.588   2.336   1.573
  408WAT     H1 1466   5.609   2.378   1.661
  408WAT     H2 1467   5.665   2.279   1.544
  409WAT      O 1468   2.614   5.860   2.887
  409WAT     H1 1469   2.580   5.868   2.980
  409WAT     H2 1470   2.714   5.849   2.888
  410WAT      O 1471   6.003   5.456   4.271
  410WAT     H1 1472   5.927   5.421   4.327
  410WAT     H2 1473   5.972   5.473   4.178
  411WAT      O 1474   2.581   8.934   0.729
  411WAT     H1 1475   2.642   9.009   0.702
  411WAT     H2 1476   2.608   8.850   0.680
  412WAT      O 1477   3.778   9.464   2.602
  412WAT     H1 1478   3.749   9.499   2.513
  412WAT     H2 1479   3.877   9.451   2.602
  413WAT      O 1480   3.048   8.289   6.257
  413WAT     H1 1481   3.051   8.308   6.356
  413WAT     H2 1482   2.959   8.317   6.221
  414WAT      O 1483   6.672   1.377   1.228
  414WAT     H1 1484   6.600   1.309   1.214
  414WAT     H2 1485   6.649   1.461   1.177
  415WAT      O 1486   7.751   2.227   5.347
  415WAT     H1 1487   7.745   2.325   5.363
  415WAT     H2 1488   7.663   2.194   5.311
  416WAT      O 1489   1.842   0.442   3.821
  416WAT     H1 1490   1.908   0.514   3.840
  416WAT     H2 1491   1.890   0.355   3.807
  417WAT      O 1492   6.488   0.341   9.204
  417WAT     H1 1493   6.471   0.320   9.107
  417WAT     H2 1494   6.435   0.421   9.231
  418WAT      O 1495   8.629   7.246   7.752
  418WAT     H1 1496   8.690   7.169   7.773
  418WAT     H2 1497   8.635   7.266   7.654
  419WAT      O 1498   2.230   0.558   1.392
  419WAT     H1 1499   2.157   0.515   1.338
  419WAT     H2 1500   2.319   0.535   1.351
  420WAT      O 1501   4.918   2.989   5.068
  420WAT     H1 1502   5.000   3.018   5.118
  420WAT     H2 1503   4.856   2.943   5.131
  421WAT      O 1504   7.852   1.463   9.725
  421WAT     H1 1505   7.868   1.481   9.822
  421WAT     H2 1506   7.930   1.414   9.686
  422WAT      O 1507   8.119   5.230   6.776
  422WAT     H1 1508   8.172   5.307   6.741
  422WAT     H2 1509   8.050   5.264   6.841
  423WAT      O 1510   5.261   8.160   0.557
  423WAT     H1 1511   5.307   8.135   0.472
  423WAT     H2 1512   5.221   8.251   0.548
  424WAT      O 1513   2.502   7.188   6.349
  424WAT     H1 1514   2.442   7.243   6.406
  424WAT     H2 1515   2.457   7.101   6.328
  425WAT      O 1516   6.765   0.620   6.946
  425WAT     H1 1517   6.783   0.623   7.045
  425WAT     H2 1518   6.715   0.536   6.924
  426WAT      O 1519   4.483   4.169   0.520
  426WAT     H1 1520   4.401   4.216   0.551
  426WAT     H2 1521   4.532   4.227   0.455
  427WAT      O 1522   2.310   5.018   2.088
  427WAT     H1 1523   2.307   4.946   2.157
  427WAT     H2 1524   2.403   5.027   2.052
  428WAT      O 1525   9.735   1.814   0.739
  428WAT     H1 1526   9.815   1.788   0.793
  428WAT     H2 1527   9.742   1.774   0.647
  429WAT      O 1528   2.854   9.413   9.438
  429WAT     H1 1529   2.858   9.473   9.358
  429WAT     H2 1530   2.824   9.322   9.409
  430WAT      O 1531   1.095   3.902   6.390
  430WAT     H1 1532   1.156   3.981   6.394
  430WAT     H2 1533   1.077   3.869   6.483
  431WAT      O 1534   4.962   0.821   6.244
  431WAT     H1 1535   4.989   0.852   6.153
  431WAT     H2 1536   4.864   0.797   6.243
  432WAT      O 1537   7.260   0.908   0.836
  432WAT     H1 1538   7.340   0.849   0.847
  432WAT     H2 1539   7.279   0.979   0.768
  433WAT      O 1540   2.973   2.450   8.728
  433WAT     H1 1541   2.970   2.549   8.738
  433WAT     H2 1542   3.046   2.424   8.664
  434WAT      O 1543   3.409   8.980   3.482
  434WAT     H1 1544   3.468   9.061   3.490
  434WAT     H2 1545   3.313   9.008   3.480
  435WAT      O 1546   3.064   2.596   4.384
  435WAT     H1 1547   3.000   2.600   4.307
  435WAT     H2 1548   3.156   2.578   4.350
  436WAT      O 1549   5.773   5.788   0.882
  436WAT     H1 1550   5.726   5.741   0.956
  436WAT     H2 1551   5.727   5.769   0.795
  437WAT      O 1552   0.386   1.371   3.504
  437WAT     H1 1553   0.446   1.329   3.436
  437WAT     H2 1554   0.298   1.324   3.504
  438WAT      O 1555   7.887   9.309   6.103
  438WAT     H1 1556   7.857   9.266   6.017
  438WAT     H2 1557   7.843   9.264   6.180
  439WAT      O 1558   4.082   7.208   0.474
  439WAT     H1 1559   4.153   7.226   0.407
  439WAT     H2 1560   4.020   7.286   0.478
  440WAT      O 1561   3.521   4.095   1.855
  440WAT     H1 1562   3.442   4.111   1.913
  440WAT     H2 1563   3.503   4.130   1.763
  441WAT      O 1564   6.257   3.082   2.213
  441WAT     H1 1565   6.232   2.989   2.238
  441WAT     H2 1566   6.235   3.144   2.288
  442WAT      O 1567   1.590   1.919   1.541
  442WAT     H1 1568   1.549   2.006   1.514
  442WAT     H2 1569   1.526   1.868   1.598
  443WAT      O 1570   8.626   3.700   5.586
  443WAT     H1 1571   8.594   3.790   5.617
  443WAT     H2 1572   8.639   3.702   5.487
  444WAT      O 1573   7.343   7.952   9.780
  444WAT     H1 1574   7.421   7.950   9.718
  444WAT     H2 1575   7.306   7.860   9.791
  445WAT      O 1576   1.221   8.223   9.828
  445WAT     H1 1577   1.157   8.187   9.897
  445WAT     H2 1578   1.260   8.147   9.777
  446WAT      O 1579   6.181   0.104   2.379
  446WAT     H1 1580   6.180   0.067   2.472
  446WAT     H2 1581   6.272   0.091   2.339
  447WAT      O 1582   5.464   1.326   4.187
  447WAT     H1 1583   5.408   1.245   4.168
  447WAT     H2 1584   5.474   1.338   4.286
  448WAT      O 1585   2.263   7.301   6.460
  448WAT     H1 1586   2.203   7.281   6.538
  448WAT     H2 1587   2.265   7.400   6.444
  449WAT      O 1588   9.882   9.429   9.048
  449WAT     H1 1589   9.955   9.420   8.979
  449WAT     H2 1590   9.914   9.393   9.135
  450WAT      O 1591   6.096   2.870   2.515
  450WAT     H1 1592   6.045   2.918   2.444
  450WAT     H2 1593   6.122   2.779   2.482
  451WAT      O 1594   7.863   7.036   8.261
  451WAT     H1 1595   7.830   7.057   8.353
  451WAT     H2 1596   7.875   6.937   8.252
  452WAT      O 1597   5.238   7.767   0.324
  452WAT     H1 1598   5.233   7.824   0.242
  452WAT     H2 1599   5.328   7.780   0.367
  453WAT      O 1600   8.866   6.868   5.340
  453WAT     H1 1601   8.856   6.776   5.303
  453WAT     H2 1602   8.883   6.864   5.438
  454WAT      O 1603   8.628   7.877   0.571
  454WAT     H1 1604   8.640   7.880   0.472
  454WAT     H2 1605   8.557   7.811   0.594
  455WAT      O 1606   5.743   1.977   1.038
  455WAT     H1 1607   5.790   1.935   0.960
  455WAT     H2 1608   5.779   2.069   1.054
  456WAT      O 1609   4.715   9.470   6.648
  456WAT     H1 1610   4.616   9.458   6.647
  456WAT     H2 1611   4.756   9.410   6.579
  457WAT      O 1612   9.066   3.224   2.903
  457WAT     H1 1613   9.001   3.161   2.945
  457WAT     H2 1614   9.142   3.241   2.966
  458WAT      O 1615   4.812   0.126   4.288
  458WAT     H1 1616   4.850   0.119   4.380
  458WAT     H2 1617   4.723   0.079   4.285
  459WAT      O 1618   7.164   9.611   8.459
  459WAT     H1 1619   7.095   9.683   8.448
  459WAT     H2 1620   7.194   9.609   8.555
  460WAT      O 1621   9.790   1.796   8.168
  460WAT     H1 1622   9.724   1.734   8.126
  460WAT     H2 1623   9.809   1.871   8.106
  461WAT      O 1624   7.741   8.679   3.679
  461WAT     H1 1625   7.701   8.733   3.605
  461WAT     H2 1626   7.745   8.734   3.762
  462WAT      O 1627   1.791   3.564   0.759
  462WAT     H1 1628   1.724   3.622   0.806
  462WAT     H2 1629   1.792   3.588   0.662
  463WAT      O 1630   1.922   6.979   7.869
  463WAT     H1 1631   1.884   6.963   7.778
  463WAT     H2 1632   1.891   6.907   7.931
  464WAT      O 1633   5.375   3.919   9.480
  464WAT     H1 1634   5.276   3.912   9.467
  464WAT     H2 1635   5.394   3.981   9.557
  465WAT      O 1636   0.543   3.767   4.663
  465WAT     H1 1637   0.639   3.742   4.660
  465WAT     H2 1638   0.498   3.718   4.739
  466WAT      O 1639   7.780   3.986   9.485
  466WAT     H1 1640   7.872   4.019   9.509
  466WAT     H2 1641   7.782   3.887   9.474
  467WAT      O 1642   9.700   8.689   9.008
  467WAT     H1 1643   9.784   8.742   9.004
  467WAT     H2 1644   9.659   8.683   8.917
  468WAT      O 1645   6.326   8.461   5.578
  468WAT     H1 1646   6.265   8.535   5.604
  468WAT     H2 1647   6.421   8.491   5.585
  469WAT      O 1648   8.921   2.090   4.768
  469WAT     H1 1649   8.972   2.145   4.702
  469WAT     H2 1650   8.901   2.146   4.848
  470WAT      O 1651   0.959   0.165   1.113
  470WAT     H1 1652   1.011   0.172   1.028
  470WAT     H2 1653   1.005   0.216   1.185
  471WAT      O 1654   2.563   2.797   0.908
  471WAT     H1 1655   2.525   2.883   0.874
  471WAT     H2 1656   2.614   2.752   0.835
  472WAT      O 1657   7.893   4.353   7.287
  472WAT     H1 1658   7.975   4.405   7.309
  472WAT     H2 1659   7.814   4.415   7.288
  473WAT      O 1660   5.271   4.954   8.270
  473WAT     H1 1661   5.178   4.927   8.247
  473WAT     H2 1662   5.335   4.917   8.203
  474WAT      O 1663   9.505   5.364   3.891
  474WAT     H1 1664   9.466   5.415   3.815
  474WAT     H2 1665   9.522   5.427   3.967
  475WAT      O 1666   0.746   5.551   9.842
  475WAT     H1 1667   0.804   5.581   9.917
  475WAT     H2 1668   0.801   5.539   9.759
  476WAT      O 1669   5.740   6.709   1.346
  476WAT     H1 1670   5.789   6.651   1.280
  476WAT     H2 1671   5.644   6.680   1.349
  477WAT      O 1672   2.254   2.061   6.873
  477WAT     H1 1673   2.226   2.152   6.905
  477WAT     H2 1674   2.307   2.016   6.944
  478WAT      O 1675   3.639   1.339   4.896
  478WAT     H1 1676   3.609   1.245   4.910
  478WAT     H2 1677   3.702   1.343   4.818
  479WAT      O 1678   2.216   8.150   5.262
  479WAT     H1 1679   2.312   8.120   5.263
  479WAT     H2 1680   2.177   8.139   5.353
  480WAT      O 1681   6.206   6.620   6.100
  480WAT     H1 1682   6.173   6.538   6.146
  480WAT     H2 1683   6.262   6.594   6.021
  481WAT      O 1684   5.022   3.782   3.174
  481WAT     H1 1685   4.983   3.744   3.258
  481WAT     H2 1686   4.955   3.772   3.100
  482WAT      O 1687   4.989   8.652   3.602
  482WAT     H1 1688   4.950   8.565   3.632
  482WAT     H2 1689   5.075   8.635   3.554
  483WAT      O 1690   7.666   4.463   7.208
  483WAT     H1 1691   7.591   4.404   7.238
  483WAT     H2 1692   7.629   4.553   7.184
  484WAT      O 1693   4.180   6.155   1.493
  484WAT     H1 1694   4.195   6.068   1.542
  484WAT     H2 1695   4.124   6.139   1.413
  485WAT      O 1696   4.055   5.620   2.454
  485WAT     H1 1697   4.022   5.710   2.427
  485WAT     H2 1698   4.113   5.629   2.535
  486WAT      O 1699   7.189   1.641   9.232
  486WAT     H1 1700   7.157   1.583   9.307
  486WAT     H2 1701   7.230   1.585   9.161
  487WAT      O 1702   7.272   3.751   5.024
  487WAT     H1 1703   7.223   3.706   4.949
  487WAT     H2 1704   7.370   3.753   5.004
  488WAT      O 1705   7.098   2.922   2.388
  488WAT     H1 1706   7.129   2.990   2.455
  488WAT     H2 1707   7.174   2.896   2.329
  489WAT      O 1708   2.596   5.594   3.161
  489WAT     H1 1709   2.581   5.520   3.227
  489WAT     H2 1710   2.690   5.591   3.127
  490WAT      O 1711   3.523   2.871   5.184
  490WAT     H1 1712   3.598   2.859   5.119
  490WAT     H2 1713   3.543   2.948   5.245
  491WAT      O 1714   3.668   1.637   6.621
  491WAT     H1 1715   3.619   1.630   6.534
  491WAT     H2 1716   3.679   1.546   6.660
  492WAT      O 1717   3.841   0.615   0.702
  492WAT     H1 1718   3.758   0.668   0.686
  492WAT     H2 1719   3.895   0.658   0.774
  493WAT      O 1720   1.545   6.876   3.919
  493WAT     H1 1721   1.619   6.870   3.987
  493WAT     H2 1722   1.501   6.965   3.925
  494WAT      O 1723   3.301   6.816   9.559
  494WAT     H1 1724   3.217   6.869   9.565
  494WAT     H2 1725   3.380   6.878   9.557
  495WAT      O 1726   7.030   1.613   1.666
  495WAT     H1 1727   6.991   1.658   1.586
  495WAT     H2 1728   7.063   1.682   1.730
  496WAT      O 1729   8.338   7.426   1.650
  496WAT     H1 1730   8.295   7.390   1.568
  496WAT     H2 1731   8.318   7.524   1.658
  497WAT      O 1732   8.310   0.096   4.782
  497WAT     H1 1733   8.380   0.124   4.848
  497WAT     H2 1734   8.255   0.022   4.821
  498WAT      O 1735   0.232   5.125   3.898
  498WAT     H1 1736   0.310   5.180   3.929
  498WAT     H2 1737   0.162   5.186   3.860
  499WAT      O 1738   2.737   7.082   4.570
  499WAT     H1 1739   2.800   7.084   4.492
  499WAT     H2 1740   2.710   6.987   4.589
  500WAT      O 1741   0.025   5.283   3.815
  500WAT     H1 1742  -0.052   5.220   3.814
  500WAT     H2 1743   0.019   5.343   3.734
  501WAT      O 1744   9.366   2.339   3.389
  501WAT     H1 1745   9.432   2.382   3.451
  501WAT     H2 1746   9.295   2.294   3.443
  502WAT      O 1747   5.340   8.808   4.956
  502WAT     H1 1748   5.376   8.818   5.049
  502WAT     H2 1749   5.301   8.717   4.946
  503WAT      O 1750   7.632   3.067   2.320
  503WAT     H1 1751   7.574   3.040   2.396
  503WAT     H2 1752   7.674   2.986   2.279
  504WAT      O 1753   6.121   4.692   4.476
  504WAT     H1 1754   6.087   4.646   4.558
  504WAT     H2 1755   6.058   4.765   4.450
  505WAT      O 1756   3.828   4.668   7.327
  505WAT     H1 1757   3.731   4.682   7.305
  505WAT     H2 1758   3.845   4.691   7.423
  506WAT      O 1759   3.325   3.526   6.839
  506WAT     H1 1760   3.263   3.496   6.767
  506WAT     H2 1761   3.312   3.623   6.856
  507WAT      O 1762   0.220   7.041   0.132
  507WAT     H1 1763   0.222   7.011   0.037
  507WAT     H2 1764   0.142   7.102   0.147
  508WAT      O 1765   4.299   0.608   9.230
  508WAT     H1 1766   4.281   0.534   9.166
  508WAT     H2 1767   4.240   0.599   9.310
  509WAT      O 1768   4.606   0.006   9.443
  509WAT     H1 1769   4.631  -0.016   9.537
  509WAT     H2 1770   4.579  -0.078   9.395
  510WAT      O 1771   6.852   0.584   4.686
  510WAT     H1 1772   6.864   0.495   4.641
  510WAT     H2 1773   6.839   0.655   4.616
  511WAT      O 1774   5.801   8.738   9.112
  511WAT     H1 1775   5.719   8.772   9.158
  511WAT     H2 1776   5.828   8.801   9.040
  512WAT      O 1777   1.590   7.576   2.199
  512WAT     H1 1778   1.575   7.618   2.289
  512WAT     H2 1779   1.507   7.586   2.144
  513WAT      O 1780   1.743   9.129   7.218
  513WAT     H1 1781   1.786   9.214   7.249
  513WAT     H2 1782   1.645   9.145   7.204
  514WAT      O 1783   1.310   0.545   1.578
  514WAT     H1 1784   1.394   0.492   1.562
  514WAT     H2 1785   1.291   0.602   1.498
  515WAT      O 1786   0.749   0.526   8.390
  515WAT     H1 1787   0.731   0.532   8.292
  515WAT     H2 1788   0.708   0.604   8.437
  516WAT      O 1789   1.824   6.100   6.516
  516WAT     H1 1790   1.881   6.062   6.443
  516WAT     H2 1791   1.748   6.150   6.476
  517WAT      O 1792   4.471   7.760   0.819
  517WAT     H1 1793   4.462   7.803   0.909
  517WAT     H2 1794   4.559   7.784   0.779
  518WAT      O 1795   8.149   2.524   8.310
  518WAT     H1 1796   8.181   2.515   8.404
  518WAT     H2 1797   8.225   2.554   8.252
  519WAT      O 1798   8.987   0.897   4.365
  519WAT     H1 1799   8.979   0.864   4.459
  519WAT     H2 1800   8.905   0.951   4.342
  520WAT      O 1801   9.791   2.189   9.815
  520WAT     H1 1802   9.815   2.242   9.734
  520WAT     H2 1803   9.709   2.229   9.858
  521WAT      O 1804   0.863   8.395   5.482
  521WAT     H1 1805   0.939   8.460   5.489
  521WAT     H2 1806   0.784   8.431   5.531
  522WAT      O 1807   7.325   5.015   6.602
  522WAT     H1 1808   7.369   4.941   6.652
  522WAT     H2 1809   7.387   5.048   6.530
  523WAT      O 1810   5.347   5.380   8.258
  523WAT     H1 1811   5.420   5.323   8.220
  523WAT     H2 1812   5.293   5.327   8.324
  524WAT      O 1813   6.035   9.222   4.903
  524WAT     H1 1814   5.971   9.235   4.828
  524WAT     H2 1815   5.996   9.158   4.969
  525WAT      O 1816   0.708   8.329   5.800
  525WAT     H1 1817   0.776   8.287   5.861
  525WAT     H2 1818   0.630   8.268   5.790
  526WAT      O 1819   5.728   2.762   2.354
  526WAT     H1 1820   5.698   2.727   2.443
  526WAT     H2 1821   5.799   2.703   2.317
  527WAT      O 1822   5.894   4.215   5.625
  527WAT     H1 1823   5.915   4.147   5.555
  527WAT     H2 1824   5.948   4.197   5.707
  528WAT      O 1825   6.208   6.700   3.251
  528WAT     H1 1826   6.173   6.656   3.169
  528WAT     H2 1827   6.143   6.684   3.326
  529WAT      O 1828   3.443   5.267   5.782
  529WAT     H1 1829   3.442   5.343   5.717
  529WAT     H2 1830   3.350   5.247   5.811
  530WAT      O 1831   0.295   2.047   5.997
  530WAT     H1 1832   0.295   2.116   6.069
  530WAT     H2 1833   0.265   2.089   5.911
  531WAT      O 1834   8.972   5.643   6.487
  531WAT     H1 1835   8.989   5.586   6.567
  531WAT     H2 1836   9.018   5.731   6.499
  532WAT      O 1837   1.474   1.776   8.747
  532WAT     H1 1838   1.415   1.773   8.666
  532WAT     H2 1839   1.463   1.864   8.793
  533WAT      O 1840   4.073   4.142   1.159
  533WAT     H1 1841   4.019   4.218   1.196
  533WAT     H2 1842   4.023   4.101   1.083
  534WAT      O 1843   4.291   5.111   7.122
  534WAT     H1 1844   4.197   5.135   7.146
  534WAT     H2 1845   4.302   5.012   7.123
  535WAT      O 1846   2.431   8.486   4.059
  535WAT     H1 1847   2.445   8.579   4.095
  535WAT     H2 1848   2.405   8.425   4.135
  536WAT      O 1849   4.954   2.376   8.087
  536WAT     H1 1850   5.051   2.395   8.068
  536WAT     H2 1851   4.910   2.343   8.003
  537WAT      O 1852   5.880   0.886   7.663
  537WAT     H1 1853   5.892   0.977   7.703
  537WAT     H2 1854   5.960   0.863   7.608
  538WAT      O 1855   2.207   0.809   6.924
  538WAT     H1 1856   2.257   0.723   6.929
  538WAT     H2 1857   2.127   0.798   6.865
  539WAT      O 1858   4.713   9.230   4.012
  539WAT     H1 1859   4.751   9.161   3.951
  539WAT     H2 1860   4.645   9.187   4.072
  540WAT      O 1861   1.922   3.473   3.181
  540WAT     H1 1862   1.970   3.391   3.213
  540WAT     H2 1863   1.887   3.524   3.260
  541WAT      O 1864   6.030   7.306   9.568
  541WAT     H1 1865   5.990   7.388   9.529
  541WAT     H2 1866   5.959   7.236   9.580
  542WAT      O 1867   5.918   3.126   5.937
  542WAT     H1 1868   6.001   3.123   5.881
  542WAT     H2 1869   5.840   3.146   5.879
  543WAT      O 1870   4.471   7.410   1.432
  543WAT     H1 1871   4.407   7.405   1.509
  543WAT     H2 1872   4.528   7.492   1.442
  544WAT      O 1873   2.585   9.755   5.550
  544WAT     H1 1874   2.501   9.768   5.497
  544WAT     H2 1875   2.654   9.820   5.519
  545WAT      O 1876   1.759   3.655   3.916
  545WAT     H1 1877   1.738   3.736   3.863
  545WAT     H2 1878   1.759   3.575   3.856
  546WAT      O 1879   5.146   1.395   5.491
  546WAT     H1 1880   5.182   1.312   5.536
  546WAT     H2 1881   5.063   1.424   5.537
  547WAT      O 1882   3.420   1.634   7.042
  547WAT     H1 1883   3.347   1.567   7.032
  547WAT     H2 1884   3.509   1.588   7.037
  548WAT      O 1885   0.457   6.142   7.824
  548WAT     H1 1886   0.414   6.151   7.734
  548WAT     H2 1887   0.449   6.047   7.856
  549WAT      O 1888   4.084   9.147   0.582
  549WAT     H1 1889   3.984   9.148   0.578
  549WAT     H2 1890   4.119   9.240   0.570
  550WAT      O 1891   9.726   0.260   5.295
  550WAT     H1 1892   9.819   0.225   5.290
  550WAT     H2 1893   9.662   0.188   5.267
  551WAT      O 1894   4.975   6.941   2.363
  551WAT     H1 1895   5.025   6.878   2.422
  551WAT     H2 1896   4.998   6.923   2.268
  552WAT      O 1897   3.556   9.387   1.940
  552WAT     H1 1898   3.629   9.456   1.932
  552WAT     H2 1899   3.588   9.301   1.901
  553WAT      O 1900   2.264   0.999   8.119
  553WAT     H1 1901   2.239   0.913   8.165
  553WAT     H2 1902   2.296   1.065   8.187
  554WAT      O 1903   9.110   1.148   4.563
  554WAT     H1 1904   9.152   1.058   4.576
  554WAT     H2 1905   9.011   1.138   4.558
  555WAT      O 1906   4.461   8.063   7.477
  555WAT     H1 1907   4.399   7.985   7.479
  555WAT     H2 1908   4.415   8.141   7.433
  556WAT      O 1909   4.572   1.070   7.064
  556WAT     H1 1910   4.571   1.158   7.016
  556WAT     H2 1911   4.514   1.077   7.146
  557WAT      O 1912   7.009   6.328   6.075
  557WAT     H1 1913   7.105   6.349   6.055
  557WAT     H2 1914   6.999   6.309   6.173
  558WAT      O 1915   6.362   0.473   2.505
  558WAT     H1 1916   6.304   0.427   2.437
  558WAT     H2 1917   6.337   0.443   2.597
  559WAT      O 1918   1.564   5.929   8.777
  559WAT     H1 1919   1.558   5.832   8.751
  559WAT     H2 1920   1.473   5.969   8.774
  560WAT      O 1921   0.750   7.725   0.417
  560WAT     H1 1922   0.757   7.667   0.498
  560WAT     H2 1923   0.816   7.800   0.423
  561WAT      O 1924   3.696   3.350   6.127
  561WAT     H1 1925   3.694   3.409   6.208
  561WAT     H2 1926   3.745   3.266   6.148
  562WAT      O 1927   8.665   8.288   0.048
  562WAT     H1 1928   8.600   8.301  -0.027
  562WAT     H2 1929   8.620   8.306   0.135
  563WAT      O 1930   7.936   1.181   0.536
  563WAT     H1 1931   7.846   1.150   0.568
  563WAT     H2 1932   7.996   1.196   0.614
  564WAT      O 1933   9.624   0.076   7.986
  564WAT     H1 1934   9.659   0.116   7.901
  564WAT     H2 1935   9.526   0.061   7.978
  565WAT      O 1936   0.090   2.342   8.698
  565WAT     H1 1937   0.116   2.303   8.787
  565WAT     H2 1938   0.160   2.320   8.630
  566WAT      O 1939   8.505   1.008   1.133
  566WAT     H1 1940   8.537   1.086   1.187
  566WAT     H2 1941   8.406   1.012   1.123
  567WAT      O 1942   7.206   5.875   1.561
  567WAT     H1 1943   7.221   5.972   1.579
  567WAT     H2 1944   7.170   5.864   1.468
  568WAT      O 1945   9.279   3.275   0.440
  568WAT     H1 1946   9.334   3.196   0.415
  568WAT     H2 1947   9.314   3.313   0.526
  569WAT      O 1948   4.209   3.701   5.359
  569WAT     H1 1949   4.289   3.700   5.419
  569WAT     H2 1950   4.165   3.791   5.365
  570WAT      O 1951   4.136   7.582   3.910
  570WAT     H1 1952   4.219   7.543   3.869
  570WAT     H2 1953   4.159   7.621   3.999
  571WAT      O 1954   7.810   1.413   0.952
  571WAT     H1 1955   7.847   1.456   1.034
  571WAT     H2 1956   7.851   1.456   0.871
  572WAT      O 1957   3.683   9.501   3.539
  572WAT     H1 1958   3.645   9.423   3.490
  572WAT     H2 1959   3.736   9.558   3.476
  573WAT      O 1960   3.820   2.879   8.012
  573WAT     H1 1961   3.850   2.784   8.000
  573WAT     H2 1962   3.742   2.897   7.952
  574WAT      O 1963   2.290   7.534   3.215
  574WAT     H1 1964   2.330   7.619   3.249
  574WAT     H2 1965   2.357   7.460   3.220
  575WAT      O 1966   0.787   8.603   8.664
  575WAT     H1 1967   0.802   8.594   8.763
  575WAT     H2 1968   0.718   8.673   8.647
  576WAT      O 1969   9.767   3.369   4.762
  576WAT     H1 1970   9.847   3.429   4.767
  576WAT     H2 1971   9.752   3.326   4.851
  577WAT      O 1972   5.582   0.962   5.624
  577WAT     H1 1973   5.602   1.051   5.665
  577WAT     H2 1974   5.661   0.902   5.635
  578WAT      O 1975   7.836   5.875   6.366
  578WAT     H1 1976   7.835   5.815   6.286
  578WAT     H2 1977   7.914   5.851   6.425
  579WAT      O 1978   2.353   2.223   0.077
  579WAT     H1 1979   2.298   2.211   0.160
  579WAT     H2 1980   2.436   2.274   0.099
  580WAT      O 1981   5.495   1.579   0.733
  580WAT     H1 1982   5.537   1.543   0.650
  580WAT     H2 1983   5.448   1.665   0.712
  581WAT      O 1984   9.427   0.218   2.353
  581WAT     H1 1985   9.334   0.202   2.384
  581WAT     H2 1986   9.490   0.214   2.431
  582WAT      O 1987   6.943   8.976   1.366
  582WAT     H1 1988   6.879   8.955   1.292
  582WAT     H2 1989   6.894   9.018   1.442
  583WAT      O 1990   7.789   1.529   2.293
  583WAT     H1 1991   7.718   1.461   2.281
  583WAT     H2 1992   7.748   1.619   2.310
  584WAT      O 1993   5.834   4.159   8.583
  584WAT     H1 1994   5.815   4.255   8.599
  584WAT     H2 1995   5.908   4.129   8.644
  585WAT      O 1996   0.085   5.638   5.622
  585WAT     H1 1997   0.032   5.559   5.589
  585WAT     H2 1998   0.026   5.718   5.628
  586WAT      O 1999   5.519   9.292   0.090
  586WAT     H1 2000   5.547   9.340   0.173
  586WAT     H2 2001   5.594   9.292   0.024
  587WAT      O 2002   8.179   7.731   2.276
  587WAT     H1 2003   8.087   7.700   2.253
  587WAT     H2 2004   8.181   7.762   2.371
  588WAT      O 2005   6.885   6.564   3.218
  588WAT     H1 2006   6.827   6.518   3.150
  588WAT     H2 2007   6.950   6.624   3.172
  589WAT      O 2008   4.966   0.236   6.915
  589WAT     H1 2009   5.012   0.227   7.003
  589WAT     H2 2010   5.014   0.304   6.859
  590WAT      O 2011   2.218   7.848   8.297
  590WAT     H1 2012   2.130   7.825   8.257
  590WAT     H2 2013   2.225   7.948   8.307
  591WAT      O 2014   2.918   0.919   8.942
  591WAT     H1 2015   2.993   0.890   8.882
  591WAT     H2 2016   2.882   0.841   8.992
  592WAT      O 2017   9.601   5.305   5.677
  592WAT     H1 2018   9.530   5.354   5.627
  592WAT     H2 2019   9.562   5.265   5.759
  593WAT      O 2020   1.551   2.271   0.274
  593WAT     H1 2021   1.514   2.280   0.182
  593WAT     H2 2022   1.478   2.289   0.341
  594WAT      O 2023   7.212   8.829   0.052
  594WAT     H1 2024   7.215   8.878   0.139
  594WAT     H2 2025   7.286   8.862  -0.007
  595WAT      O 2026   4.915   8.332   3.962
  595WAT     H1 2027   4.924   8.356   4.059
  595WAT     H2 2028   4.887   8.236   3.955
  596WAT      O 2029   2.775   1.836   8.672
  596WAT     H1 2030   2.695   1.782   8.648
  596WAT     H2 2031   2.780   1.847   8.771
  597WAT      O 2032   8.527   2.702   5.037
  597WAT     H1 2033   8.556   2.780   4.982
  597WAT     H2 2034   8.527   2.728   5.134
  598WAT      O 2035   6.796   9.821   3.525
  598WAT     H1 2036   6.714   9.782   3.482
  598WAT     H2 2037   6.849   9.748   3.567
  599WAT      O 2038   8.157   6.109   3.456
  599WAT     H1 2039   8.102   6.035   3.493
  599WAT     H2 2040   8.107   6.154   3.382
  600WAT      O 2041   8.963   8.278   9.640
  600WAT     H1 2042   8.902   8.355   9.623
  600WAT     H2 2043   9.029   8.302   9.712
  601WAT      O 2044   2.054   1.715   0.206
  601WAT     H1 2045   2.093   1.807   0.206
  601WAT     H2 2046   2.083   1.666   0.124
  602WAT      O 2047   1.951   8.889   0.814
  602WAT     H1 2048   1.856   8.856   0.813
  602WAT     H2 2049   1.952   8.982   0.852
  603WAT      O 2050   7.347   3.804   6.101
  603WAT     H1 2051   7.321   3.900   6.086
  603WAT     H2 2052   7.292   3.765   6.175
  604WAT      O 2053   0.284   8.405   2.101
  604WAT     H1 2054   0.382   8.421   2.104
  604WAT     H2 2055   0.266   8.306   2.100
  605WAT      O 2056   9.330   7.473   8.635
  605WAT     H1 2057   9.322   7.404   8.562
  605WAT     H2 2058   9.395   7.441   8.704
  606WAT      O 2059   6.579   6.845   5.215
  606WAT     H1 2060   6.537   6.850   5.124
  606WAT     H2 2061   6.637   6.764   5.221
  607WAT      O 2062   3.118   2.250   9.785
  607WAT     H1 2063   3.205   2.211   9.755
  607WAT     H2 2064   3.121   2.349   9.777
  608WAT      O 2065   8.145   2.752   6.143
  608WAT     H1 2066   8.222   2.691   6.118
  608WAT     H2 2067   8.180   2.831   6.193
  609WAT      O 2068   7.971   0.086   3.978
  609WAT     H1 2069   8.069   0.099   3.966
  609WAT     H2 2070   7.937   0.020   3.911
  610WAT      O 2071   7.093   0.672   9.321
  610WAT     H1 2072   7.040   0.742   9.274
  610WAT     H2 2073   7.037   0.589   9.332
  611WAT      O 2074   6.523   0.021   7.964
  611WAT     H1 2075   6.567   0.069   7.888
  611WAT     H2 2076   6.551  -0.074   7.965
  612WAT      O 2077   7.668   2.555   1.494
  612WAT     H1 2078   7.646   2.634   1.551
  612WAT     H2 2079   7.604   2.549   1.418
  613WAT      O 2080   4.025   5.621   7.011
  613WAT     H1 2081   4.052   5.536   7.057
  613WAT     H2 2082   4.104   5.681   7.003
  614WAT      O 2083   3.067   2.976   4.702
  614WAT     H1 2084   3.121   2.941   4.624
  614WAT     H2 2085   3.015   2.901   4.742
  615WAT      O 2086   6.937   2.805   1.470
  615WAT     H1 2087   7.010   2.737   1.464
  615WAT     H2 2088   6.857   2.774   1.418
  616WAT      O 2089   2.515   7.954   6.635
  616WAT     H1 2090   2.514   7.888   6.560
  616WAT     H2 2091   2.468   7.915   6.715
  617WAT      O 2092   4.650   0.330   9.068
  617WAT     H1 2093   4.686   0.262   9.132
  617WAT     H2 2094   4.563   0.298   9.030
  618WAT      O 2095   3.427   6.742   1.170
  618WAT     H1 2096   3.352   6.675   1.172
  618WAT     H2 2097   3.503   6.708   1.225
  619WAT      O 2098   6.886   8.454   0.706
  619WAT     H1 2099   6.913   8.377   0.765
  619WAT     H2 2100   6.907   8.431   0.611
  620WAT      O 2101   8.247   6.033   5.700
  620WAT     H1 2102   8.185   6.020   5.623
  620WAT     H2 2103   8.212   5.983   5.779
  621WAT      O 2104   3.706   5.087   7.031
  621WAT     H1 2105   3.648   5.010   7.007
  621WAT     H2 2106   3.741   5.076   7.124
  622WAT      O 2107   2.714   5.402   7.452
  622WAT     H1 2108   2.798   5.451   7.427
  622WAT     H2 2109   2.709   5.393   7.552
  623WAT      O 2110   5.633   9.689   6.832
  623WAT     H1 2111   5.617   9.732   6.743
  623WAT     H2 2112   5.646   9.591   6.820
  624WAT      O 2113   1.121   1.766   2.866
  624WAT     H1 2114   1.068   1.711   2.931
  624WAT     H2 2115   1.204   1.717   2.840
  625WAT      O 2116   4.219   9.390   0.510
  625WAT     H1 2117   4.201   9.357   0.418
  625WAT     H2 2118   4.303   9.348   0.545
  626WAT      O 2119   4.244   1.636   4.252
  626WAT     H1 2120   4.320   1.572   4.247
  626WAT     H2 2121   4.192   1.621   4.336
  627WAT      O 2122   3.379   1.902   6.946
  627WAT     H1 2123   3.411   1.807   6.956
  627WAT     H2 2124   3.358   1.919   6.849
  628WAT      O 2125   3.725   2.782   6.698
  628WAT     H1 2126   3.684   2.734   6.620
  628WAT     H2 2127   3.767   2.715   6.760
  629WAT      O 2128   6.111   6.734   1.368
  629WAT     H1 2129   6.115   6.696   1.460
  629WAT     H2 2130   6.078   6.664   1.305
  630WAT      O 2131   9.622   4.401   9.792
  630WAT     H1 2132   9.555   4.417   9.720
  630WAT     H2 2133   9.694   4.471   9.788
  631WAT      O 2134   6.995   4.854   5.840
  631WAT     H1 2135   6.944   4.926   5.886
  631WAT     H2 2136   7.040   4.891   5.759
  632WAT      O 2137   6.565   5.394   6.708
  632WAT     H1 2138   6.536   5.468   6.647
  632WAT     H2 2139   6.665   5.385   6.703
  633WAT      O 2140   6.333   0.030   6.677
  633WAT     H1 2141   6.360  -0.065   6.690
  633WAT     H2 2142   6.297   0.042   6.584
  634WAT      O 2143   5.602   8.345   3.781
  634WAT     H1 2144   5.697   8.324   3.803
  634WAT     H2 2145   5.544   8.267   3.805
  635WAT      O 2146   6.634   6.883   0.751
  635WAT     H1 2147   6.682   6.969   0.768
  635WAT     H2 2148   6.544   6.902   0.711
  636WAT      O 2149   0.665   8.214   8.814
  636WAT     H1 2150   0.667   8.228   8.715
  636WAT     H2 2151   0.572   8.227   8.848
  637WAT      O 2152   6.372   0.888   3.174
  637WAT     H1 2153   6.460   0.932   3.192
  637WAT     H2 2154   6.325   0.937   3.101
  638WAT      O 2155   9.654   0.477   1.588
  638WAT     H1 2156   9.654   0.394   1.643
  638WAT     H2 2157   9.594   0.545   1.630
  639WAT      O 2158   4.496   5.375   1.883
  639WAT     H1 2159   4.523   5.448   1.947
  639WAT     H2 2160   4.578   5.331   1.846
  640WAT      O 2161   9.084   3.203   5.886
  640WAT     H1 2162   9.131   3.231   5.970
  640WAT     H2 2163   9.032   3.120   5.903
  641WAT      O 2164   6.509   5.737   5.919
  641WAT     H1 2165   6.431   5.677   5.903
  641WAT     H2 2166   6.554   5.759   5.833
  642WAT      O 2167   6.868   8.244   3.709
  642WAT     H1 2168   6.864   8.237   3.808
  642WAT     H2 2169   6.923   8.324   3.683
  643WAT      O 2170   4.732   9.547   0.933
  643WAT     H1 2171   4.794   9.613   0.889
  643WAT     H2 2172   4.768   9.455   0.922
  644WAT      O 2173   0.111   6.216   2.104
  644WAT     H1 2174   0.065   6.296   2.143
  644WAT     H2 2175   0.185   6.246   2.042
  645WAT      O 2176   5.459   6.790   8.793
  645WAT     H1 2177   5.360   6.776   8.784
  645WAT     H2 2178   5.478   6.845   8.874
  646WAT      O 2179   6.743   9.204   8.833
  646WAT     H1 2180   6.717   9.124   8.886
  646WAT     H2 2181   6.757   9.178   8.737
  647WAT      O 2182   2.239   4.966   9.077
  647WAT     H1 2183   2.288   4.906   9.141
  647WAT     H2 2184   2.178   5.026   9.128
  648WAT      O 2185   3.371   0.416   2.511
  648WAT     H1 2186   3.354   0.383   2.604
  648WAT     H2 2187   3.462   0.387   2.481
  649WAT      O 2188   3.158   2.102   1.621
  649WAT     H1 2189   3.211   2.029   1.664
  649WAT     H2 2190   3.092   2.062   1.557
  650WAT      O 2191   6.748   4.366   9.152
  650WAT     H1 2192   6.654   4.397   9.147
  650WAT     H2 2193   6.810   4.445   9.147
  651WAT      O 2194   3.739   3.613   7.520
  651WAT     H1 2195   3.737   3.621   7.421
  651WAT     H2 2196   3.748   3.704   7.561
  652WAT      O 2197   6.239   5.316   7.605
  652WAT     H1 2198   6.173   5.389   7.587
  652WAT     H2 2199   6.270   5.323   7.700
  653WAT      O 2200   2.633   7.603   5.407
  653WAT     H1 2201   2.540   7.571   5.427
  653WAT     H2 2202   2.632   7.660   5.325
  654WAT      O 2203   2.215   0.281   0.507
  654WAT     H1 2204   2.268   0.198   0.523
  654WAT     H2 2205   2.139   0.286   0.572
  655WAT      O 2206   4.760   2.025   8.050
  655WAT     H1 2207   4.737   1.948   7.989
  655WAT     H2 2208   4.787   2.104   7.995
  656WAT      O 2209   0.902   8.379   2.146
  656WAT     H1 2210   0.938   8.411   2.059
  656WAT     H2 2211   0.853   8.454   2.192
  657WAT      O 2212   1.501   6.860   7.744
  657WAT     H1 2213   1.549   6.945   7.769
  657WAT     H2 2214   1.568   6.787   7.730
  658WAT      O 2215   0.188   0.006   5.907
  658WAT     H1 2216   0.193   0.046   5.816
  658WAT     H2 2217   0.092  -0.009   5.932
  659WAT      O 2218   4.568   8.226   1.994
  659WAT     H1 2219   4.612   8.175   1.920
  659WAT     H2 2220   4.470   8.229   1.978
  660WAT      O 2221   5.924   6.188   5.967
  660WAT     H1 2222   6.012   6.143   5.979
  660WAT     H2 2223   5.852   6.119   5.956
  661WAT      O 2224   0.349   7.254   4.815
  661WAT     H1 2225   0.325   7.245   4.719
  661WAT     H2 2226   0.357   7.163   4.856
  662WAT      O 2227   2.454   8.966   9.635
  662WAT     H1 2228   2.450   9.064   9.655
  662WAT     H2 2229   2.485   8.917   9.717
  663WAT      O 2230   8.487   0.749   3.079
  663WAT     H1 2231   8.429   0.695   3.139
  663WAT     H2 2232   8.529   0.824   3.130
  664WAT      O 2233   4.702   7.943   4.150
  664WAT     H1 2234   4.643   7.866   4.125
  664WAT     H2 2235   4.776   7.911   4.208
  665WAT      O 2236   2.475   7.754   1.886
  665WAT     H1 2237   2.502   7.678   1.827
  665WAT     H2 2238   2.430   7.719   1.968
  666WAT      O 2239   1.281   8.816   6.805
  666WAT     H1 2240   1.336   8.875   6.746
  666WAT     H2 2241   1.216   8.872   6.857
  667WAT      O 2242   9.651   3.076   3.767
  667WAT     H1 2243   9.665   2.992   3.714
  667WAT     H2 2244   9.582   3.132   3.722
  668WAT      O 2245   1.139   0.094   6.781
  668WAT     H1 2246   1.066   0.046   6.830
  668WAT     H2 2247   1.153   0.184   6.822
  669WAT      O 2248   4.527   2.197   4.539
  669WAT     H1 2249   4.600   2.164   4.599
  669WAT     H2 2250   4.542   2.162   4.447
  670WAT      O 2251   2.823   1.443   9.748
  670WAT     H1 2252   2.764   1.441   9.829
  670WAT     H2 2253   2.802   1.364   9.689
  671WAT      O 2254   0.868   5.866   0.339
  671WAT     H1 2255   0.796   5.906   0.282
  671WAT     H2 2256   0.932   5.937   0.367
  672WAT      O 2257   9.346   3.678   0.587
  672WAT     H1 2258   9.273   3.742   0.609
  672WAT     H2 2259   9.379   3.695   0.494
  673WAT      O 2260   5.847   9.126   4.089
  673WAT     H1 2261   5.862   9.054   4.021
  673WAT     H2 2262   5.884   9.098   4.177
  674WAT      O 2263   6.375   7.586   9.361
  674WAT     H1 2264   6.377   7.541   9.271
  674WAT     H2 2265   6.356   7.518   9.432
  675WAT      O 2266   1.517   8.622   2.482
  675WAT     H1 2267   1.596   8.582   2.436
  675WAT     H2 2268   1.548   8.694   2.544
  676WAT      O 2269   9.207   2.805   0.970
  676WAT     H1 2270   9.263   2.859   1.032
  676WAT     H2 2271   9.172   2.864   0.897
  677WAT      O 2272   9.381   4.887   2.916
  677WAT     H1 2273   9.311   4.953   2.892
  677WAT     H2 2274   9.394   4.887   3.015
  678WAT      O 2275   1.052   1.446   2.522
  678WAT     H1 2276   1.025   1.370   2.462
  678WAT     H2 2277   1.137   1.422   2.569
  679WAT      O 2278   8.625   6.553   8.548
  679WAT     H1 2279   8.576   6.594   8.625
  679WAT     H2 2280   8.723   6.553   8.567
  680WAT      O 2281   8.109   9.576   4.544
  680WAT     H1 2282   8.102   9.486   4.588
  680WAT     H2 2283   8.055   9.575   4.459
  681WAT      O 2284   1.834   0.499   2.474
  681WAT     H1 2285   1.800   0.409   2.503
  681WAT     H2 2286   1.762   0.547   2.424
  682WAT      O 2287   0.526   5.257   4.906
  682WAT     H1 2288   0.517   5.205   4.991
  682WAT     H2 2289   0.524   5.355   4.927
  683WAT      O 2290   7.219   9.510   6.209
  683WAT     H1 2291   7.188   9.586   6.152
  683WAT     H2 2292   7.199   9.529   6.305
  684WAT      O 2293   6.620   0.220   3.044
  684WAT     H1 2294   6.522   0.236   3.030
  684WAT     H2 2295   6.672   0.294   3.002
  685WAT      O 2296   0.405   1.212   8.210
  685WAT     H1 2297   0.371   1.298   8.171
  685WAT     H2 2298   0.504   1.208   8.201
  686WAT      O 2299   7.987   2.272   0.967
  686WAT     H1 2300   7.953   2.348   1.024
  686WAT     H2 2301   7.920   2.198   0.967
  687WAT      O 2302   3.328   4.046   4.023
  687WAT     H1 2303   3.266   4.124   4.033
  687WAT     H2 2304   3.387   4.039   4.104
  688WAT      O 2305   1.936   5.789   0.821
  688WAT     H1 2306   1.901   5.859   0.882
  688WAT     H2 2307   2.009   5.828   0.765
  689WAT      O 2308   5.999   7.057   0.476
  689WAT     H1 2309   6.055   7.053   0.558
  689WAT     H2 2310   6.001   6.968   0.430
  690WAT      O 2311   5.499   7.861   3.831
  690WAT     H1 2312   5.560   7.791   3.794
  690WAT     H2 2313   5.504   7.859   3.931
  691WAT      O 2314   8.890   8.144   9.357
  691WAT     H1 2315   8.892   8.161   9.456
  691WAT     H2 2316   8.884   8.232   9.309
  692WAT      O 2317   6.653   6.246   2.543
  692WAT     H1 2318   6.613   6.163   2.505
  692WAT     H2 2319   6.635   6.250   2.642
  693WAT      O 2320   3.223   5.546   7.080
  693WAT     H1 2321   3.123   5.552   7.081
  693WAT     H2 2322   3.261   5.610   7.148
  694WAT      O 2323   5.842   7.856   5.052
  694WAT     H1 2324   5.816   7.763   5.027
  694WAT     H2 2325   5.903   7.894   4.983
  695WAT      O 2326   2.317   7.688   4.624
  695WAT     H1 2327   2.298   7.607   4.569
  695WAT     H2 2328   2.231   7.722   4.663
  696WAT      O 2329   1.066   9.342   1.531
  696WAT     H1 2330   1.138   9.299   1.475
  696WAT     H2 2331   1.074   9.441   1.525
  697WAT      O 2332   6.301   3.776   2.181
  697WAT     H1 2333   6.386   3.822   2.153
  697WAT     H2 2334   6.235   3.781   2.105
  698WAT      O 2335   8.439   2.515   5.819
  698WAT     H1 2336   8.404   2.442   5.760
  698WAT     H2 2337   8.395   2.509   5.909
  699WAT      O 2338   8.048   4.970   6.527
  699WAT     H1 2339   8.096   4.995   6.611
  699WAT     H2 2340   8.114   4.966   6.451
  700WAT      O 2341   3.140   2.429   7.566
  700WAT     H1 2342   3.234   2.428   7.601
  700WAT     H2 2343   3.087   2.357   7.611
  701WAT      O 2344   8.606   6.311   7.254
  701WAT     H1 2345   8.572   6.348   7.168
  701WAT     H2 2346   8.671   6.237   7.234
  702WAT      O 2347   9.005   0.020   4.480
  702WAT     H1 2348   9.012   0.076   4.397
  702WAT     H2 2349   8.914   0.029   4.519
  703WAT      O 2350   3.052   1.498   8.242
  703WAT     H1 2351   3.016   1.433   8.309
  703WAT     H2 2352   3.104   1.449   8.172
  704WAT      O 2353   5.838   9.089   6.256
  704WAT     H1 2354   5.788   9.067   6.340
  704WAT     H2 2355   5.936   9.096   6.277
  705WAT      O 2356   6.867   3.128   5.991
  705WAT     H1 2357   6.776   3.145   5.952
  705WAT     H2 2358   6.887   3.031   5.986
  706WAT      O 2359   9.490   6.627   7.036
  706WAT     H1 2360   9.405   6.667   7.003
  706WAT     H2 2361   9.473   6.536   7.073
  707WAT      O 2362   4.099   5.722   4.050
  707WAT     H1 2363   4.143   5.788   4.111
  707WAT     H2 2364   4.047   5.656   4.105
  708WAT      O 2365   8.365   6.660   6.735
  708WAT     H1 2366   8.377   6.745   6.787
  708WAT     H2 2367   8.412   6.667   6.648
  709WAT      O 2368   6.808   0.741   0.647
  709WAT     H1 2369   6.790   0.673   0.576
  709WAT     H2 2370   6.722   0.774   0.685
  710WAT      O 2371   2.691   6.447   6.514
  710WAT     H1 2372   2.619   6.457   6.446
  710WAT     H2 2373   2.731   6.356   6.508
  711WAT      O 2374   3.332   5.261   2.683
  711WAT     H1 2375   3.423   5.269   2.725
  711WAT     H2 2376   3.266   5.311   2.739
  712WAT      O 2377   1.525   3.569   7.321
  712WAT     H1 2378   1.525   3.591   7.223
  712WAT     H2 2379   1.513   3.470   7.333
  713WAT      O 2380   9.231   0.245   5.889
  713WAT     H1 2381   9.280   0.280   5.809
  713WAT     H2 2382   9.287   0.256   5.970
  714WAT      O 2383   5.390   5.636   8.695
  714WAT     H1 2384   5.351   5.651   8.604
  714WAT     H2 2385   5.474   5.689   8.704
  715WAT      O 2386   0.091   4.594   7.067
  715WAT     H1 2387   0.085   4.508   7.017
  715WAT     H2 2388   0.069   4.578   7.164
  716WAT      O 2389   7.477   7.846   2.882
  716WAT     H1 2390   7.525   7.810   2.802
  716WAT     H2 2391   7.379   7.838   2.867
  717WAT      O 2392   9.148   8.931   4.453
  717WAT     H1 2393   9.176   8.888   4.539
  717WAT     H2 2394   9.062   8.891   4.422
  718WAT      O 2395   3.418   0.964   8.359
  718WAT     H1 2396   3.493   0.980   8.423
  718WAT     H2 2397   3.344   1.029   8.376
  719WAT      O 2398   5.855   5.423   8.766
  719WAT     H1 2399   5.926   5.491   8.781
  719WAT     H2 2400   5.846   5.364   8.847
  720WAT      O 2401   1.564   9.515   5.370
  720WAT     H1 2402   1.607   9.437   5.414
  720WAT     H2 2403   1.580   9.597   5.424
  721WAT      O 2404   1.820   7.275   7.828
  721WAT     H1 2405   1.879   7.195   7.834
  721WAT     H2 2406   1.869   7.356   7.861
  722WAT      O 2407   5.408   1.312   9.196
  722WAT     H1 2408   5.373   1.329   9.288
  722WAT     H2 2409   5.505   1.335   9.193
  723WAT      O 2410   1.367   3.964   0.199
  723WAT     H1 2411   1.415   4.043   0.236
  723WAT     H2 2412   1.401   3.944   0.107
  724WAT      O 2413   8.207   6.609   4.089
  724WAT     H1 2414   8.130   6.546   4.085
  724WAT     H2 2415   8.291   6.560   4.064
  725WAT      O 2416   7.996   1.419   4.983
  725WAT     H1 2417   7.936   1.473   5.042
  725WAT     H2 2418   7.948   1.397   4.899
  726WAT      O 2419   2.481   1.922   5.847
  726WAT     H1 2420   2.565   1.976   5.852
  726WAT     H2 2421   2.401   1.982   5.851
  727WAT      O 2422   0.066   4.989   8.862
  727WAT     H1 2423   0.001   4.913   8.861
  727WAT     H2 2424   0.034   5.059   8.926
  728WAT      O 2425   2.072   4.608   4.379
  728WAT     H1 2426   1.999   4.567   4.325
  728WAT     H2 2427   2.051   4.600   4.476
  729WAT      O 2428   1.260   7.926   6.189
  729WAT     H1 2429   1.329   7.996   6.210
  729WAT     H2 2430   1.275   7.846   6.246
  730WAT      O 2431   7.727   3.124   2.672
  730WAT     H1 2432   7.662   3.181   2.623
  730WAT     H2 2433   7.678   3.057   2.729
  731WAT      O 2434   9.413   5.422   0.941
  731WAT     H1 2435   9.416   5.454   0.846
  731WAT     H2 2436   9.443   5.326   0.944
  732WAT      O 2437   6.125   5.666   8.317
  732WAT     H1 2438   6.027   5.677   8.335
  732WAT     H2 2439   6.159   5.586   8.367
  733WAT      O 2440   0.538   6.447   1.340
  733WAT     H1 2441   0.555   6.431   1.243
  733WAT     H2 2442   0.620   6.424   1.392
  734WAT      O 2443   2.497   7.601   0.735
  734WAT     H1 2444   2.458   7.688   0.708
  734WAT     H2 2445   2.558   7.567   0.663
  735WAT      O 2446   9.234   0.937   3.250
  735WAT     H1 2447   9.285   1.023   3.243
  735WAT     H2 2448   9.218   0.900   3.158
  736WAT      O 2449   0.054   1.727   2.234
  736WAT     H1 2450   0.013   1.779   2.308
  736WAT     H2 2451   0.013   1.635   2.231
  737WAT      O 2452   8.742   1.821   2.875
  737WAT     H1 2453   8.713   1.760   2.802
  737WAT     H2 2454   8.840   1.838   2.866
  738WAT      O 2455   2.479   1.950   0.002
  738WAT     H1 2456   2.396   1.990   0.041
  738WAT     H2 2457   2.557   2.011   0.021
  739WAT      O 2458   8.566   4.010   5.337
  739WAT     H1 2459   8.544   4.102   5.304
  739WAT     H2 2460   8.508   3.943   5.291
  740WAT      O 2461   4.396   5.999   7.886
  740WAT     H1 2462   4.313   5.945   7.872
  740WAT     H2 2463   4.375   6.096   7.871
  741WAT      O 2464   7.380   2.841   3.503
  741WAT     H1 2465   7.301   2.783   3.487
  741WAT     H2 2466   7.425   2.814   3.588
  742WAT      O 2467   1.647   7.204   0.871
  742WAT     H1 2468   1.671   7.225   0.966
  742WAT     H2 2469   1.618   7.109   0.864
  743WAT      O 2470   4.344   0.122   4.272
  743WAT     H1 2471   4.398   0.178   4.209
  743WAT     H2 2472   4.249   0.117   4.239
  744WAT      O 2473   8.299   3.323   4.838
  744WAT     H1 2474   8.393   3.347   4.861
  744WAT     H2 2475   8.296   3.284   4.746
  745WAT      O 2476   6.702   3.660   1.551
  745WAT     H1 2477   6.622   3.624   1.598
  745WAT     H2 2478   6.673   3.708   1.468
  746WAT      O 2479   5.365   0.520   1.361
  746WAT     H1 2480   5.406   0.429   1.356
  746WAT     H2 2481   5.271   0.517   1.326
  747WAT      O 2482   5.629   5.695   9.239
  747WAT     H1 2483   5.559   5.759   9.272
  747WAT     H2 2484   5.678   5.656   9.318
  748WAT      O 2485   9.372   8.198   7.480
  748WAT     H1 2486   9.427   8.275   7.449
  748WAT     H2 2487   9.360   8.133   7.405
  749WAT      O 2488   2.031   3.551   7.412
  749WAT     H1 2489   2.100   3.600   7.465
  749WAT     H2 2490   2.031   3.586   7.318
  750WAT      O 2491   6.818   3.101   1.204
  750WAT     H1 2492   6.803   3.136   1.297
  750WAT     H2 2493   6.878   3.165   1.155
  751WAT      O 2494   0.611   8.990   0.451
  751WAT     H1 2495   0.647   9.006   0.543
  751WAT     H2 2496   0.593   8.892   0.439
  752WAT      O 2497   9.284   5.860   0.180
  752WAT     H1 2498   9.189   5.882   0.157
  752WAT     H2 2499   9.301   5.764   0.160
  753WAT      O 2500   6.537   4.760   7.644
  753WAT     H1 2501   6.518   4.775   7.548
  753WAT     H2 2502   6.584   4.672   7.656
  754WAT      O 2503   0.431   1.678   0.674
  754WAT     H1 2504   0.398   1.662   0.767
  754WAT     H2 2505   0.531   1.677   0.674
  755WAT      O 2506   8.293   6.459   8.754
  755WAT     H1 2507   8.348   6.541   8.735
  755WAT     H2 2508   8.327   6.383   8.698
  756WAT      O 2509   5.563   4.651   1.506
  756WAT     H1 2510   5.521   4.705   1.433
  756WAT     H2 2511   5.495   4.630   1.576
  757WAT      O 2512   5.730   7.756   8.510
  757WAT     H1 2513   5.780   7.755   8.597
  757WAT     H2 2514   5.704   7.850   8.488
  758WAT      O 2515   1.413   0.822   9.662
  758WAT     H1 2516   1.474   0.782   9.593
  758WAT     H2 2517   1.446   0.913   9.687
  759WAT      O 2518   5.184   8.622   4.590
  759WAT     H1 2519   5.240   8.542   4.569
  759WAT     H2 2520   5.107   8.594   4.649
  760WAT      O 2521   7.732   0.905   2.421
  760WAT     H1 2522   7.746   0.875   2.326
  760WAT     H2 2523   7.713   0.825   2.478
  761WAT      O 2524   4.450   4.306   9.860
  761WAT     H1 2525   4.514   4.229   9.870
  761WAT     H2 2526   4.374   4.278   9.800
  762WAT      O 2527   7.573   8.027   2.279
  762WAT     H1 2528   7.503   8.098   2.271
  762WAT     H2 2529   7.577   7.994   2.373
  763WAT      O 2530   9.251   7.593   9.135
  763WAT     H1 2531   9.275   7.690   9.139
  763WAT     H2 2532   9.333   7.539   9.113
  764WAT      O 2533   2.060   5.690   7.555
  764WAT     H1 2534   1.979   5.634   7.572
  764WAT     H2 2535   2.066   5.763   7.622
  765WAT      O 2536   7.422   5.378   3.058
  765WAT     H1 2537   7.432   5.450   3.127
  765WAT     H2 2538   7.336   5.391   3.008
  766WAT      O 2539   6.579   4.216   6.091
  766WAT     H1 2540   6.526   4.294   6.123
  766WAT     H2 2541   6.521   4.134   6.091
  767WAT      O 2542   8.684   8.143   6.137
  767WAT     H1 2543   8.723   8.054   6.160
  767WAT     H2 2544   8.603   8.130   6.079
  768WAT      O 2545   5.156   2.586   0.906
  768WAT     H1 2546   5.114   2.640   0.833
  768WAT     H2 2547   5.187   2.498   0.870
  769WAT      O 2548   7.674   7.420   3.180
  769WAT     H1 2549   7.669   7.418   3.080
  769WAT     H2 2550   7.585   7.445   3.218
  770WAT      O 2551   8.991   9.352   6.483
  770WAT     H1 2552   9.006   9.437   6.532
  770WAT     H2 2553   8.970   9.372   6.387
  771WAT      O 2554   4.974   9.063   8.225
  771WAT     H1 2555   4.972   9.039   8.128
  771WAT     H2 2556   5.069   9.068   8.256
  772WAT      O 2557   8.498   2.086   9.352
  772WAT     H1 2558   8.571   2.028   9.316
  772WAT     H2 2559   8.536   2.148   9.421
  773WAT      O 2560   1.360   7.951   5.620
  773WAT     H1 2561   1.459   7.955   5.632
  773WAT     H2 2562   1.320   7.897   5.694
  774WAT      O 2563   0.363   4.222   7.928
  774WAT     H1 2564   0.355   4.125   7.954
  774WAT     H2 2565   0.458   4.242   7.903
  775WAT      O 2566   6.453   0.443   4.479
  775WAT     H1 2567   6.357   0.452   4.455
  775WAT     H2 2568   6.480   0.518   4.539
  776WAT      O 2569   6.419   9.531   1.800
  776WAT     H1 2570   6.382   9.532   1.893
  776WAT     H2 2571   6.492   9.462   1.794
  777WAT      O 2572   3.670   5.404   0.608
  777WAT     H1 2573   3.720   5.474   0.557
  777WAT     H2 2574   3.735   5.336   0.643
  778WAT      O 2575   6.787   5.554   6.334
  778WAT     H1 2576   6.745   5.595   6.253
  778WAT     H2 2577   6.829   5.467   6.309
  779WAT      O 2578   5.530   8.272   0.600
  779WAT     H1 2579   5.531   8.323   0.513
  779WAT     H2 2580   5.436   8.249   0.624
  780WAT      O 2581   5.871   3.334   4.685
  780WAT     H1 2582   5.818   3.385   4.617
  780WAT     H2 2583   5.874   3.237   4.661
  781WAT      O 2584   6.778   4.417   4.437
  781WAT     H1 2585   6.721   4.486   4.393
  781WAT     H2 2586   6.857   4.461   4.480
  782WAT      O 2587   4.430   5.877   3.838
  782WAT     H1 2588   4.454   5.973   3.843
  782WAT     H2 2589   4.335   5.864   3.868
  783WAT      O 2590   1.094   7.203   7.138
  783WAT     H1 2591   1.162   7.207   7.065
  783WAT     H2 2592   1.135   7.233   7.224
  784WAT      O 2593   1.120   3.010   6.941
  784WAT     H1 2594   1.065   3.083   6.900
  784WAT     H2 2595   1.209   3.006   6.897
  785WAT      O 2596   8.290   3.918   6.654
  785WAT     H1 2597   8.342   3.933   6.738
  785WAT     H2 2598   8.203   3.873   6.676
  786WAT      O 2599   2.666   2.415   9.021
  786WAT     H1 2600   2.578   2.383   9.055
  786WAT     H2 2601   2.655   2.502   8.975
  787WAT      O 2602   7.007   3.904   2.830
  787WAT     H1 2603   6.923   3.878   2.879
  787WAT     H2 2604   6.993   3.993   2.787
  788WAT      O 2605   8.668   3.723   9.052
  788WAT     H1 2606   8.621   3.729   9.140
  788WAT     H2 2607   8.695   3.628   9.035
  789WAT      O 2608   1.271   9.114   0.587
  789WAT     H1 2609   1.238   9.133   0.679
  789WAT     H2 2610   1.367   9.140   0.580
  790WAT      O 2611   4.242   2.289   2.348
  790WAT     H1 2612   4.146   2.298   2.322
  790WAT     H2 2613   4.251   2.220   2.419
  791WAT      O 2614   8.447   3.906   3.065
  791WAT     H1 2615   8.520   3.867   3.122
  791WAT     H2 2616   8.388   3.963   3.122
  792WAT      O 2617   8.052   0.222   4.985
  792WAT     H1 2618   8.097   0.142   4.946
  792WAT     H2 2619   7.983   0.255   4.921
  793WAT      O 2620   6.597   5.355   7.821
  793WAT     H1 2621   6.603   5.258   7.800
  793WAT     H2 2622   6.613   5.408   7.738
  794WAT      O 2623   5.444   1.386   5.222
  794WAT     H1 2624   5.418   1.293   5.245
  794WAT     H2 2625   5.363   1.440   5.200
  795WAT      O 2626   0.861   7.717   5.054
  795WAT     H1 2627   0.933   7.765   5.103
  795WAT     H2 2628   0.808   7.661   5.118
  796WAT      O 2629   8.979   9.603   3.525
  796WAT     H1 2630   8.926   9.632   3.605
  796WAT     H2 2631   8.980   9.503   3.520
  797WAT      O 2632   8.152   9.473   0.190
  797WAT     H1 2633   8.198   9.417   0.122
  797WAT     H2 2634   8.215   9.541   0.226
  798WAT      O 2635   1.698   4.857   5.552
  798WAT     H1 2636   1.733   4.865   5.645
  798WAT     H2 2637   1.649   4.940   5.527
  799WAT      O 2638   3.987   6.079   1.282
  799WAT     H1 2639   4.014   6.061   1.188
  799WAT     H2 2640   3.938   5.998   1.318
  800WAT      O 2641   4.663   7.424   0.017
  800WAT     H1 2642   4.670   7.333  -0.022
  800WAT     H2 2643   4.608   7.421   0.100
  801WAT      O 2644   8.785   2.991   9.220
  801WAT     H1 2645   8.884   2.977   9.215
  801WAT     H2 2646   8.745   2.977   9.129
  802WAT      O 2647   1.279   1.666   8.333
  802WAT     H1 2648   1.213   1.620   8.393
  802WAT     H2 2649   1.350   1.601   8.307
  803WAT      O 2650   7.660   3.997   8.516
  803WAT     H1 2651   7.737   4.057   8.536
  803WAT     H2 2652   7.615   4.028   8.432
  804WAT      O 2653   5.704   5.860   0.488
  804WAT     H1 2654   5.690   5.915   0.571
  804WAT     H2 2655   5.631   5.879   0.423
  805WAT      O 2656   8.388   5.304   0.302
  805WAT     H1 2657   8.470   5.344   0.341
  805WAT     H2 2658   8.377   5.334   0.207
  806WAT      O 2659   2.652   1.722   8.171
  806WAT     H1 2660   2.699   1.676   8.246
  806WAT     H2 2661   2.655   1.665   8.090
  807WAT      O 2662   6.640   6.672   4.682
  807WAT     H1 2663   6.672   6.736   4.613
  807WAT     H2 2664   6.558   6.626   4.651
  808WAT      O 2665   5.327   8.086   3.155
  808WAT     H1 2666   5.354   8.016   3.088
  808WAT     H2 2667   5.369   8.065   3.243
  809WAT      O 2668   5.730   2.841   4.883
  809WAT     H1 2669   5.816   2.838   4.934
  809WAT     H2 2670   5.708   2.936   4.860
  810WAT      O 2671   4.379   0.743   6.908
  810WAT     H1 2672   4.368   0.746   6.809
  810WAT     H2 2673   4.472   0.772   6.932
  811WAT      O 2674   2.673   9.043   1.152
  811WAT     H1 2675   2.631   9.127   1.187
  811WAT     H2 2676   2.756   9.067   1.101
  812WAT      O 2677   7.352   0.615   7.270
  812WAT     H1 2678   7.441   0.571   7.279
  812WAT     H2 2679   7.291   0.579   7.341
  813WAT      O 2680   3.185   1.325   6.552
  813WAT     H1 2681   3.266   1.380   6.575
  813WAT     H2 2682   3.133   1.371   6.481
  814WAT      O 2683   6.529   6.308   5.715
  814WAT     H1 2684   6.475   6.337   5.636
  814WAT     H2 2685   6.598   6.377   5.735
  815WAT      O 2686   5.712   5.048   3.269
  815WAT     H1 2687   5.743   4.973   3.210
  815WAT     H2 2688   5.659   5.010   3.345
  816WAT      O 2689   7.000   9.237   7.247
  816WAT     H1 2690   7.015   9.336   7.244
  816WAT     H2 2691   6.931   9.215   7.315
  817WAT      O 2692   1.763   5.643   8.970
  817WAT     H1 2693   1.680   5.697   8.982
  817WAT     H2 2694   1.747   5.550   9.004
  818WAT      O 2695   0.492   4.864   5.636
  818WAT     H1 2696   0.565   4.814   5.681
  818WAT     H2 2697   0.453   4.930   5.701
  819WAT      O 2698   9.486   5.717   5.182
  819WAT     H1 2699   9.550   5.648   5.147
  819WAT     H2 2700   9.537   5.789   5.229
  820WAT      O 2701   4.523   0.771   8.312
  820WAT     H1 2702   4.495   0.675   8.315
  820WAT     H2 2703   4.567   0.790   8.224
  821WAT      O 2704   2.993   9.284   6.575
  821WAT     H1 2705   3.028   9.378   6.573
  821WAT     H2 2706   3.016   9.238   6.490
  822WAT      O 2707   5.160   9.102   9.016
  822WAT     H1 2708   5.202   9.192   9.011
  822WAT     H2 2709   5.072   9.108   9.064
  823WAT      O 2710   2.289   6.496   3.605
  823WAT     H1 2711   2.200   6.475   3.564
  823WAT     H2 2712   2.355   6.517   3.534
  824WAT      O 2713   6.774   2.380   1.541
  824WAT     H1 2714   6.741   2.472   1.523
  824WAT     H2 2715   6.738   2.348   1.629
  825WAT      O 2716   1.110   1.637   5.436
  825WAT     H1 2717   1.068   1.551   5.465
  825WAT     H2 2718   1.170   1.619   5.358
  826WAT      O 2719   4.437   8.898   0.783
  826WAT     H1 2720   4.499   8.820   0.791
  826WAT     H2 2721   4.412   8.929   0.875
  827WAT      O 2722   5.616   7.033   6.045
  827WAT     H1 2723   5.708   7.067   6.023
  827WAT     H2 2724   5.620   6.979   6.129
  828WAT      O 2725   8.727   6.301   4.987
  828WAT     H1 2726   8.779   6.272   5.067
  828WAT     H2 2727   8.635   6.262   4.992
  829WAT      O 2728   8.543   7.166   4.036
  829WAT     H1 2729   8.483   7.211   4.102
  829WAT     H2 2730   8.563   7.073   4.067
  830WAT      O 2731   2.056   9.178   4.431
  830WAT     H1 2732   2.139   9.220   4.395
  830WAT     H2 2733   2.080   9.104   4.494
  831WAT      O 2734   6.665   8.979   6.331
  831WAT     H1 2735   6.726   8.972   6.251
  831WAT     H2 2736   6.620   8.891   6.346
  832WAT      O 2737   2.237   4.181   8.993
  832WAT     H1 2738   2.168   4.253   8.992
  832WAT     H2 2739   2.327   4.220   8.974
  833WAT      O 2740   5.729   3.115   9.675
  833WAT     H1 2741   5.828   3.104   9.668
  833WAT     H2 2742   5.704   3.132   9.770
  834WAT      O 2743   6.318   5.378   6.832
  834WAT     H1 2744   6.263   5.461   6.842
  834WAT     H2 2745   6.408   5.402   6.796
  835WAT      O 2746   7.624   8.403   4.256
  835WAT     H1 2747   7.536   8.415   4.209
  835WAT     H2 2748   7.660   8.312   4.237
  836WAT      O 2749   3.974   4.001   7.522
  836WAT     H1 2750   3.972   4.093   7.560
  836WAT     H2 2751   4.056   3.991   7.464
  837WAT      O 2752   5.994   6.017   5.498
  837WAT     H1 2753   6.010   5.953   5.423
  837WAT     H2 2754   5.896   6.034   5.507
  838WAT      O 2755   0.673   0.873   3.716
  838WAT     H1 2756   0.691   0.783   3.678
  838WAT     H2 2757   0.644   0.935   3.644
  839WAT      O 2758   7.591   1.207   4.458
  839WAT     H1 2759   7.666   1.158   4.412
  839WAT     H2 2760   7.561   1.283   4.401
  840WAT      O 2761   4.007   9.621   2.822
  840WAT     H1 2762   4.064   9.608   2.741
  840WAT     H2 2763   4.063   9.651   2.899
  841WAT      O 2764   2.255   2.029   8.815
  841WAT     H1 2765   2.294   1.952   8.764
  841WAT     H2 2766   2.329   2.083   8.856
  842WAT      O 2767   9.779   6.170   3.942
  842WAT     H1 2768   9.781   6.070   3.956
  842WAT     H2 2769   9.871   6.201   3.916
  843WAT      O 2770   4.033   8.840   0.969
  843WAT     H1 2771   4.045   8.780   0.890
  843WAT     H2 2772   3.935   8.848   0.991
  844WAT      O 2773   5.911   7.908   7.789
  844WAT     H1 2774   5.928   7.812   7.768
  844WAT     H2 2775   5.825   7.917   7.838
  845WAT      O 2776   2.247   2.622   1.322
  845WAT     H1 2777   2.152   2.650   1.318
  845WAT     H2 2778   2.290   2.635   1.233
  846WAT      O 2779   2.334   8.138   7.840
  846WAT     H1 2780   2.257   8.200   7.826
  846WAT     H2 2781   2.311   8.070   7.909
  847WAT      O 2782   6.922   6.846   9.813
  847WAT     H1 2783   7.013   6.813   9.840
  847WAT     H2 2784   6.896   6.804   9.726
  848WAT      O 2785   3.265   5.404   6.857
  848WAT     H1 2786   3.253   5.309   6.885
  848WAT     H2 2787   3.237   5.464   6.932
  849WAT      O 2788   6.429   4.526   7.339
  849WAT     H1 2789   6.428   4.427   7.322
  849WAT     H2 2790   6.366   4.547   7.414
  850WAT      O 2791   3.529   5.194   8.108
  850WAT     H1 2792   3.599   5.136   8.065
  850WAT     H2 2793   3.530   5.179   8.207
  851WAT      O 2794   0.477   7.121   8.744
  851WAT     H1 2795   0.468   7.120   8.644
  851WAT     H2 2796   0.432   7.040   8.782
  852WAT      O 2797   5.484   2.000   0.839
  852WAT     H1 2798   5.443   1.949   0.763
  852WAT     H2 2799   5.455   1.960   0.926
  853WAT      O 2800   7.466   8.800   2.793
  853WAT     H1 2801   7.471   8.851   2.707
  853WAT     H2 2802   7.557   8.772   2.821
  854WAT      O 2803   3.674   4.186   3.654
  854WAT     H1 2804   3.584   4.166   3.694
  854WAT     H2 2805   3.665   4.254   3.582
  855WAT      O 2806   6.933   2.783   7.735
  855WAT     H1 2807   6.995   2.777   7.657
  855WAT     H2 2808   6.845   2.743   7.711
  856WAT      O 2809   9.716   8.015   7.813
  856WAT     H1 2810   9.753   8.079   7.880
  856WAT     H2 2811   9.647   7.957   7.855
  857WAT      O 2812   8.064   8.095   0.383
  857WAT     H1 2813   8.142   8.070   0.440
  857WAT     H2 2814   8.049   8.024   0.314
  858WAT      O 2815   0.029   6.353   4.588
  858WAT     H1 2816  -0.068   6.356   4.565
  858WAT     H2 2817   0.062   6.258   4.584
  859WAT      O 2818   9.697   3.388   5.748
  859WAT     H1 2819   9.738   3.401   5.657
  859WAT     H2 2820   9.651   3.299   5.751
  860WAT      O 2821   2.914   8.731   5.389
  860WAT     H1 2822   2.897   8.710   5.485
  860WAT     H2 2823   2.835   8.777   5.350
  861WAT      O 2824   0.069   8.721   0.303
  861WAT     H1 2825   0.050   8.767   0.389
  861WAT     H2 2826  -0.017   8.690   0.262
  862WAT      O 2827   3.097   0.868   8.605
  862WAT     H1 2828   3.104   0.816   8.520
  862WAT     H2 2829   3.187   0.902   8.631
  863WAT      O 2830   8.376   7.048   5.148
  863WAT     H1 2831   8.376   6.955   5.110
  863WAT     H2 2832   8.397   7.113   5.075
  864WAT      O 2833   7.084   5.421   8.695
  864WAT     H1 2834   7.156   5.392   8.758
  864WAT     H2 2835   7.030   5.494   8.738
  865WAT      O 2836   0.633   4.014   3.189
  865WAT     H1 2837   0.683   4.063   3.260
  865WAT     H2 2838   0.697   3.984   3.118
  866WAT      O 2839   7.606   3.542   3.951
  866WAT     H1 2840   7.642   3.634   3.938
  866WAT     H2 2841   7.662   3.477   3.901
  867WAT      O 2842   4.246   2.962   2.731
  867WAT     H1 2843   4.195   2.996   2.810
  867WAT     H2 2844   4.320   2.902   2.763
  868WAT      O 2845   0.107   5.346   9.865
  868WAT     H1 2846   0.147   5.256   9.880
  868WAT     H2 2847   0.007   5.338   9.861
  869WAT      O 2848   4.443   2.054   9.426
  869WAT     H1 2849   4.360   2.003   9.405
  869WAT     H2 2850   4.419   2.148   9.451
  870WAT      O 2851   7.142   3.803   9.714
  870WAT     H1 2852   7.049   3.822   9.682
  870WAT     H2 2853   7.200   3.781   9.635
  871WAT      O 2854   0.305   7.213   9.611
  871WAT     H1 2855   0.351   7.282   9.554
  871WAT     H2 2856   0.229   7.256   9.659
  872WAT      O 2857   0.717   6.379   9.159
  872WAT     H1 2858   0.742   6.296   9.108
  872WAT     H2 2859   0.632   6.363   9.209
  873WAT      O 2860   3.650   1.421   2.553
  873WAT     H1 2861   3.659   1.444   2.650
  873WAT     H2 2862   3.591   1.489   2.508
  874WAT      O 2863   5.928   7.927   5.325
  874WAT     H1 2864   5.920   7.897   5.230
  874WAT     H2 2865   6.020   7.908   5.359
  875WAT      O 2866   2.807   9.272   3.871
  875WAT     H1 2867   2.784   9.369   3.885
  875WAT     H2 2868   2.792   9.222   3.956
  876WAT      O 2869   2.796   9.084   0.626
  876WAT     H1 2870   2.817   9.153   0.696
  876WAT     H2 2871   2.776   9.130   0.539
  877WAT      O 2872   0.988   7.945   0.155
  877WAT     H1 2873   0.976   8.033   0.109
  877WAT     H2 2874   0.960   7.872   0.093
  878WAT      O 2875   2.651   6.451   8.982
  878WAT     H1 2876   2.570   6.393   8.986
  878WAT     H2 2877   2.667   6.491   9.072
  879WAT      O 2878   5.976   3.439   4.898
  879WAT     H1 2879   6.052   3.388   4.938
  879WAT     H2 2880   5.940   3.390   4.819
  880WAT      O 2881   3.752   2.882   4.496
  880WAT     H1 2882   3.773   2.804   4.438
  880WAT     H2 2883   3.653   2.894   4.502
  881WAT      O 2884   3.486   7.961   4.345
  881WAT     H1 2885   3.395   8.001   4.330
  881WAT     H2 2886   3.555   8.032   4.336
  882WAT      O 2887   5.116   0.239   9.015
  882WAT     H1 2888   5.156   0.330   9.030
  882WAT     H2 2889   5.049   0.220   9.086
  883WAT      O 2890   2.733   3.457   4.631
  883WAT     H1 2891   2.634   3.454   4.620
  883WAT     H2 2892   2.759   3.414   4.718
  884WAT      O 2893   3.625   0.284   3.974
  884WAT     H1 2894   3.574   0.364   4.006
  884WAT     H2 2895   3.717   0.313   3.948
  885WAT      O 2896   7.585   2.090   6.734
  885WAT     H1 2897   7.530   2.007   6.748
  885WAT     H2 2898   7.620   2.091   6.641
  886WAT      O 2899   3.813   0.449   6.581
  886WAT     H1 2900   3.855   0.538   6.599
  886WAT     H2 2901   3.715   0.461   6.566
  887WAT      O 2902   7.477   3.775   1.895
  887WAT     H1 2903   7.530   3.859   1.897
  887WAT     H2 2904   7.382   3.795   1.918
  888WAT      O 2905   4.922   0.618   8.829
  888WAT     H1 2906   4.935   0.700   8.885
  888WAT     H2 2907   5.005   0.599   8.777
  889WAT      O 2908   4.490   0.652   6.413
  889WAT     H1 2909   4.410   0.666   6.354
  889WAT     H2 2910   4.541   0.571   6.383
  890WAT      O 2911   1.482   0.928   1.073
  890WAT     H1 2912   1.546   0.916   1.149
  890WAT     H2 2913   1.482   1.024   1.044
  891WAT      O 2914   8.134   4.614   1.865
  891WAT     H1 2915   8.167   4.533   1.914
  891WAT     H2 2916   8.149   4.696   1.921
  892WAT      O 2917   6.081   5.074   5.259
  892WAT     H1 2918   6.143   5.086   5.336
  892WAT     H2 2919   6.016   5.150   5.256
  893WAT      O 2920   3.667   7.573   1.206
  893WAT     H1 2921   3.739   7.641   1.224
  893WAT     H2 2922   3.663   7.509   1.282
  894WAT      O 2923   0.088   1.967   2.026
  894WAT     H1 2924   0.066   2.015   1.941
  894WAT     H2 2925   0.007   1.963   2.084
  895WAT      O 2926   8.396   0.574   4.049
  895WAT     H1 2927   8.383   0.617   4.139
  895WAT     H2 2928   8.406   0.475   4.061
  896WAT      O 2929   1.836   4.976   7.858
  896WAT     H1 2930   1.747   4.963   7.814
  896WAT     H2 2931   1.865   5.071   7.849
  897WAT      O 2932   6.823   5.097   0.222
  897WAT     H1 2933   6.885   5.018   0.218
  897WAT     H2 2934   6.746   5.075   0.282
  898WAT      O 2935   6.516   6.547   6.293
  898WAT     H1 2936   6.419   6.550   6.313
  898WAT     H2 2937   6.540   6.457   6.255
  899WAT      O 2938   2.734   8.080   3.263
  899WAT     H1 2939   2.715   8.043   3.353
  899WAT     H2 2940   2.660   8.142   3.236
  900WAT      O 2941   2.354   6.861   4.468
  900WAT     H1 2942   2.443   6.843   4.510
  900WAT     H2 2943   2.349   6.816   4.379
  901WAT      O 2944   0.398   6.562   9.050
  901WAT     H1 2945   0.461   6.547   8.973
  901WAT     H2 2946   0.327   6.626   9.023
  902WAT      O 2947   0.578   1.685   0.343
  902WAT     H1 2948   0.541   1.667   0.252
  902WAT     H2 2949   0.516   1.746   0.392
  903WAT      O 2950   0.200   8.975   2.754
  903WAT     H1 2951   0.238   9.047   2.697
  903WAT     H2 2952   0.102   8.968   2.738
  904WAT      O 2953   3.197   3.449   0.936
  904WAT     H1 2954   3.189   3.410   0.845
  904WAT     H2 2955   3.106   3.477   0.969
  905WAT      O 2956   5.344   7.767   7.086
  905WAT     H1 2957   5.296   7.765   6.998
  905WAT     H2 2958   5.342   7.676   7.128
  906WAT      O 2959   6.953   9.488   4.042
  906WAT     H1 2960   6.954   9.486   4.142
  906WAT     H2 2961   6.990   9.575   4.010
  907WAT      O 2962   9.249   2.614   3.402
  907WAT     H1 2963   9.245   2.530   3.348
  907WAT     H2 2964   9.305   2.598   3.483
  908WAT      O 2965   7.532   6.822   7.077
  908WAT     H1 2966   7.517   6.732   7.117
  908WAT     H2 2967   7.616   6.862   7.114
  909WAT      O 2968   0.133   3.879   6.470
  909WAT     H1 2969   0.134   3.844   6.376
  909WAT     H2 2970   0.227   3.890   6.502
  910WAT      O 2971   1.383   6.267   3.846
  910WAT     H1 2972   1.452   6.219   3.900
  910WAT     H2 2973   1.375   6.224   3.756
  911WAT      O 2974   3.073   7.246   1.703
  911WAT     H1 2975   3.016   7.207   1.631
  911WAT     H2 2976   3.128   7.321   1.666
  912WAT      O 2977   7.939   7.473   8.515
  912WAT     H1 2978   8.019   7.497   8.459
  912WAT     H2 2979   7.863   7.532   8.489
  913WAT      O 2980   7.098   2.775   7.538
  913WAT     H1 2981   7.082   2.816   7.448
  913WAT     H2 2982   7.192   2.742   7.543
  914WAT      O 2983   9.044   7.910   8.401
  914WAT     H1 2984   9.070   7.813   8.406
  914WAT     H2 2985   9.059   7.953   8.490
  915WAT      O 2986   3.291   8.982   5.987
  915WAT     H1 2987   3.214   8.919   5.992
  915WAT     H2 2988   3.293   9.040   6.069
  916WAT      O 2989   8.425   8.382   4.943
  916WAT     H1 2990   8.365   8.448   4.898
  916WAT     H2 2991   8.500   8.359   4.881
  917WAT      O 2992   6.607   1.113   7.495
  917WAT     H1 2993   6.665   1.032   7.491
  917WAT     H2 2994   6.637   1.179   7.427
  918WAT      O 2995   1.574   8.158   7.276
  918WAT     H1 2996   1.602   8.092   7.207
  918WAT     H2 2997   1.486   8.199   7.249
  919WAT      O 2998   6.652   6.707   9.327
  919WAT     H1 2999   6.607   6.670   9.408
  919WAT     H2 3000   6.747   6.729   9.348
  920WAT      O 3001   0.593   7.663   4.219
  920WAT     H1 3002   0.566   7.760   4.216
  920WAT     H2 3003   0.603   7.629   4.125
  921WAT      O 3004   5.310   3.776   9.726
  921WAT     H1 3005   5.340   3.703   9.664
  921WAT     H2 3006   5.373   3.853   9.720
  922WAT      O 3007   3.536   1.033   9.582
  922WAT     H1 3008   3.467   0.967   9.551
  922WAT     H2 3009   3.495   1.124   9.589
  923WAT      O 3010   1.608   5.773   3.342
  923WAT     H1 3011   1.580   5.688   3.386
  923WAT     H2 3012   1.656   5.753   3.257
  924WAT      O 3013   9.824   3.060   8.880
  924WAT     H1 3014   9.776   3.067   8.793
  924WAT     H2 3015   9.764   3.091   8.954
  925WAT      O 3016   7.155   8.667   7.127
  925WAT     H1 3017   7.172   8.765   7.129
  925WAT     H2 3018   7.237   8.619   7.097
  926WAT      O 3019   9.040   3.158   2.635
  926WAT     H1 3020   9.039   3.186   2.731
  926WAT     H2 3021   8.994   3.228   2.580
  927WAT      O 3022   6.470   5.335   1.118
  927WAT     H1 3023   6.412   5.411   1.145
  927WAT     H2 3024   6.533   5.365   1.046
  928WAT      O 3025   8.179   7.203   3.475
  928WAT     H1 3026   8.209   7.123   3.527
  928WAT     H2 3027   8.084   7.225   3.500
  929WAT      O 3028   1.625   1.738   4.695
  929WAT     H1 3029   1.585   1.814   4.644
  929WAT     H2 3030   1.572   1.655   4.680
  930WAT      O 3031   6.498   0.635   4.892
  930WAT     H1 3032   6.414   0.685   4.915
  930WAT     H2 3033   6.549   0.616   4.976
  931WAT      O 3034   2.068   9.505   3.390
  931WAT     H1 3035   2.100   9.424   3.438
  931WAT     H2 3036   2.022   9.567   3.454
  932WAT      O 3037   2.120   5.532   0.324
  932WAT     H1 3038   2.165   5.579   0.400
  932WAT     H2 3039   2.027   5.507   0.350
  933WAT      O 3040   5.607   1.237   5.722
  933WAT     H1 3041   5.542   1.312   5.733
  933WAT     H2 3042   5.696   1.265   5.758
  934WAT      O 3043   4.814   0.556   0.251
  934WAT     H1 3044   4.910   0.529   0.236
  934WAT     H2 3045   4.784   0.524   0.341
  935WAT      O 3046   0.340   2.132   3.857
  935WAT     H1 3047   0.317   2.203   3.924
  935WAT     H2 3048   0.440   2.124   3.850
  936WAT      O 3049   9.057   1.645   0.765
  936WAT     H1 3050   9.152   1.614   0.759
  936WAT     H2 3051   9.043   1.692   0.853
  937WAT      O 3052   4.416   3.588   0.315
  937WAT     H1 3053   4.356   3.663   0.343
  937WAT     H2 3054   4.507   3.602   0.353
  938WAT      O 3055   8.295   2.609   7.074
  938WAT     H1 3056   8.257   2.651   6.992
  938WAT     H2 3057   8.393   2.592   7.060
  939WAT      O 3058   6.136   2.201   2.955
  939WAT     H1 3059   6.186   2.286   2.972
  939WAT     H2 3060   6.189   2.144   2.892
  940WAT      O 3061   6.642   1.668   4.164
  940WAT     H1 3062   6.554   1.713   4.168
  940WAT     H2 3063   6.672   1.661   4.069
  941WAT      O 3064   0.732   2.358   2.839
  941WAT     H1 3065   0.637   2.380   2.815
  941WAT     H2 3066   0.735   2.269   2.883
  942WAT      O 3067   1.706   6.458   7.553
  942WAT     H1 3068   1.722   6.485   7.458
  942WAT     H2 3069   1.763   6.379   7.575
  943WAT      O 3070   9.861   6.495   3.801
  943WAT     H1 3071   9.770   6.454   3.806
  943WAT     H2 3072   9.904   6.472   3.714
  944WAT      O 3073   8.958   4.676   8.064
  944WAT     H1 3074   8.865   4.658   8.033
  944WAT     H2 3075   9.004   4.737   8.000
  945WAT      O 3076   4.555   7.540   7.314
  945WAT     H1 3077   4.569   7.531   7.216
  945WAT     H2 3078   4.516   7.631   7.333
  946WAT      O 3079   0.456   8.813   5.049
  946WAT     H1 3080   0.427   8.900   5.010
  946WAT     H2 3081   0.499   8.830   5.138
  947WAT      O 3082   1.104   3.047   2.106
  947WAT     H1 3083   1.176   2.980   2.122
  947WAT     H2 3084   1.072   3.083   2.194
  948WAT      O 3085   9.069   0.540   2.706
  948WAT     H1 3086   9.098   0.476   2.634
  948WAT     H2 3087   8.971   0.529   2.723
  949WAT      O 3088   8.575   3.942   4.051
  949WAT     H1 3089   8.560   3.856   4.004
  949WAT     H2 3090   8.565   4.018   3.986
  950WAT      O 3091   3.798   0.119   4.568
  950WAT     H1 3092   3.729   0.185   4.538
  950WAT     H2 3093   3.883   0.167   4.589
  951WAT      O 3094   9.382   7.495   1.716
  951WAT     H1 3095   9.434   7.431   1.660
  951WAT     H2 3096   9.374   7.583   1.668
  952WAT      O 3097   2.338   3.204   1.558
  952WAT     H1 3098   2.404   3.180   1.486
  952WAT     H2 3099   2.366   3.161   1.644
  953WAT      O 3100   2.230   6.001   2.712
  953WAT     H1 3101   2.301   6.070   2.702
  953WAT     H2 3102   2.271   5.914   2.741
  954WAT      O 3103   8.270   5.189   0.640
  954WAT     H1 3104   8.256   5.233   0.551
  954WAT     H2 3105   8.283   5.259   0.710
  955WAT      O 3106   7.634   4.687   3.072
  955WAT     H1 3107   7.605   4.646   3.159
  955WAT     H2 3108   7.734   4.684   3.066
  956WAT      O 3109   9.669   3.999   2.084
  956WAT     H1 3110   9.607   3.923   2.103
  956WAT     H2 3111   9.636   4.050   2.004
  957WAT      O 3112   5.617   5.995   7.866
  957WAT     H1 3113   5.591   5.945   7.948
  957WAT     H2 3114   5.716   5.989   7.854
  958WAT      O 3115   4.799   2.034   9.153
  958WAT     H1 3116   4.743   2.000   9.077
  958WAT     H2 3117   4.779   1.981   9.236
  959WAT      O 3118   8.365   9.573   4.836
  959WAT     H1 3119   8.462   9.555   4.820
  959WAT     H2 3120   8.321   9.491   4.871
  960WAT      O 3121   1.370   7.271   4.446
  960WAT     H1 3122   1.375   7.282   4.545
  960WAT     H2 3123   1.295   7.327   4.410
  961WAT      O 3124   0.038   8.248   9.471
  961WAT     H1 3125  -0.048   8.201   9.451
  961WAT     H2 3126   0.100   8.240   9.393
  962WAT      O 3127   1.862   0.009   3.684
  962WAT     H1 3128   1.917   0.086   3.716
  962WAT     H2 3129   1.865  -0.064   3.753
  963WAT      O 3130   1.755   5.095   9.506
  963WAT     H1 3131   1.821   5.048   9.448
  963WAT     H2 3132   1.720   5.176   9.458
  964WAT      O 3133   9.134   0.556   9.475
  964WAT     H1 3134   9.041   0.591   9.486
  964WAT     H2 3135   9.157   0.551   9.378
  965WAT      O 3136   0.010   9.524   9.418
  965WAT     H1 3137   0.104   9.558   9.423
  965WAT     H2 3138  -0.009   9.466   9.497
  966WAT      O 3139   0.075   7.904   0.208
  966WAT     H1 3140   0.108   7.987   0.163
  966WAT     H2 3141   0.092   7.910   0.306
  967WAT      O 3142   4.791   6.759   5.978
  967WAT     H1 3143   4.801   6.770   6.076
  967WAT     H2 3144   4.698   6.784   5.950
  968WAT      O 3145   0.101   1.372   1.059
  968WAT     H1 3146   0.113   1.275   1.079
  968WAT     H2 3147   0.166   1.400   0.989
  969WAT      O 3148   4.338   4.043   1.632
  969WAT     H1 3149   4.277   4.121   1.649
  969WAT     H2 3150   4.366   4.003   1.720
  970WAT      O 3151   7.194   2.837   0.758
  970WAT     H1 3152   7.107   2.884   0.774
  970WAT     H2 3153   7.229   2.863   0.668
  971WAT      O 3154   7.986   5.383   1.396
  971WAT     H1 3155   8.038   5.345   1.320
  971WAT     H2 3156   7.984   5.317   1.471
  972WAT      O 3157   9.017   4.708   2.784
  972WAT     H1 3158   9.085   4.741   2.719
  972WAT     H2 3159   8.968   4.786   2.823
  973WAT      O 3160   1.194   1.284   4.776
  973WAT     H1 3161   1.170   1.286   4.679
  973WAT     H2 3162   1.224   1.192   4.801
  974WAT      O 3163   1.240   3.959   4.501
  974WAT     H1 3164   1.330   3.920   4.481
  974WAT     H2 3165   1.169   3.896   4.469
  975WAT      O 3166   2.554   1.713   8.561
  975WAT     H1 3167   2.512   1.656   8.632
  975WAT     H2 3168   2.509   1.695   8.474
  976WAT      O 3169   4.673   3.793   8.319
  976WAT     H1 3170   4.757   3.788   8.374
  976WAT     H2 3171   4.607   3.852   8.364
  977WAT      O 3172   0.378   7.989   2.253
  977WAT     H1 3173   0.426   7.974   2.339
  977WAT     H2 3174   0.292   7.939   2.253
  978WAT      O 3175   5.298   7.131   2.559
  978WAT     H1 3176   5.394   7.123   2.588
  978WAT     H2 3177   5.242   7.067   2.610
  979WAT      O 3178   6.092   4.554   6.324
  979WAT     H1 3179   6.077   4.467   6.277
  979WAT     H2 3180   6.190   4.575   6.324
  980WAT      O 3181   8.527   0.866   6.258
  980WAT     H1 3182   8.554   0.922   6.335
  980WAT     H2 3183   8.553   0.771   6.275
  981WAT      O 3184   1.065   8.692   2.191
  981WAT     H1 3185   0.977   8.652   2.220
  981WAT     H2 3186   1.122   8.708   2.272
  982WAT      O 3187   1.196   4.822   8.728
  982WAT     H1 3188   1.195   4.900   8.791
  982WAT     H2 3189   1.137   4.841   8.650
  983WAT      O 3190   2.471   0.864   7.921
  983WAT     H1 3191   2.522   0.840   8.004
  983WAT     H2 3192   2.427   0.781   7.885
  984WAT      O 3193   2.507   4.212   9.220
  984WAT     H1 3194   2.522   4.131   9.277
  984WAT     H2 3195   2.594   4.255   9.199
  985WAT      O 3196   3.514   1.828   7.745
  985WAT     H1 3197   3.473   1.840   7.835
  985WAT     H2 3198   3.590   1.763   7.752
  986WAT      O 3199   4.650   7.555   0.943
  986WAT     H1 3200   4.717   7.627   0.929
  986WAT     H2 3201   4.695   7.473   0.980
  987WAT      O 3202   1.234   0.342   6.890
  987WAT     H1 3203   1.330   0.324   6.870
  987WAT     H2 3204   1.226   0.428   6.941
  988WAT      O 3205   5.527   7.320   7.109
  988WAT     H1 3206   5.522   7.241   7.169
  988WAT     H2 3207   5.538   7.289   7.014
  989WAT      O 3208   3.415   8.318   7.958
  989WAT     H1 3209   3.345   8.263   7.914
  989WAT     H2 3210   3.399   8.320   8.057
  990WAT      O 3211   5.449   2.417   8.234
  990WAT     H1 3212   5.459   2.510   8.198
  990WAT     H2 3213   5.387   2.417   8.312
  991WAT      O 3214   5.344   6.237   4.358
  991WAT     H1 3215   5.244   6.236   4.355
  991WAT     H2 3216   5.380   6.280   4.275
  992WAT      O 3217   5.959   6.855   5.342
  992WAT     H1 3218   6.027   6.819   5.407
  992WAT     H2 3219   5.892   6.783   5.321
  993WAT      O 3220   9.534   5.787   3.249
  993WAT     H1 3221   9.447   5.836   3.236
  993WAT     H2 3222   9.532   5.740   3.338
  994WAT      O 3223   1.107   6.018   0.360
  994WAT     H1 3224   1.207   6.025   0.350
  994WAT     H2 3225   1.075   6.089   0.423
  995WAT      O 3226   8.268   4.338   8.022
  995WAT     H1 3227   8.206   4.392   8.079
  995WAT     H2 3228   8.269   4.374   7.929
  996WAT      O 3229   0.167   6.156   4.373
  996WAT     H1 3230   0.162   6.256   4.368
  996WAT     H2 3231   0.091   6.116   4.323
  997WAT      O 3232   8.431   5.932   7.607
  997WAT     H1 3233   8.445   6.014   7.663
  997WAT     H2 3234   8.343   5.938   7.560
  998WAT      O 3235   3.597   1.436   5.139
  998WAT     H1 3236   3.586   1.364   5.071
  998WAT     H2 3237   3.690   1.474   5.132
  999WAT      O 3238   4.992   6.664   7.147
  999WAT     H1 3239   4.975   6.762   7.149
  999WAT     H2 3240   4.987   6.627   7.240
 1000WAT      O 3241   4.984   7.500   5.290
 1000WAT     H1 3242   4.890   7.471   5.305
 1000WAT     H2 3243   5.045   7.446   5.348
 1001WAT      O 3244   0.106   1.668   9.529
 1001WAT     H1 3245   0.033   1.697   9.467
 1001WAT     H2 3246   0.082   1.579   9.569
 1002WAT      O 3247   3.386   0.668   8.325
 1002WAT     H1 3248   3.418   0.610   8.400
 1002WAT     H2 3249   3.405   0.764   8.347
 1003WAT      O 3250   6.529   1.914   1.819
 1003WAT     H1 3251   6.575   1.847   1.878
 1003WAT     H2 3252   6.448   1.872   1.778
 1004WAT      O 3253   1.341   3.362   7.069
 1004WAT     H1 3254   1.296   3.344   7.157
 1004WAT     H2 3255   1.284   3.327   6.995
 1005WAT      O 3256   3.969   2.290   3.277
 1005WAT     H1 3257   3.885   2.343   3.271
 1005WAT     H2 3258   4.025   2.324   3.353
 1006WAT      O 3259   7.046   5.215   7.274
 1006WAT     H1 3260   7.005   5.275   7.205
 1006WAT     H2 3261   7.053   5.264   7.361
 1007WAT      O 3262   7.502   6.897   8.210
 1007WAT     H1 3263   7.538   6.817   8.162
 1007WAT     H2 3264   7.577   6.947   8.253
 1008WAT      O 3265   3.536   2.283   9.392
 1008WAT     H1 3266   3.551   2.184   9.389
 1008WAT     H2 3267   3.462   2.307   9.329
 1009WAT      O 3268   6.024   1.903   6.186
 1009WAT     H1 3269   5.925   1.912   6.178
 1009WAT     H2 3270   6.046   1.820   6.238
 1010WAT      O 3271   6.806   7.397   1.066
 1010WAT     H1 3272   6.867   7.472   1.089
 1010WAT     H2 3273   6.858   7.323   1.024
 1011WAT      O 3274   9.072   6.191   7.922
 1011WAT     H1 3275   9.139   6.219   7.854
 1011WAT     H2 3276   9.000   6.138   7.878
 1012WAT      O 3277   9.286   5.559   0.104
 1012WAT     H1 3278   9.359   5.496   0.080
 1012WAT     H2 3279   9.226   5.517   0.171
 1013WAT      O 3280   4.408   4.232   0.928
 1013WAT     H1 3281   4.328   4.176   0.909
 1013WAT     H2 3282   4.489   4.191   0.886
 1014WAT      O 3283   2.590   2.502   7.637
 1014WAT     H1 3284   2.501   2.535   7.604
 1014WAT     H2 3285   2.587   2.493   7.736
 1015WAT      O 3286   5.646   8.064   6.227
 1015WAT     H1 3287   5.743   8.071   6.206
 1015WAT     H2 3288   5.592   8.085   6.145
 1016WAT      O 3289   9.575   5.924   2.223
 1016WAT     H1 3290   9.648   5.856   2.231
 1016WAT     H2 3291   9.523   5.906   2.140
 1017WAT      O 3292   3.940   5.382   9.257
 1017WAT     H1 3293   3.915   5.466   9.209
 1017WAT     H2 3294   4.038   5.382   9.275
 1018WAT      O 3295   7.793   8.338   2.145
 1018WAT     H1 3296   7.754   8.428   2.165
 1018WAT     H2 3297   7.865   8.348   2.076
 1019WAT      O 3298   6.931   8.266   6.041
 1019WAT     H1 3299   6.870   8.198   6.083
 1019WAT     H2 3300   6.967   8.230   5.955
 1020WAT      O 3301   2.498   9.084   2.180
 1020WAT     H1 3302   2.438   9.102   2.102
 1020WAT     H2 3303   2.558   9.007   2.159
 1021WAT      O 3304   6.458   8.322   7.367
 1021WAT     H1 3305   6.460   8.272   7.280
 1021WAT     H2 3306   6.545   8.309   7.415
 1022WAT      O 3307   8.206   2.708   6.590
 1022WAT     H1 3308   8.303   2.716   6.565
 1022WAT     H2 3309   8.166   2.629   6.544
 1023WAT      O 3310   6.059   2.445   8.050
 1023WAT     H1 3311   5.992   2.399   7.992
 1023WAT     H2 3312   6.013   2.482   8.131
 1024WAT      O 3313   0.993   7.239   4.471
 1024WAT     H1 3314   1.036   7.252   4.560
 1024WAT     H2 3315   0.905   7.192   4.482
 1025WAT      O 3316   8.438   3.727   7.192
 1025WAT     H1 3317   8.491   3.777   7.123
 1025WAT     H2 3318   8.344   3.715   7.160
 1026WAT      O 3319   8.684   1.189   3.308
 1026WAT     H1 3320   8.672   1.147   3.398
 1026WAT     H2 3321   8.771   1.239   3.305
 1027WAT      O 3322   0.020   7.477   6.982
 1027WAT     H1 3323   0.034   7.430   7.069
 1027WAT     H2 3324  -0.024   7.415   6.917
 1028WAT      O 3325   6.188   0.611   1.488
 1028WAT     H1 3326   6.102   0.560   1.497
 1028WAT     H2 3327   6.202   0.667   1.569
 1029WAT      O 3328   1.594   7.426   2.655
 1029WAT     H1 3329   1.514   7.428   2.714
 1029WAT     H2 3330   1.587   7.349   2.592
 1030WAT      O 3331   6.530   6.821   6.829
 1030WAT     H1 3332   6.470   6.897   6.805
 1030WAT     H2 3333   6.602   6.812   6.760
 1031WAT      O 3334   5.793   1.642   3.586
 1031WAT     H1 3335   5.730   1.672   3.658
 1031WAT     H2 3336   5.744   1.586   3.519
 1032WAT      O 3337   1.832   9.455   4.951
 1032WAT     H1 3338   1.828   9.393   4.873
 1032WAT     H2 3339   1.921   9.499   4.955
 1033WAT      O 3340   6.234   6.397   0.519
 1033WAT     H1 3341   6.227   6.391   0.419
 1033WAT     H2 3342   6.244   6.306   0.558
 1034WAT      O 3343   6.203   7.422   8.741
 1034WAT     H1 3344   6.187   7.362   8.662
 1034WAT     H2 3345   6.279   7.483   8.722
 1035WAT      O 3346   4.109   9.642   7.545
 1035WAT     H1 3347   4.209   9.646   7.556
 1035WAT     H2 3348   4.075   9.732   7.518
 1036WAT      O 3349   0.987   4.465   2.511
 1036WAT     H1 3350   0.950   4.446   2.420
 1036WAT     H2 3351   0.969   4.388   2.572
 1037WAT      O 3352   4.468   0.861   9.828
 1037WAT     H1 3353   4.529   0.884   9.904
 1037WAT     H2 3354   4.488   0.768   9.796
 1038WAT      O 3355   7.841   5.750   6.114
 1038WAT     H1 3356   7.839   5.765   6.015
 1038WAT     H2 3357   7.853   5.652   6.133
 1039WAT      O 3358   4.922   7.582   2.549
 1039WAT     H1 3359   4.971   7.500   2.579
 1039WAT     H2 3360   4.869   7.561   2.467
 1040WAT      O 3361   5.654   9.332   3.684
 1040WAT     H1 3362   5.562   9.333   3.643
 1040WAT     H2 3363   5.709   9.406   3.644
 1041WAT      O 3364   3.759   6.778   4.922
 1041WAT     H1 3365   3.702   6.857   4.903
 1041WAT     H2 3366   3.721   6.697   4.877
 1042WAT      O 3367   8.097   0.812   3.225
 1042WAT     H1 3368   8.156   0.891   3.243
 1042WAT     H2 3369   8.019   0.841   3.170
 1043WAT      O 3370   7.480   8.638   0.077
 1043WAT     H1 3371   7.482   8.572   0.002
 1043WAT     H2 3372   7.435   8.722   0.046
 1044WAT      O 3373   1.119   1.193   1.003
 1044WAT     H1 3374   1.124   1.167   0.907
 1044WAT     H2 3375   1.211   1.192   1.043
 1045WAT      O 3376   6.471   9.230   1.064
 1045WAT     H1 3377   6.454   9.132   1.072
 1045WAT     H2 3378   6.499   9.251   0.970
 1046WAT      O 3379   5.914   4.581   5.104
 1046WAT     H1 3380   5.971   4.650   5.148
 1046WAT     H2 3381   5.840   4.625   5.054
 1047WAT      O 3382   2.013   8.854   5.920
 1047WAT     H1 3383   1.960   8.779   5.958
 1047WAT     H2 3384   1.963   8.897   5.845
 1048WAT      O 3385   3.641   0.685   5.248
 1048WAT     H1 3386   3.616   0.588   5.259
 1048WAT     H2 3387   3.731   0.692   5.206
 1049WAT      O 3388   8.498   0.403   3.784
 1049WAT     H1 3389   8.588   0.382   3.822
 1049WAT     H2 3390   8.446   0.319   3.773
 1050WAT      O 3391   2.483   5.270   9.221
 1050WAT     H1 3392   2.565   5.306   9.265
 1050WAT     H2 3393   2.428   5.220   9.288
 1051WAT      O 3394   0.803   3.975   5.603
 1051WAT     H1 3395   0.802   4.073   5.586
 1051WAT     H2 3396   0.880   3.934   5.553
 1052WAT      O 3397   9.413   2.434   1.255
 1052WAT     H1 3398   9.336   2.473   1.204
 1052WAT     H2 3399   9.440   2.497   1.327
 1053WAT      O 3400   8.632   1.978   5.785
 1053WAT     H1 3401   8.669   1.920   5.712
 1053WAT     H2 3402   8.683   2.064   5.788
 1054WAT      O 3403   2.211   7.471   9.574
 1054WAT     H1 3404   2.274   7.523   9.515
 1054WAT     H2 3405   2.249   7.467   9.666
 1055WAT      O 3406   1.082   0.076   3.839
 1055WAT     H1 3407   1.053   0.171   3.838
 1055WAT     H2 3408   1.045   0.030   3.920
 1056WAT      O 3409   8.383   6.298   4.852
 1056WAT     H1 3410   8.412   6.252   4.769
 1056WAT     H2 3411   8.347   6.231   4.917
 1057WAT      O 3412   9.107   4.177   3.401
 1057WAT     H1 3413   9.196   4.160   3.443
 1057WAT     H2 3414   9.095   4.116   3.323
 1058WAT      O 3415   7.119   3.967   5.534
 1058WAT     H1 3416   7.092   4.033   5.604
 1058WAT     H2 3417   7.174   4.012   5.464
 1059WAT      O 3418   1.371   1.493   6.076
 1059WAT     H1 3419   1.341   1.588   6.085
 1059WAT     H2 3420   1.443   1.488   6.007
 1060WAT      O 3421   2.997   5.517   8.948
 1060WAT     H1 3422   3.033   5.592   8.892
 1060WAT     H2 3423   2.898   5.521   8.949
 1061WAT      O 3424   0.998   6.616   1.383
 1061WAT     H1 3425   0.957   6.658   1.302
 1061WAT     H2 3426   0.930   6.610   1.456
 1062WAT      O 3427   2.790   3.796   8.353
 1062WAT     H1 3428   2.767   3.829   8.445
 1062WAT     H2 3429   2.881   3.827   8.327
 1063WAT      O 3430   1.348   0.686   4.844
 1063WAT     H1 3431   1.292   0.743   4.904
 1063WAT     H2 3432   1.379   0.740   4.765
 1064WAT      O 3433   0.238   9.687   4.374
 1064WAT     H1 3434   0.299   9.631   4.430
 1064WAT     H2 3435   0.145   9.652   4.380
 1065WAT      O 3436   5.414   3.884   8.595
 1065WAT     H1 3437   5.316   3.902   8.598
 1065WAT     H2 3438   5.464   3.965   8.626
 1066WAT      O 3439   2.554   1.580   3.472
 1066WAT     H1 3440   2.474   1.637   3.454
 1066WAT     H2 3441   2.535   1.486   3.444
 1067WAT      O 3442   5.821   2.706   8.545
 1067WAT     H1 3443   5.892   2.758   8.498
 1067WAT     H2 3444   5.764   2.768   8.598
 1068WAT      O 3445   0.455   4.186   5.316
 1068WAT     H1 3446   0.524   4.168   5.246
 1068WAT     H2 3447   0.493   4.248   5.385
 1069WAT      O 3448   9.338   3.707   6.830
 1069WAT     H1 3449   9.334   3.630   6.766
 1069WAT     H2 3450   9.395   3.779   6.792
 1070WAT      O 3451   9.738   9.050   7.208
 1070WAT     H1 3452   9.783   8.984   7.269
 1070WAT     H2 3453   9.641   9.028   7.201
 1071WAT      O 3454   6.157   3.953   6.083
 1071WAT     H1 3455   6.172   3.962   5.985
 1071WAT     H2 3456   6.087   4.018   6.112
 1072WAT      O 3457   7.498   9.365   2.092
 1072WAT     H1 3458   7.590   9.332   2.074
 1072WAT     H2 3459   7.431   9.298   2.058
 1073WAT      O 3460   8.842   2.701   0.782
 1073WAT     H1 3461   8.828   2.644   0.700
 1073WAT     H2 3462   8.930   2.679   0.824
 1074WAT      O 3463   5.045   4.340   2.293
 1074WAT     H1 3464   4.947   4.321   2.286
 1074WAT     H2 3465   5.063   4.389   2.378
 1075WAT      O 3466   7.599   1.368   4.665
 1075WAT     H1 3467   7.529   1.331   4.726
 1075WAT     H2 3468   7.607   1.310   4.584
 1076WAT      O 3469   3.682   3.523   8.264
 1076WAT     H1 3470   3.659   3.619   8.281
 1076WAT     H2 3471   3.753   3.518   8.193
 1077WAT      O 3472   6.544   6.743   8.776
 1077WAT     H1 3473   6.469   6.700   8.826
 1077WAT     H2 3474   6.538   6.718   8.679
 1078WAT      O 3475   2.016   5.275   4.421
 1078WAT     H1 3476   2.102   5.321   4.399
 1078WAT     H2 3477   1.943   5.310   4.362
 1079WAT      O 3478   3.541   9.089   7.783
 1079WAT     H1 3479   3.546   9.036   7.867
 1079WAT     H2 3480   3.589   9.040   7.710
 1080WAT      O 3481   9.529   1.349   2.067
 1080WAT     H1 3482   9.602   1.395   2.017
 1080WAT     H2 3483   9.527   1.382   2.161
 1081WAT      O 3484   1.147   1.291   0.398
 1081WAT     H1 3485   1.159   1.361   0.468
 1081WAT     H2 3486   1.090   1.217   0.434
 1082WAT      O 3487   8.257   1.458   8.867
 1082WAT     H1 3488   8.182   1.417   8.814
 1082WAT     H2 3489   8.336   1.473   8.807
 1083WAT      O 3490   8.545   3.685   3.920
 1083WAT     H1 3491   8.458   3.642   3.946
 1083WAT     H2 3492   8.618   3.617   3.925
 1084WAT      O 3493   3.995   5.099   5.139
 1084WAT     H1 3494   4.000   5.011   5.185
 1084WAT     H2 3495   4.074   5.155   5.165
 1085WAT      O 3496   1.601   7.439   5.888
 1085WAT     H1 3497   1.580   7.498   5.811
 1085WAT     H2 3498   1.551   7.353   5.880
 1086WAT      O 3499   3.048   2.164   0.810
 1086WAT     H1 3500   3.146   2.171   0.790
 1086WAT     H2 3501   3.032   2.193   0.904
 1087WAT      O 3502   7.710   6.718   5.924
 1087WAT     H1 3503   7.716   6.760   6.015
 1087WAT     H2 3504   7.802   6.705   5.888
 1088WAT      O 3505   9.108   9.259   4.735
 1088WAT     H1 3506   9.189   9.205   4.760
 1088WAT     H2 3507   9.089   9.247   4.637
 1089WAT      O 3508   1.214   9.641   5.232
 1089WAT     H1 3509   1.287   9.585   5.271
 1089WAT     H2 3510   1.145   9.581   5.191
 1090WAT      O 3511   3.900   7.109   4.190
 1090WAT     H1 3512   3.966   7.039   4.161
 1090WAT     H2 3513   3.854   7.079   4.274
 1091WAT      O 3514   5.487   3.179   5.519
 1091WAT     H1 3515   5.470   3.108   5.588
 1091WAT     H2 3516   5.454   3.267   5.553
 1092WAT      O 3517   7.620   6.461   6.210
 1092WAT     H1 3518   7.558   6.390   6.176
 1092WAT     H2 3519   7.568   6.539   6.242
 1093WAT      O 3520   4.669   9.600   0.073
 1093WAT     H1 3521   4.713   9.650   0.148
 1093WAT     H2 3522   4.739   9.554   0.019
 1094WAT      O 3523   7.444   2.970   5.396
 1094WAT     H1 3524   7.434   3.035   5.472
 1094WAT     H2 3525   7.396   2.885   5.419
 1095WAT      O 3526   3.903   4.178   3.179
 1095WAT     H1 3527   3.865   4.202   3.090
 1095WAT     H2 3528   3.981   4.237   3.199
 1096WAT      O 3529   0.873   2.253   4.967
 1096WAT     H1 3530   0.813   2.192   5.019
 1096WAT     H2 3531   0.839   2.347   4.973
 1097WAT      O 3532   5.303   6.782   7.304
 1097WAT     H1 3533   5.366   6.727   7.250
 1097WAT     H2 3534   5.270   6.729   7.382
 1098WAT      O 3535   6.373   8.076   6.895
 1098WAT     H1 3536   6.454   8.048   6.843
 1098WAT     H2 3537   6.291   8.042   6.850
 1099WAT      O 3538   6.580   5.726   5.142
 1099WAT     H1 3539   6.650   5.695   5.206
 1099WAT     H2 3540   6.504   5.660   5.142
 1100WAT      O 3541   5.671   0.341   0.651
 1100WAT     H1 3542   5.615   0.300   0.723
 1100WAT     H2 3543   5.659   0.440   0.652
 1101WAT      O 3544   8.446   3.287   6.236
 1101WAT     H1 3545   8.394   3.239   6.307
 1101WAT     H2 3546   8.535   3.315   6.272
 1102WAT      O 3547   8.914   7.286   8.075
 1102WAT     H1 3548   8.940   7.304   7.981
 1102WAT     H2 3549   8.946   7.195   8.102
 1103WAT      O 3550   8.214   9.146   2.187
 1103WAT     H1 3551   8.276   9.223   2.207
 1103WAT     H2 3552   8.236   9.070   2.249
 1104WAT      O 3553   0.789   0.534   2.426
 1104WAT     H1 3554   0.813   0.533   2.524
 1104WAT     H2 3555   0.754   0.625   2.403
 1105WAT      O 3556   4.472   1.825   0.138
 1105WAT     H1 3557   4.522   1.875   0.208
 1105WAT     H2 3558   4.376   1.855   0.138
 1106WAT      O 3559   3.327   8.730   4.259
 1106WAT     H1 3560   3.389   8.701   4.185
 1106WAT     H2 3561   3.252   8.783   4.221
 1107WAT      O 3562   0.168   4.533   6.436
 1107WAT     H1 3563   0.106   4.600   6.394
 1107WAT     H2 3564   0.200   4.568   6.524
 1108WAT      O 3565   4.860   5.306   8.055
 1108WAT     H1 3566   4.770   5.302   8.012
 1108WAT     H2 3567   4.859   5.377   8.126
 1109WAT      O 3568   2.534   7.596   6.057
 1109WAT     H1 3569   2.558   7.689   6.083
 1109WAT     H2 3570   2.540   7.587   5.957
 1110WAT      O 3571   3.399   3.631   3.340
 1110WAT     H1 3572   3.457   3.591   3.268
 1110WAT     H2 3573   3.453   3.699   3.391
 1111WAT      O 3574   5.229   9.114   2.856
 1111WAT     H1 3575   5.250   9.034   2.912
 1111WAT     H2 3576   5.197   9.188   2.916
 1112WAT      O 3577   7.113   4.936   4.789
 1112WAT     H1 3578   7.086   4.979   4.875
 1112WAT     H2 3579   7.043   4.954   4.720
 1113WAT      O 3580   7.988   9.194   8.100
 1113WAT     H1 3581   7.929   9.138   8.042
 1113WAT     H2 3582   8.059   9.237   8.045
 1114WAT      O 3583   7.130   0.199   9.655
 1114WAT     H1 3584   7.037   0.187   9.689
 1114WAT     H2 3585   7.191   0.133   9.699
 1115WAT      O 3586   9.176   3.958   0.629
 1115WAT     H1 3587   9.142   4.033   0.573
 1115WAT     H2 3588   9.099   3.916   0.678
 1116WAT      O 3589   2.385   2.652   2.725
 1116WAT     H1 3590   2.374   2.685   2.631
 1116WAT     H2 3591   2.431   2.564   2.725
 1117WAT      O 3592   0.794   6.725   0.739
 1117WAT     H1 3593   0.742   6.703   0.822
 1117WAT     H2 3594   0.819   6.821   0.740
 1118WAT      O 3595   6.119   6.088   7.378
 1118WAT     H1 3596   6.143   6.088   7.281
 1118WAT     H2 3597   6.203   6.095   7.433
 1119WAT      O 3598   3.688   2.419   4.785
 1119WAT     H1 3599   3.774   2.371   4.802
 1119WAT     H2 3600   3.612   2.362   4.814
 1120WAT      O 3601   5.805   8.751   0.829
 1120WAT     H1 3602   5.845   8.825   0.775
 1120WAT     H2 3603   5.716   8.781   0.864
 1121WAT      O 3604   2.336   9.806   5.418
 1121WAT     H1 3605   2.261   9.757   5.373
 1121WAT     H2 3606   2.346   9.897   5.377
 1122WAT      O 3607   4.261   0.305   3.488
 1122WAT     H1 3608   4.202   0.379   3.454
 1122WAT     H2 3609   4.204   0.234   3.530
 1123WAT      O 3610   3.011   8.397   8.585
 1123WAT     H1 3611   2.999   8.303   8.553
 1123WAT     H2 3612   2.965   8.460   8.523
 1124WAT      O 3613   7.504   3.920   9.889
 1124WAT     H1 3614   7.455   3.836   9.915
 1124WAT     H2 3615   7.478   3.945   9.796
 1125WAT      O 3616   3.701   1.257   6.193
 1125WAT     H1 3617   3.615   1.309   6.201
 1125WAT     H2 3618   3.720   1.240   6.097
 1126WAT      O 3619   4.570   5.126   1.295
 1126WAT     H1 3620   4.661   5.108   1.256
 1126WAT     H2 3621   4.580   5.185   1.376
 1127WAT      O 3622   1.626   1.927   9.767
 1127WAT     H1 3623   1.635   2.026   9.773
 1127WAT     H2 3624   1.566   1.894   9.839
 1128WAT      O 3625   2.954   8.596   8.964
 1128WAT     H1 3626   2.998   8.677   9.003
 1128WAT     H2 3627   2.949   8.524   9.034
 1129WAT      O 3628   9.509   2.340   4.158
 1129WAT     H1 3629   9.607   2.356   4.170
 1129WAT     H2 3630   9.457   2.404   4.214
 1130WAT      O 3631   9.082   5.623   8.625
 1130WAT     H1 3632   9.116   5.545   8.678
 1130WAT     H2 3633   9.106   5.708   8.672
 1131WAT      O 3634   3.732   5.677   0.304
 1131WAT     H1 3635   3.699   5.722   0.387
 1131WAT     H2 3636   3.789   5.599   0.328
 1132WAT      O 3637   1.690   2.527   7.482
 1132WAT     H1 3638   1.762   2.547   7.415
 1132WAT     H2 3639   1.662   2.431   7.473
 1133WAT      O 3640   8.932   0.842   2.891
 1133WAT     H1 3641   8.837   0.814   2.904
 1133WAT     H2 3642   8.953   0.841   2.793
 1134WAT      O 3643   3.955   6.034   8.692
 1134WAT     H1 3644   3.989   6.066   8.781
 1134WAT     H2 3645   3.996   5.946   8.670
 1135WAT      O 3646   3.249   9.821   0.666
 1135WAT     H1 3647   3.238   9.840   0.568
 1135WAT     H2 3648   3.170   9.858   0.715
 1136WAT      O 3649   5.879   1.798   0.875
 1136WAT     H1 3650   5.871   1.733   0.800
 1136WAT     H2 3651   5.973   1.798   0.909
 1137WAT      O 3652   3.772   9.157   0.134
 1137WAT     H1 3653   3.813   9.248   0.136
 1137WAT     H2 3654   3.673   9.165   0.143
 1138WAT      O 3655   9.757   0.276   6.474
 1138WAT     H1 3656   9.709   0.242   6.555
 1138WAT     H2 3657   9.743   0.374   6.466
 1139WAT      O 3658   4.439   3.169   7.751
 1139WAT     H1 3659   4.377   3.090   7.758
 1139WAT     H2 3660   4.447   3.213   7.840
 1140WAT      O 3661   4.971   4.415   7.691
 1140WAT     H1 3662   4.998   4.505   7.725
 1140WAT     H2 3663   4.985   4.347   7.763
 1141WAT      O 3664   9.085   3.638   3.931
 1141WAT     H1 3665   8.995   3.644   3.888
 1141WAT     H2 3666   9.098   3.716   3.992
 1142WAT      O 3667   3.410   8.359   8.808
 1142WAT     H1 3668   3.440   8.391   8.718
 1142WAT     H2 3669   3.319   8.395   8.828
 1143WAT      O 3670   0.490   7.241   3.527
 1143WAT     H1 3671   0.573   7.237   3.583
 1143WAT     H2 3672   0.447   7.151   3.524
 1144WAT      O 3673   2.433   1.292   5.293
 1144WAT     H1 3674   2.495   1.290   5.371
 1144WAT     H2 3675   2.343   1.325   5.322
 1145WAT      O 3676   7.014   6.533   8.259
 1145WAT     H1 3677   7.089   6.533   8.193
 1145WAT     H2 3678   7.049   6.513   8.350
 1146WAT      O 3679   1.454   7.675   8.605
 1146WAT     H1 3680   1.512   7.754   8.588
 1146WAT     H2 3681   1.472   7.605   8.536
 1147WAT      O 3682   0.706   5.303   8.927
 1147WAT     H1 3683   0.663   5.367   8.863
 1147WAT     H2 3684   0.699   5.210   8.891
 1148WAT      O 3685   7.679   6.356   6.454
 1148WAT     H1 3686   7.673   6.395   6.362
 1148WAT     H2 3687   7.645   6.423   6.521
 1149WAT      O 3688   0.072   4.053   6.804
 1149WAT     H1 3689   0.038   4.020   6.892
 1149WAT     H2 3690   0.123   3.980   6.759
 1150WAT      O 3691   1.648   0.711   0.799
 1150WAT     H1 3692   1.731   0.661   0.775
 1150WAT     H2 3693   1.610   0.755   0.717
 1151WAT      O 3694   7.307   1.803   8.077
 1151WAT     H1 3695   7.271   1.744   8.149
 1151WAT     H2 3696   7.253   1.887   8.072
 1152WAT      O 3697   9.196   8.324   9.783
 1152WAT     H1 3698   9.272   8.376   9.743
 1152WAT     H2 3699   9.188   8.348   9.880
 1153WAT      O 3700   5.980   8.626   2.789
 1153WAT     H1 3701   6.003   8.532   2.763
 1153WAT     H2 3702   6.032   8.651   2.870
 1154WAT      O 3703   0.332   5.434   0.948
 1154WAT     H1 3704   0.258   5.386   0.901
 1154WAT     H2 3705   0.310   5.532   0.952
 1155WAT      O 3706   5.104   6.268   8.230
 1155WAT     H1 3707   5.178   6.201   8.231
 1155WAT     H2 3708   5.062   6.271   8.321
 1156WAT      O 3709   3.510   2.431   0.888
 1156WAT     H1 3710   3.553   2.466   0.805
 1156WAT     H2 3711   3.577   2.377   0.939
 1157WAT      O 3712   3.858   5.598   7.926
 1157WAT     H1 3713   3.849   5.698   7.925
 1157WAT     H2 3714   3.847   5.564   8.019
 1158WAT      O 3715   5.958   3.314   8.289
 1158WAT     H1 3716   6.002   3.403   8.303
 1158WAT     H2 3717   5.859   3.323   8.304
 1159WAT      O 3718   9.527   8.115   8.117
 1159WAT     H1 3719   9.477   8.030   8.095
 1159WAT     H2 3720   9.604   8.126   8.055
 1160WAT      O 3721   0.772   5.337   5.168
 1160WAT     H1 3722   0.690   5.282   5.154
 1160WAT     H2 3723   0.745   5.431   5.190
 1161WAT      O 3724   5.491   5.147   4.935
 1161WAT     H1 3725   5.518   5.231   4.889
 1161WAT     H2 3726   5.404   5.115   4.898
 1162WAT      O 3727   4.807   7.604   4.342
 1162WAT     H1 3728   4.906   7.612   4.349
 1162WAT     H2 3729   4.776   7.643   4.255
 1163WAT      O 3730   2.463   4.046   1.992
 1163WAT     H1 3731   2.387   3.993   2.028
 1163WAT     H2 3732   2.489   4.116   2.058
 1164WAT      O 3733   9.173   2.349   6.327
 1164WAT     H1 3734   9.153   2.323   6.233
 1164WAT     H2 3735   9.263   2.392   6.332
 1165WAT      O 3736   7.747   1.394   1.536
 1165WAT     H1 3737   7.749   1.305   1.490
 1165WAT     H2 3738   7.675   1.394   1.606
 1166WAT      O 3739   9.553   4.783   1.234
 1166WAT     H1 3740   9.571   4.686   1.247
 1166WAT     H2 3741   9.546   4.828   1.323
 1167WAT      O 3742   4.355   1.438   0.038
 1167WAT     H1 3743   4.386   1.443  -0.057
 1167WAT     H2 3744   4.337   1.342   0.062
 1168WAT      O 3745   8.550   4.835   0.043
 1168WAT     H1 3746   8.472   4.775   0.063
 1168WAT     H2 3747   8.517   4.927   0.021
 1169WAT      O 3748   9.132   1.092   1.223
 1169WAT     H1 3749   9.057   1.053   1.169
 1169WAT     H2 3750   9.126   1.192   1.220
 1170WAT      O 3751   0.077   7.100   2.936
 1170WAT     H1 3752   0.136   7.106   2.855
 1170WAT     H2 3753   0.124   7.142   3.014
 1171WAT      O 3754   0.775   5.832   9.888
 1171WAT     H1 3755   0.854   5.884   9.920
 1171WAT     H2 3756   0.793   5.797   9.796
 1172WAT      O 3757   3.528   9.102   7.237
 1172WAT     H1 3758   3.500   9.170   7.170
 1172WAT     H2 3759   3.616   9.064   7.211
 1173WAT      O 3760   5.722   7.705   5.678
 1173WAT     H1 3761   5.775   7.767   5.620
 1173WAT     H2 3762   5.763   7.614   5.675
 1174WAT      O 3763   8.087   2.485   4.818
 1174WAT     H1 3764   8.072   2.547   4.895
 1174WAT     H2 3765   8.133   2.402   4.851
 1175WAT      O 3766   1.063   1.207   5.742
 1175WAT     H1 3767   1.069   1.119   5.696
 1175WAT     H2 3768   0.971   1.221   5.776
 1176WAT      O 3769   1.183   9.152   5.621
 1176WAT     H1 3770   1.090   9.115   5.617
 1176WAT     H2 3771   1.223   9.151   5.530
 1177WAT      O 3772   0.900   7.991   5.806
 1177WAT     H1 3773   0.941   8.078   5.781
 1177WAT     H2 3774   0.932   7.963   5.897
 1178WAT      O 3775   3.302   2.939   6.753
 1178WAT     H1 3776   3.234   2.868   6.738
 1178WAT     H2 3777   3.258   3.028   6.752
 1179WAT      O 3778   2.846   0.048   9.327
 1179WAT     H1 3779   2.826  -0.047   9.304
 1179WAT     H2 3780   2.822   0.107   9.249
 1180WAT      O 3781   3.966   7.788   3.212
 1180WAT     H1 3782   3.867   7.787   3.194
 1180WAT     H2 3783   4.014   7.813   3.128
 1181WAT      O 3784   2.028   0.471   6.073
 1181WAT     H1 3785   2.071   0.463   6.163
 1181WAT     H2 3786   1.929   0.470   6.083
 1182WAT      O 3787   8.371   4.472   0.998
 1182WAT     H1 3788   8.279   4.512   0.990
 1182WAT     H2 3789   8.378   4.394   0.936
 1183WAT      O 3790   2.367   8.980   2.601
 1183WAT     H1 3791   2.294   9.012   2.661
 1183WAT     H2 3792   2.416   9.059   2.564
 1184WAT      O 3793   6.309   1.490   2.342
 1184WAT     H1 3794   6.279   1.403   2.302
 1184WAT     H2 3795   6.236   1.558   2.334
 1185WAT      O 3796   9.441   6.757   8.074
 1185WAT     H1 3797   9.346   6.728   8.067
 1185WAT     H2 3798   9.453   6.814   8.155
 1186WAT      O 3799   0.157   6.975   5.144
 1186WAT     H1 3800   0.075   7.024   5.175
 1186WAT     H2 3801   0.187   6.912   5.216
 1187WAT      O 3802   0.989   2.969   6.506
 1187WAT     H1 3803   1.028   3.060   6.523
 1187WAT     H2 3804   1.007   2.943   6.411
 1188WAT      O 3805   0.572   8.010   2.441
 1188WAT     H1 3806   0.660   7.974   2.410
 1188WAT     H2 3807   0.569   8.109   2.427
 1189WAT      O 3808   4.755   8.990   3.305
 1189WAT     H1 3809   4.793   9.056   3.369
 1189WAT     H2 3810   4.769   8.897   3.341
 1190WAT      O 3811   1.755   6.353   1.194
 1190WAT     H1 3812   1.845   6.386   1.165
 1190WAT     H2 3813   1.758   6.253   1.204
 1191WAT      O 3814   1.882   4.650   5.264
 1191WAT     H1 3815   1.931   4.734   5.286
 1191WAT     H2 3816   1.948   4.575   5.254
 1192WAT      O 3817   8.784   7.213   3.673
 1192WAT     H1 3818   8.819   7.272   3.600
 1192WAT     H2 3819   8.835   7.127   3.674
 1193WAT      O 3820   1.385   4.854   7.828
 1193WAT     H1 3821   1.462   4.859   7.765
 1193WAT     H2 3822   1.418   4.859   7.922
 1194WAT      O 3823   7.634   0.643   4.295
 1194WAT     H1 3824   7.696   0.711   4.256
 1194WAT     H2 3825   7.685   0.580   4.354
 1195WAT      O 3826   5.956   1.708   4.961
 1195WAT     H1 3827   5.913   1.696   4.871
 1195WAT     H2 3828   6.055   1.715   4.950
 1196WAT      O 3829   3.905   0.371   8.109
 1196WAT     H1 3830   3.933   0.400   8.017
 1196WAT     H2 3831   3.848   0.289   8.102
 1197WAT      O 3832   0.827   7.396   2.608
 1197WAT     H1 3833   0.821   7.424   2.512
 1197WAT     H2 3834   0.737   7.404   2.651
 1198WAT      O 3835   4.986   8.142   0.121
 1198WAT     H1 3836   4.969   8.168   0.216
 1198WAT     H2 3837   4.927   8.064   0.097
 1199WAT      O 3838   3.217   1.453   2.562
 1199WAT     H1 3839   3.212   1.468   2.463
 1199WAT     H2 3840   3.235   1.540   2.608
 1200WAT      O 3841   5.119   2.389   2.400
 1200WAT     H1 3842   5.055   2.338   2.457
 1200WAT     H2 3843   5.069   2.460   2.350
 1201WAT      O 3844   8.352   3.405   7.025
 1201WAT     H1 3845   8.318   3.336   7.089
 1201WAT     H2 3846   8.279   3.471   7.006
 1202WAT      O 3847   5.133   0.712   3.362
 1202WAT     H1 3848   5.091   0.712   3.272
 1202WAT     H2 3849   5.209   0.777   3.364
 1203WAT      O 3850   1.343   4.083   1.166
 1203WAT     H1 3851   1.384   4.173   1.176
 1203WAT     H2 3852   1.254   4.081   1.213
 1204WAT      O 3853   0.105   4.659   3.431
 1204WAT     H1 3854   0.048   4.591   3.477
 1204WAT     H2 3855   0.099   4.746   3.479
 1205WAT      O 3856   4.952   9.030   6.761
 1205WAT     H1 3857   4.940   8.944   6.810
 1205WAT     H2 3858   4.863   9.073   6.747
 1206WAT      O 3859   9.307   8.676   3.370
 1206WAT     H1 3860   9.262   8.712   3.452
 1206WAT     H2 3861   9.259   8.709   3.289
 1207WAT      O 3862   1.065   6.108   9.125
 1207WAT     H1 3863   1.070   6.061   9.213
 1207WAT     H2 3864   0.975   6.090   9.083
 1208WAT      O 3865   4.044   0.355   8.371
 1208WAT     H1 3866   3.995   0.280   8.414
 1208WAT     H2 3867   3.989   0.393   8.297
 1209WAT      O 3868   9.113   8.077   3.245
 1209WAT     H1 3869   9.059   8.060   3.163
 1209WAT     H2 3870   9.199   8.028   3.239
 1210WAT      O 3871   7.792   2.226   6.855
 1210WAT     H1 3872   7.766   2.218   6.951
 1210WAT     H2 3873   7.719   2.188   6.797
 1211WAT      O 3874   5.311   0.501   4.639
 1211WAT     H1 3875   5.250   0.549   4.703
 1211WAT     H2 3876   5.405   0.508   4.671
 1212WAT      O 3877   4.398   0.452   0.640
 1212WAT     H1 3878   4.316   0.510   0.647
 1212WAT     H2 3879   4.372   0.362   0.605
 1213WAT      O 3880   8.805   4.759   1.634
 1213WAT     H1 3881   8.755   4.681   1.597
 1213WAT     H2 3882   8.743   4.836   1.645
 1214WAT      O 3883   6.674   4.831   3.848
 1214WAT     H1 3884   6.683   4.929   3.837
 1214WAT     H2 3885   6.763   4.791   3.870
 1215WAT      O 3886   2.273   1.530   3.333
 1215WAT     H1 3887   2.225   1.486   3.257
 1215WAT     H2 3888   2.222   1.516   3.417
 1216WAT      O 3889   4.094   7.876   1.690
 1216WAT     H1 3890   4.020   7.917   1.636
 1216WAT     H2 3891   4.099   7.778   1.671
 1217WAT      O 3892   1.116   1.019   9.888
 1217WAT     H1 3893   1.044   1.046   9.824
 1217WAT     H2 3894   1.088   0.937   9.937
 1218WAT      O 3895   5.139   5.385   7.666
 1218WAT     H1 3896   5.086   5.303   7.644
 1218WAT     H2 3897   5.123   5.412   7.761
 1219WAT      O 3898   6.829   7.162   2.530
 1219WAT     H1 3899   6.833   7.238   2.465
 1219WAT     H2 3900   6.736   7.153   2.565
 1220WAT      O 3901   6.846   9.160   1.098
 1220WAT     H1 3902   6.912   9.206   1.159
 1220WAT     H2 3903   6.824   9.220   1.022
 1221WAT      O 3904   3.078   6.211   5.063
 1221WAT     H1 3905   3.120   6.263   5.138
 1221WAT     H2 3906   3.133   6.129   5.046
 1222WAT      O 3907   5.393   7.964   4.461
 1222WAT     H1 3908   5.399   7.988   4.364
 1222WAT     H2 3909   5.401   7.865   4.471
 1223WAT      O 3910   2.643   8.052   9.504
 1223WAT     H1 3911   2.667   8.127   9.442
 1223WAT     H2 3912   2.713   8.043   9.574
 1224WAT      O 3913   3.600   0.683   1.340
 1224WAT     H1 3914   3.597   0.594   1.385
 1224WAT     H2 3915   3.540   0.747   1.388
 1225WAT      O 3916   2.270   9.070   8.714
 1225WAT     H1 3917   2.284   9.159   8.672
 1225WAT     H2 3918   2.238   9.083   8.808
 1226WAT      O 3919   9.187   6.861   1.227
 1226WAT     H1 3920   9.122   6.894   1.296
 1226WAT     H2 3921   9.214   6.937   1.168
 1227WAT      O 3922   3.197   3.967   2.097
 1227WAT     H1 3923   3.206   3.896   2.027
 1227WAT     H2 3924   3.287   4.006   2.116
 1228WAT      O 3925   9.303   1.991   1.788
 1228WAT     H1 3926   9.315   2.065   1.721
 1228WAT     H2 3927   9.378   1.926   1.779
 1229WAT      O 3928   5.766   6.668   1.634
 1229WAT     H1 3929   5.740   6.674   1.538
 1229WAT     H2 3930   5.840   6.733   1.653
 1230WAT      O 3931   7.578   9.141   7.887
 1230WAT     H1 3932   7.490   9.185   7.905
 1230WAT     H2 3933   7.621   9.183   7.807
 1231WAT      O 3934   4.949   5.212   9.160
 1231WAT     H1 3935   4.999   5.299   9.154
 1231WAT     H2 3936   5.000   5.149   9.218
 1232WAT      O 3937   3.756   8.648   0.428
 1232WAT     H1 3938   3.689   8.589   0.383
 1232WAT     H2 3939   3.738   8.743   0.404
 1233WAT      O 3940   2.962   7.699   3.132
 1233WAT     H1 3941   2.944   7.604   3.158
 1233WAT     H2 3942   2.878   7.741   3.097
 1234WAT      O 3943   4.170   0.626   4.887
 1234WAT     H1 3944   4.255   0.650   4.841
 1234WAT     H2 3945   4.172   0.658   4.981
 1235WAT      O 3946   0.708   1.046   5.198
 1235WAT     H1 3947   0.764   1.117   5.241
 1235WAT     H2 3948   0.675   1.079   5.110
 1236WAT      O 3949   5.963   7.283   7.572
 1236WAT     H1 3950   5.963   7.192   7.529
 1236WAT     H2 3951   5.872   7.323   7.565
 1237WAT      O 3952   7.771   2.884   2.162
 1237WAT     H1 3953   7.852   2.880   2.220
 1237WAT     H2 3954   7.732   2.793   2.153
 1238WAT      O 3955   5.179   9.153   3.297
 1238WAT     H1 3956   5.131   9.066   3.282
 1238WAT     H2 3957   5.243   9.142   3.373
 1239WAT      O 3958   3.005   9.058   5.898
 1239WAT     H1 3959   3.086   9.108   5.931
 1239WAT     H2 3960   3.024   8.960   5.900
 1240WAT      O 3961   2.141   5.727   6.155
 1240WAT     H1 3962   2.056   5.702   6.201
 1240WAT     H2 3963   2.120   5.776   6.070
 1241WAT      O 3964   5.913   0.569   3.675
 1241WAT     H1 3965   5.977   0.635   3.635
 1241WAT     H2 3966   5.965   0.495   3.717
 1242WAT      O 3967   9.014   1.675   4.549
 1242WAT     H1 3968   9.072   1.704   4.473
 1242WAT     H2 3969   9.032   1.733   4.628
 1243WAT      O 3970   9.427   4.520   1.390
 1243WAT     H1 3971   9.335   4.492   1.364
 1243WAT     H2 3972   9.426   4.559   1.482
 1244WAT      O 3973   3.147   1.253   4.114
 1244WAT     H1 3974   3.144   1.273   4.212
 1244WAT     H2 3975   3.166   1.156   4.101
 1245WAT      O 3976   0.640   6.599   2.928
 1245WAT     H1 3977   0.557   6.544   2.917
 1245WAT     H2 3978   0.705   6.550   2.986
 1246WAT      O 3979   1.491   5.560   3.496
 1246WAT     H1 3980   1.444   5.472   3.503
 1246WAT     H2 3981   1.468   5.616   3.576
 1247WAT      O 3982   1.972   2.691   5.464
 1247WAT     H1 3983   1.978   2.756   5.539
 1247WAT     H2 3984   1.878   2.686   5.431
 1248WAT      O 3985   4.110   3.921   9.585
 1248WAT     H1 3986   4.186   3.983   9.566
 1248WAT     H2 3987   4.023   3.967   9.563
 1249WAT      O 3988   3.376   6.317   8.703
 1249WAT     H1 3989   3.378   6.404   8.653
 1249WAT     H2 3990   3.371   6.335   8.801
 1250WAT      O 3991   4.277   5.291   3.894
 1250WAT     H1 3992   4.194   5.313   3.945
 1250WAT     H2 3993   4.327   5.376   3.875
 1251WAT      O 3994   3.871   8.364   1.284
 1251WAT     H1 3995   3.909   8.456   1.300
 1251WAT     H2 3996   3.779   8.360   1.323
 1252WAT      O 3997   6.449   0.991   1.988
 1252WAT     H1 3998   6.376   0.933   2.023
 1252WAT     H2 3999   6.414   1.046   1.912
 1253WAT      O 4000   2.573   2.581   6.403
 1253WAT     H1 4001   2.667   2.548   6.406
 1253WAT     H2 4002   2.560   2.648   6.476
 1254WAT      O 4003   2.954   0.962   4.398
 1254WAT     H1 4004   3.012   0.975   4.318
 1254WAT     H2 4005   2.916   1.050   4.426
 1255WAT      O 4006   9.384   0.888   2.316
 1255WAT     H1 4007   9.419   0.952   2.247
 1255WAT     H2 4008   9.285   0.879   2.307
 1256WAT      O 4009   6.556   7.064   3.579
 1256WAT     H1 4010   6.588   7.032   3.490
 1256WAT     H2 4011   6.619   7.031   3.650
 1257WAT      O 4012   1.016   1.693   0.143
 1257WAT     H1 4013   1.100   1.747   0.147
 1257WAT     H2 4014   0.962   1.721   0.064
 1258WAT      O 4015   4.946   7.931   7.749
 1258WAT     H1 4016   4.879   8.002   7.775
 1258WAT     H2 4017   4.929   7.849   7.803
 1259WAT      O 4018   3.677   0.025   6.252
 1259WAT     H1 4019   3.696   0.052   6.158
 1259WAT     H2 4020   3.597   0.074   6.286
 1260WAT      O 4021   5.311   1.148   0.956
 1260WAT     H1 4022   5.271   1.150   1.048
 1260WAT     H2 4023   5.314   1.240   0.919
 1261WAT      O 4024   6.496   2.423   6.498
 1261WAT     H1 4025   6.490   2.496   6.430
 1261WAT     H2 4026   6.556   2.350   6.464
 1262WAT      O 4027   6.736   0.584   1.934
 1262WAT     H1 4028   6.739   0.490   1.899
 1262WAT     H2 4029   6.796   0.641   1.878
 1263WAT      O 4030   7.188   1.021   6.918
 1263WAT     H1 4031   7.090   1.017   6.939
 1263WAT     H2 4032   7.205   1.094   6.852
 1264WAT      O 4033   0.571   5.917   2.907
 1264WAT     H1 4034   0.524   5.996   2.866
 1264WAT     H2 4035   0.640   5.884   2.843
 1265WAT      O 4036   1.827   7.879   1.976
 1265WAT     H1 4037   1.803   7.786   1.949
 1265WAT     H2 4038   1.819   7.888   2.076
 1266WAT      O 4039   7.885   8.926   3.136
 1266WAT     H1 4040   7.870   8.883   3.047
 1266WAT     H2 4041   7.823   8.886   3.203
 1267WAT      O 4042   2.775   6.977   7.457
 1267WAT     H1 4043   2.679   7.007   7.454
 1267WAT     H2 4044   2.834   7.054   7.433
 1268WAT      O 4045   5.395   9.290   4.506
 1268WAT     H1 4046   5.469   9.235   4.466
 1268WAT     H2 4047   5.421   9.386   4.505
 1269WAT      O 4048   6.313   8.716   0.503
 1269WAT     H1 4049   6.405   8.681   0.488
 1269WAT     H2 4050   6.315   8.816   0.507
 1270WAT      O 4051   8.731   0.787   0.003
 1270WAT     H1 4052   8.752   0.874   0.047
 1270WAT     H2 4053   8.639   0.790  -0.035
 1271WAT      O 4054   7.048   0.701   1.478
 1271WAT     H1 4055   7.018   0.654   1.396
 1271WAT     H2 4056   7.100   0.638   1.536
 1272WAT      O 4057   3.351   1.834   0.697
 1272WAT     H1 4058   3.399   1.915   0.666
 1272WAT     H2 4059   3.411   1.754   0.689
 1273WAT      O 4060   4.135   7.072   7.068
 1273WAT     H1 4061   4.081   7.060   7.152
 1273WAT     H2 4062   4.092   7.022   6.993
 1274WAT      O 4063   5.612   0.209   5.826
 1274WAT     H1 4064   5.535   0.259   5.865
 1274WAT     H2 4065   5.677   0.185   5.898
 1275WAT      O 4066   9.555   9.764   4.596
 1275WAT     H1 4067   9.609   9.723   4.671
 1275WAT     H2 4068   9.484   9.700   4.567
 1276WAT      O 4069   3.464   6.848   0.163
 1276WAT     H1 4070   3.486   6.932   0.212
 1276WAT     H2 4071   3.535   6.829   0.095
 1277WAT      O 4072   4.228   0.286   5.172
 1277WAT     H1 4073   4.193   0.373   5.208
 1277WAT     H2 4074   4.185   0.210   5.221
 1278WAT      O 4075   6.087   3.286   4.157
 1278WAT     H1 4076   6.079   3.193   4.121
 1278WAT     H2 4077   5.996   3.320   4.181
 1279WAT      O 4078   4.411   1.550   7.693
 1279WAT     H1 4079   4.424   1.581   7.599
 1279WAT     H2 4080   4.363   1.621   7.746
 1280WAT      O 4081   4.305   2.648   9.035
 1280WAT     H1 4082   4.296   2.621   9.130
 1280WAT     H2 4083   4.395   2.624   9.000
 1281WAT      O 4084   4.498   2.092   6.236
 1281WAT     H1 4085   4.552   2.028   6.291
 1281WAT     H2 4086   4.414   2.115   6.284
 1282WAT      O 4087   0.387   1.284   8.483
 1282WAT     H1 4088   0.311   1.343   8.511
 1282WAT     H2 4089   0.383   1.268   8.385
 1283WAT      O 4090   8.152   2.488   6.434
 1283WAT     H1 4091   8.091   2.479   6.355
 1283WAT     H2 4092   8.234   2.433   6.418
 1284WAT      O 4093   3.565   1.102   7.392
 1284WAT     H1 4094   3.583   1.200   7.397
 1284WAT     H2 4095   3.649   1.052   7.411
 1285WAT      O 4096   9.550   9.076   0.399
 1285WAT     H1 4097   9.519   9.020   0.475
 1285WAT     H2 4098   9.524   9.171   0.414
 1286WAT      O 4099   7.268   8.152   0.078
 1286WAT     H1 4100   7.356   8.181   0.116
 1286WAT     H2 4101   7.283   8.078   0.013
 1287WAT      O 4102   8.221   6.753   2.254
 1287WAT     H1 4103   8.245   6.755   2.351
 1287WAT     H2 4104   8.295   6.710   2.202
 1288WAT      O 4105   3.220   3.436   0.171
 1288WAT     H1 4106   3.259   3.491   0.244
 1288WAT     H2 4107   3.281   3.359   0.150
 1289WAT      O 4108   0.937   8.177   0.914
 1289WAT     H1 4109   1.009   8.125   0.958
 1289WAT     H2 4110   0.961   8.274   0.914
 1290WAT      O 4111   3.840   9.264   7.066
 1290WAT     H1 4112   3.775   9.282   7.139
 1290WAT     H2 4113   3.800   9.200   7.000
 1291WAT      O 4114   5.650   3.401   7.690
 1291WAT     H1 4115   5.729   3.402   7.752
 1291WAT     H2 4116   5.682   3.394   7.596
 1292WAT      O 4117   0.956   1.175   2.852
 1292WAT     H1 4118   0.962   1.135   2.943
 1292WAT     H2 4119   0.915   1.266   2.858
 1293WAT      O 4120   1.389   9.657   4.095
 1293WAT     H1 4121   1.376   9.673   3.997
 1293WAT     H2 4122   1.370   9.560   4.115
 1294WAT      O 4123   3.975   3.519   5.096
 1294WAT     H1 4124   4.051   3.461   5.066
 1294WAT     H2 4125   3.987   3.611   5.061
 1295WAT      O 4126   6.867   1.044   1.203
 1295WAT     H1 4127   6.960   1.024   1.173
 1295WAT     H2 4128   6.825   1.108   1.139
 1296WAT      O 4129   1.244   0.227   1.451
 1296WAT     H1 4130   1.279   0.143   1.411
 1296WAT     H2 4131   1.309   0.262   1.519
 1297WAT      O 4132   5.052   2.265   3.673
 1297WAT     H1 4133   5.068   2.340   3.610
 1297WAT     H2 4134   4.992   2.296   3.748
 1298WAT      O 4135   3.961   9.690   9.009
 1298WAT     H1 4136   3.895   9.764   9.012
 1298WAT     H2 4137   3.954   9.635   9.093
 1299WAT      O 4138   3.985   7.952   4.262
 1299WAT     H1 4139   4.071   7.962   4.213
 1299WAT     H2 4140   3.940   8.041   4.269
 1300WAT      O 4141   7.530   5.102   9.597
 1300WAT     H1 4142   7.601   5.114   9.666
 1300WAT     H2 4143   7.480   5.188   9.585
 1301WAT      O 4144   6.747   3.244   4.218
 1301WAT     H1 4145   6.807   3.232   4.140
 1301WAT     H2 4146   6.664   3.189   4.207
 1302WAT      O 4147   5.748   3.695   6.371
 1302WAT     H1 4148   5.739   3.648   6.459
 1302WAT     H2 4149   5.665   3.747   6.352
 1303WAT      O 4150   0.160   5.709   8.098
 1303WAT     H1 4151   0.162   5.741   8.003
 1303WAT     H2 4152   0.078   5.745   8.144
 1304WAT      O 4153   8.577   4.911   7.015
 1304WAT     H1 4154   8.617   4.820   7.003
 1304WAT     H2 4155   8.609   4.971   6.943
 1305WAT      O 4156   5.510   2.270   3.296
 1305WAT     H1 4157   5.559   2.304   3.215
 1305WAT     H2 4158   5.437   2.334   3.320
 1306WAT      O 4159   5.095   7.659   3.108
 1306WAT     H1 4160   5.080   7.758   3.097
 1306WAT     H2 4161   5.019   7.609   3.066
 1307WAT      O 4162   9.177   0.028   1.467
 1307WAT     H1 4163   9.250   0.083   1.507
 1307WAT     H2 4164   9.209  -0.066   1.454
 1308WAT      O 4165   8.477   7.393   7.911
 1308WAT     H1 4166   8.538   7.340   7.851
 1308WAT     H2 4167   8.415   7.330   7.958
 1309WAT      O 4168   0.747   0.732   3.927
 1309WAT     H1 4169   0.724   0.801   3.858
 1309WAT     H2 4170   0.735   0.770   4.018
 1310WAT      O 4171   7.309   3.704   9.514
 1310WAT     H1 4172   7.366   3.769   9.464
 1310WAT     H2 4173   7.367   3.634   9.555
 1311WAT      O 4174   0.089   6.114   8.301
 1311WAT     H1 4175   0.159   6.044   8.293
 1311WAT     H2 4176  -0.002   6.071   8.296
 1312WAT      O 4177   4.556   7.907   7.959
 1312WAT     H1 4178   4.652   7.904   7.986
 1312WAT     H2 4179   4.548   7.882   7.862
 1313WAT      O 4180   9.260   7.503   5.911
 1313WAT     H1 4181   9.210   7.518   5.996
 1313WAT     H2 4182   9.266   7.405   5.893
 1314WAT      O 4183   2.561   4.820   4.575
 1314WAT     H1 4184   2.654   4.848   4.598
 1314WAT     H2 4185   2.559   4.786   4.481
 1315WAT      O 4186   5.580   8.189   1.661
 1315WAT     H1 4187   5.554   8.276   1.703
 1315WAT     H2 4188   5.595   8.120   1.732
 1316WAT      O 4189   8.342   7.674   8.927
 1316WAT     H1 4190   8.426   7.620   8.930
 1316WAT     H2 4191   8.346   7.747   8.995
 1317WAT      O 4192   4.673   8.162   0.784
 1317WAT     H1 4193   4.657   8.155   0.685
 1317WAT     H2 4194   4.687   8.070   0.822
 1318WAT      O 4195   3.433   4.084   2.109
 1318WAT     H1 4196   3.518   4.111   2.065
 1318WAT     H2 4197   3.426   4.129   2.198
 1319WAT      O 4198   9.418   5.789   4.918
 1319WAT     H1 4199   9.393   5.885   4.907
 1319WAT     H2 4200   9.423   5.766   5.015
 1320WAT      O 4201   1.845   1.082   0.029
 1320WAT     H1 4202   1.803   1.167  -0.003
 1320WAT     H2 4203   1.823   1.008  -0.034
 1321WAT      O 4204   4.618   7.469   8.275
 1321WAT     H1 4205   4.596   7.372   8.260
 1321WAT     H2 4206   4.690   7.497   8.212
 1322WAT      O 4207   7.654   1.520   0.439
 1322WAT     H1 4208   7.750   1.500   0.460
 1322WAT     H2 4209   7.600   1.437   0.451
 1323WAT      O 4210   4.860   5.791   3.924
 1323WAT     H1 4211   4.826   5.855   3.855
 1323WAT     H2 4212   4.954   5.766   3.903
 1324WAT      O 4213   2.237   8.393   8.565
 1324WAT     H1 4214   2.330   8.428   8.556
 1324WAT     H2 4215   2.173   8.457   8.522
 1325WAT      O 4216   3.629   4.203   4.060
 1325WAT     H1 4217   3.545   4.248   4.030
 1325WAT     H2 4218   3.705   4.268   4.055
 1326WAT      O 4219   2.862   0.161   3.103
 1326WAT     H1 4220   2.803   0.146   3.024
 1326WAT     H2 4221   2.951   0.118   3.086
 1327WAT      O 4222   9.444   9.375   2.119
 1327WAT     H1 4223   9.395   9.460   2.138
 1327WAT     H2 4224   9.428   9.310   2.194
 1328WAT      O 4225   7.298   0.352   4.726
 1328WAT     H1 4226   7.325   0.328   4.633
 1328WAT     H2 4227   7.219   0.298   4.754
 1329WAT      O 4228   0.111   7.499   9.302
 1329WAT     H1 4229   0.046   7.439   9.348
 1329WAT     H2 4230   0.148   7.565   9.367
 1330WAT      O 4231   5.337   7.288   6.782
 1330WAT     H1 4232   5.245   7.323   6.799
 1330WAT     H2 4233   5.351   7.204   6.833
 1331WAT      O 4234   5.384   5.221   7.716
 1331WAT     H1 4235   5.292   5.251   7.691
 1331WAT     H2 4236   5.424   5.287   7.780
 1332WAT      O 4237   3.097   4.551   1.719
 1332WAT     H1 4238   3.101   4.642   1.761
 1332WAT     H2 4239   3.024   4.497   1.760
 1333WAT      O 4240   4.546   9.220   5.997
 1333WAT     H1 4241   4.486   9.175   6.062
 1333WAT     H2 4242   4.491   9.269   5.929
 1334WAT      O 4243   9.512   2.757   8.869
 1334WAT     H1 4244   9.493   2.687   8.801
 1334WAT     H2 4245   9.438   2.761   8.936
 1335WAT      O 4246   7.746   6.987   7.180
 1335WAT     H1 4247   7.729   6.998   7.278
 1335WAT     H2 4248   7.845   6.978   7.165
 1336WAT      O 4249   2.846   0.222   3.374
 1336WAT     H1 4250   2.863   0.192   3.280
 1336WAT     H2 4251   2.748   0.243   3.385
 1337WAT      O 4252   3.121   2.588   5.598
 1337WAT     H1 4253   3.047   2.656   5.608
 1337WAT     H2 4254   3.149   2.583   5.502
 1338WAT      O 4255   3.589   5.936   3.262
 1338WAT     H1 4256   3.646   5.935   3.344
 1338WAT     H2 4257   3.545   6.025   3.252
 1339WAT      O 4258   8.340   7.184   5.959
 1339WAT     H1 4259   8.353   7.231   5.871
 1339WAT     H2 4260   8.249   7.142   5.961
 1340WAT      O 4261   2.152   2.507   5.261
 1340WAT     H1 4262   2.074   2.547   5.308
 1340WAT     H2 4263   2.195   2.576   5.203
 1341WAT      O 4264   2.797   1.230   6.243
 1341WAT     H1 4265   2.702   1.211   6.220
 1341WAT     H2 4266   2.854   1.151   6.219
 1342WAT      O 4267   0.908   4.093   1.998
 1342WAT     H1 4268   0.939   4.185   1.976
 1342WAT     H2 4269   0.912   4.036   1.916
 1343WAT      O 4270   5.011   3.333   6.786
 1343WAT     H1 4271   4.952   3.407   6.818
 1343WAT     H2 4272   5.105   3.368   6.778
 1344WAT      O 4273   2.091   6.570   5.677
 1344WAT     H1 4274   2.071   6.511   5.599
 1344WAT     H2 4275   2.018   6.562   5.745
 1345WAT      O 4276   0.783   2.412   6.403
 1345WAT     H1 4277   0.753   2.323   6.369
 1345WAT     H2 4278   0.734   2.433   6.487
 1346WAT      O 4279   4.829   3.046   3.431
 1346WAT     H1 4280   4.887   3.086   3.360
 1346WAT     H2 4281   4.850   3.088   3.520
 1347WAT      O 4282   6.239   5.275   2.305
 1347WAT     H1 4283   6.221   5.233   2.216
 1347WAT     H2 4284   6.184   5.358   2.315
 1348WAT      O 4285   2.331   4.606   6.930
 1348WAT     H1 4286   2.346   4.583   6.834
 1348WAT     H2 4287   2.413   4.650   6.967
 1349WAT      O 4288   1.351   0.020   0.182
 1349WAT     H1 4289   1.390   0.100   0.138
 1349WAT     H2 4290   1.264   0.045   0.224
 1350WAT      O 4291   1.354   2.070   8.281
 1350WAT     H1 4292   1.412   2.102   8.356
 1350WAT     H2 4293   1.406   2.008   8.223
 1351WAT      O 4294   8.600   2.589   9.098
 1351WAT     H1 4295   8.530   2.519   9.085
 1351WAT     H2 4296   8.569   2.675   9.057
 1352WAT      O 4297   0.240   7.398   5.634
 1352WAT     H1 4298   0.264   7.337   5.709
 1352WAT     H2 4299   0.247   7.349   5.547
 1353WAT      O 4300   9.424   6.631   7.421
 1353WAT     H1 4301   9.471   6.693   7.359
 1353WAT     H2 4302   9.325   6.640   7.409
 1354WAT      O 4303   5.085   6.241   4.382
 1354WAT     H1 4304   5.055   6.309   4.450
 1354WAT     H2 4305   5.006   6.187   4.353
 1355WAT      O 4306   4.940   0.048   4.504
 1355WAT     H1 4307   4.923  -0.036   4.556
 1355WAT     H2 4308   5.039   0.060   4.493
 1356WAT      O 4309   9.762   4.877   9.209
 1356WAT     H1 4310   9.797   4.788   9.240
 1356WAT     H2 4311   9.809   4.950   9.258
 1357WAT      O 4312   6.893   2.153   0.082
 1357WAT     H1 4313   6.841   2.237   0.100
 1357WAT     H2 4314   6.888   2.092   0.160
 1358WAT      O 4315   5.922   0.140   2.953
 1358WAT     H1 4316   6.015   0.109   2.972
 1358WAT     H2 4317   5.869   0.141   3.038
 1359WAT      O 4318   0.068   3.508   0.870
 1359WAT     H1 4319   0.090   3.520   0.773
 1359WAT     H2 4320   0.079   3.412   0.896
 1360WAT      O 4321   2.688   0.905   4.755
 1360WAT     H1 4322   2.750   0.858   4.693
 1360WAT     H2 4323   2.714   0.886   4.850
 1361WAT      O 4324   3.278   1.270   1.655
 1361WAT     H1 4325   3.205   1.337   1.672
 1361WAT     H2 4326   3.239   1.190   1.610
 1362WAT      O 4327   5.581   5.619   6.908
 1362WAT     H1 4328   5.529   5.674   6.842
 1362WAT     H2 4329   5.665   5.586   6.865
 1363WAT      O 4330   9.312   9.750   2.775
 1363WAT     H1 4331   9.253   9.701   2.711
 1363WAT     H2 4332   9.352   9.684   2.839
 1364WAT      O 4333   9.082   0.654   5.185
 1364WAT     H1 4334   9.082   0.565   5.140
 1364WAT     H2 4335   9.165   0.704   5.160
 1365WAT      O 4336   3.773   1.249   0.998
 1365WAT     H1 4337   3.757   1.341   0.962
 1365WAT     H2 4338   3.761   1.250   1.098
 1366WAT      O 4339   0.615   4.945   5.968
 1366WAT     H1 4340   0.537   4.968   5.908
 1366WAT     H2 4341   0.589   4.961   6.063
 1367WAT      O 4342   7.573   4.766   4.360
 1367WAT     H1 4343   7.659   4.718   4.343
 1367WAT     H2 4344   7.590   4.843   4.422
 1368WAT      O 4345   2.610   6.122   8.081
 1368WAT     H1 4346   2.700   6.077   8.086
 1368WAT     H2 4347   2.580   6.147   8.173
 1369WAT      O 4348   3.987   6.208   8.454
 1369WAT     H1 4349   3.987   6.113   8.485
 1369WAT     H2 4350   4.081   6.242   8.450
 1370WAT      O 4351   0.385   4.886   5.034
 1370WAT     H1 4352   0.321   4.810   5.028
 1370WAT     H2 4353   0.351   4.953   5.100
 1371WAT      O 4354   7.777   7.746   7.731
 1371WAT     H1 4355   7.860   7.756   7.785
 1371WAT     H2 4356   7.724   7.668   7.765
 1372WAT      O 4357   8.109   2.577   7.340
 1372WAT     H1 4358   8.021   2.568   7.386
 1372WAT     H2 4359   8.094   2.590   7.242
 1373WAT      O 4360   2.609   1.092   5.610
 1373WAT     H1 4361   2.703   1.072   5.583
 1373WAT     H2 4362   2.594   1.191   5.609
 1374WAT      O 4363   2.383   1.146   1.551
 1374WAT     H1 4364   2.297   1.165   1.598
 1374WAT     H2 4365   2.364   1.106   1.462
 1375WAT      O 4366   0.750   3.574   7.470
 1375WAT     H1 4367   0.683   3.627   7.523
 1375WAT     H2 4368   0.802   3.515   7.532
 1376WAT      O 4369   6.129   7.834   6.267
 1376WAT     H1 4370   6.227   7.814   6.266
 1376WAT     H2 4371   6.084   7.777   6.335
 1377WAT      O 4372   6.408   0.549   3.600
 1377WAT     H1 4373   6.379   0.458   3.572
 1377WAT     H2 4374   6.421   0.607   3.519
 1378WAT      O 4375   2.239   6.112   9.853
 1378WAT     H1 4376   2.172   6.163   9.798
 1378WAT     H2 4377   2.212   6.116   9.949
 1379WAT      O 4378   4.096   3.755   4.616
 1379WAT     H1 4379   4.179   3.809   4.602
 1379WAT     H2 4380   4.036   3.804   4.679
 1380WAT      O 4381   6.284   1.675   1.971
 1380WAT     H1 4382   6.347   1.709   2.042
 1380WAT     H2 4383   6.278   1.576   1.978
 1381WAT      O 4384   7.857   2.494   6.869
 1381WAT     H1 4385   7.849   2.504   6.968
 1381WAT     H2 4386   7.834   2.401   6.843
 1382WAT      O 4387   2.595   0.768   7.662
 1382WAT     H1 4388   2.640   0.840   7.610
 1382WAT     H2 4389   2.527   0.808   7.723
 1383WAT      O 4390   5.638   8.435   7.308
 1383WAT     H1 4391   5.730   8.413   7.340
 1383WAT     H2 4392   5.605   8.359   7.251
 1384WAT      O 4393   2.293   4.699   8.118
 1384WAT     H1 4394   2.297   4.616   8.173
 1384WAT     H2 4395   2.333   4.681   8.028
 1385WAT      O 4396   9.814   5.960   3.701
 1385WAT     H1 4397   9.724   5.964   3.743
 1385WAT     H2 4398   9.867   5.886   3.744
 1386WAT      O 4399   4.447   8.994   9.683
 1386WAT     H1 4400   4.543   9.020   9.670
 1386WAT     H2 4401   4.424   8.918   9.622
 1387WAT      O 4402   4.088   6.862   7.504
 1387WAT     H1 4403   4.088   6.931   7.577
 1387WAT     H2 4404   4.014   6.797   7.520
 1388WAT      O 4405   8.943   7.652   0.470
 1388WAT     H1 4406   9.008   7.724   0.495
 1388WAT     H2 4407   8.891   7.625   0.551
 1389WAT      O 4408   6.459   3.884   6.580
 1389WAT     H1 4409   6.446   3.958   6.645
 1389WAT     H2 4410   6.383   3.883   6.515
 1390WAT      O 4411   4.334   6.229   2.596
 1390WAT     H1 4412   4.323   6.259   2.691
 1390WAT     H2 4413   4.391   6.147   2.593
 1391WAT      O 4414   0.419   4.532   8.837
 1391WAT     H1 4415   0.357   4.593   8.788
 1391WAT     H2 4416   0.398   4.535   8.935
 1392WAT      O 4417   8.086   3.681   9.030
 1392WAT     H1 4418   8.043   3.591   9.018
 1392WAT     H2 4419   8.181   3.676   8.999
 1393WAT      O 4420   2.259   1.865   6.470
 1393WAT     H1 4421   2.332   1.925   6.439
 1393WAT     H2 4422   2.190   1.918   6.519
 1394WAT      O 4423   6.219   8.403   9.097
 1394WAT     H1 4424   6.239   8.500   9.111
 1394WAT     H2 4425   6.122   8.391   9.076
 1395WAT      O 4426   6.447   1.204   7.694
 1395WAT     H1 4427   6.354   1.174   7.714
 1395WAT     H2 4428   6.490   1.140   7.630
 1396WAT      O 4429   7.069   3.272   1.680
 1396WAT     H1 4430   7.021   3.324   1.609
 1396WAT     H2 4431   7.027   3.181   1.690
 1397WAT      O 4432   4.698   7.084   2.902
 1397WAT     H1 4433   4.741   7.026   2.972
 1397WAT     H2 4434   4.706   7.040   2.813
 1398WAT      O 4435   7.245   3.642   6.303
 1398WAT     H1 4436   7.154   3.660   6.341
 1398WAT     H2 4437   7.249   3.548   6.271
 1399WAT      O 4438   1.876   7.745   6.628
 1399WAT     H1 4439   1.907   7.784   6.541
 1399WAT     H2 4440   1.833   7.656   6.612
 1400WAT      O 4441   6.579   1.004   4.352
 1400WAT     H1 4442   6.672   0.987   4.385
 1400WAT     H2 4443   6.534   0.917   4.332
 1401WAT      O 4444   4.847   6.601   2.486
 1401WAT     H1 4445   4.793   6.517   2.483
 1401WAT     H2 4446   4.857   6.637   2.393
 1402WAT      O 4447   4.038   5.467   0.788
 1402WAT     H1 4448   4.025   5.535   0.716
 1402WAT     H2 4449   4.075   5.511   0.869
 1403WAT      O 4450   0.354   8.783   8.651
 1403WAT     H1 4451   0.345   8.711   8.720
 1403WAT     H2 4452   0.346   8.743   8.560
 1404WAT      O 4453   2.986   9.834   0.489
 1404WAT     H1 4454   3.002   9.863   0.583
 1404WAT     H2 4455   2.888   9.834   0.471
 1405WAT      O 4456   3.933   4.613   0.788
 1405WAT     H1 4457   4.001   4.540   0.784
 1405WAT     H2 4458   3.979   4.701   0.792
 1406WAT      O 4459   0.903   7.321   8.160
 1406WAT     H1 4460   0.962   7.252   8.119
 1406WAT     H2 4461   0.808   7.306   8.131
 1407WAT      O 4462   1.849   4.607   6.006
 1407WAT     H1 4463   1.876   4.691   6.053
 1407WAT     H2 4464   1.905   4.531   6.039
 1408WAT      O 4465   7.463   2.544   2.973
 1408WAT     H1 4466   7.511   2.457   2.960
 1408WAT     H2 4467   7.368   2.535   2.942
 1409WAT      O 4468   1.745   1.915   0.629
 1409WAT     H1 4469   1.662   1.864   0.605
 1409WAT     H2 4470   1.819   1.887   0.569
 1410WAT      O 4471   7.087   8.391   8.426
 1410WAT     H1 4472   7.155   8.424   8.360
 1410WAT     H2 4473   7.051   8.469   8.478
 1411WAT      O 4474   3.167   5.977   1.561
 1411WAT     H1 4475   3.147   6.072   1.587
 1411WAT     H2 4476   3.266   5.967   1.546
 1412WAT      O 4477   3.709   7.694   6.663
 1412WAT     H1 4478   3.713   7.604   6.620
 1412WAT     H2 4479   3.791   7.709   6.717
 1413WAT      O 4480   8.097   3.900   6.154
 1413WAT     H1 4481   8.141   3.817   6.120
 1413WAT     H2 4482   8.005   3.908   6.115
 1414WAT      O 4483   8.959   3.603   8.349
 1414WAT     H1 4484   8.938   3.614   8.252
 1414WAT     H2 4485   9.047   3.556   8.359
 1415WAT      O 4486   3.057   9.438   5.184
 1415WAT     H1 4487   3.087   9.351   5.225
 1415WAT     H2 4488   3.130   9.506   5.194
 1416WAT      O 4489   2.998   2.078   8.965
 1416WAT     H1 4490   3.051   2.120   8.891
 1416WAT     H2 4491   3.061   2.039   9.032
 1417WAT      O 4492   7.550   6.920   1.468
 1417WAT     H1 4493   7.516   6.830   1.442
 1417WAT     H2 4494   7.474   6.985   1.470
 1418WAT      O 4495   6.366   7.442   9.112
 1418WAT     H1 4496   6.439   7.392   9.065
 1418WAT     H2 4497   6.284   7.385   9.115
 1419WAT      O 4498   5.286   3.596   2.847
 1419WAT     H1 4499   5.298   3.550   2.760
 1419WAT     H2 4500   5.355   3.566   2.912
 1420WAT      O 4501   1.861   1.098   1.385
 1420WAT     H1 4502   1.946   1.149   1.398
 1420WAT     H2 4503   1.882   1.002   1.370
 1421WAT      O 4504   7.519   4.794   6.466
 1421WAT     H1 4505   7.613   4.830   6.471
 1421WAT     H2 4506   7.473   4.809   6.554
 1422WAT      O 4507   8.231   7.821   2.528
 1422WAT     H1 4508   8.136   7.839   2.552
 1422WAT     H2 4509   8.273   7.764   2.600
 1423WAT      O 4510   5.944   3.867   4.142
 1423WAT     H1 4511   6.006   3.894   4.215
 1423WAT     H2 4512   5.994   3.862   4.056
 1424WAT      O 4513   3.886   8.124   9.336
 1424WAT     H1 4514   3.908   8.028   9.317
 1424WAT     H2 4515   3.910   8.145   9.431
 1425WAT      O 4516   0.818   4.950   1.372
 1425WAT     H1 4517   0.848   4.990   1.459
 1425WAT     H2 4518   0.790   4.855   1.386
 1426WAT      O 4519   3.252   9.407   1.453
 1426WAT     H1 4520   3.240   9.309   1.472
 1426WAT     H2 4521   3.338   9.438   1.493
 1427WAT      O 4522   5.399   8.338   2.298
 1427WAT     H1 4523   5.325   8.278   2.326
 1427WAT     H2 4524   5.387   8.363   2.202
 1428WAT      O 4525   5.926   2.788   5.073
 1428WAT     H1 4526   5.934   2.828   5.164
 1428WAT     H2 4527   5.918   2.689   5.080
 1429WAT      O 4528   4.554   5.382   9.510
 1429WAT     H1 4529   4.566   5.391   9.609
 1429WAT     H2 4530   4.582   5.466   9.465
 1430WAT      O 4531   2.027   6.089   2.391
 1430WAT     H1 4532   2.112   6.140   2.384
 1430WAT     H2 4533   2.047   5.992   2.402
 1431WAT      O 4534   6.328   2.645   1.812
 1431WAT     H1 4535   6.359   2.570   1.755
 1431WAT     H2 4536   6.387   2.725   1.799
 1432WAT      O 4537   1.938   8.563   1.665
 1432WAT     H1 4538   1.841   8.564   1.689
 1432WAT     H2 4539   1.989   8.619   1.731
 1433WAT      O 4540   5.701   5.159   4.585
 1433WAT     H1 4541   5.785   5.110   4.560
 1433WAT     H2 4542   5.624   5.120   4.536
 1434WAT      O 4543   1.827   6.208   7.583
 1434WAT     H1 4544   1.908   6.173   7.537
 1434WAT     H2 4545   1.746   6.159   7.550
 1435WAT      O 4546   7.794   3.951   3.427
 1435WAT     H1 4547   7.810   3.953   3.526
 1435WAT     H2 4548   7.865   3.895   3.383
 1436WAT      O 4549   6.897   6.801   7.926
 1436WAT     H1 4550   6.996   6.788   7.925
 1436WAT     H2 4551   6.860   6.772   8.014
 1437WAT      O 4552   0.953   3.225   6.825
 1437WAT     H1 4553   0.905   3.203   6.910
 1437WAT     H2 4554   0.950   3.324   6.809
 1438WAT      O 4555   0.681   6.141   6.972
 1438WAT     H1 4556   0.697   6.236   6.946
 1438WAT     H2 4557   0.609   6.102   6.914
 1439WAT      O 4558   1.033   4.148   4.976
 1439WAT     H1 4559   1.055   4.183   4.885
 1439WAT     H2 4560   1.040   4.221   5.044
 1440WAT      O 4561   1.731   3.265   8.960
 1440WAT     H1 4562   1.782   3.198   8.907
 1440WAT     H2 4563   1.650   3.294   8.909
 1441WAT      O 4564   8.712   3.287   8.206
 1441WAT     H1 4565   8.802   3.250   8.182
 1441WAT     H2 4566   8.695   3.369   8.152
 1442WAT      O 4567   1.057   0.859   7.721
 1442WAT     H1 4568   1.008   0.843   7.635
 1442WAT     H2 4569   0.992   0.890   7.790
 1443WAT      O 4570   3.413   9.380   8.429
 1443WAT     H1 4571   3.390   9.311   8.361
 1443WAT     H2 4572   3.342   9.450   8.431
 1444WAT      O 4573   8.294   1.129   6.309
 1444WAT     H1 4574   8.380   1.127   6.361
 1444WAT     H2 4575   8.233   1.057   6.343
 1445WAT      O 4576   2.035   1.743   9.676
 1445WAT     H1 4577   2.119   1.687   9.680
 1445WAT     H2 4578   2.040   1.804   9.598
 1446WAT      O 4579   2.488   7.974   3.102
 1446WAT     H1 4580   2.415   7.973   3.034
 1446WAT     H2 4581   2.453   7.941   3.190
 1447WAT      O 4582   3.871   2.926   6.906
 1447WAT     H1 4583   3.918   2.936   6.818
 1447WAT     H2 4584   3.772   2.927   6.891
 1448WAT      O 4585   0.588   5.330   9.756
 1448WAT     H1 4586   0.642   5.412   9.776
 1448WAT     H2 4587   0.512   5.354   9.696
 1449WAT      O 4588   6.453   5.918   3.642
 1449WAT     H1 4589   6.429   5.837   3.589
 1449WAT     H2 4590   6.518   5.973   3.590
 1450WAT      O 4591   0.947   2.187   8.868
 1450WAT     H1 4592   0.925   2.112   8.805
 1450WAT     H2 4593   1.045   2.208   8.861
 1451WAT      O 4594   1.842   2.331   7.719
 1451WAT     H1 4595   1.814   2.275   7.797
 1451WAT     H2 4596   1.868   2.272   7.643
 1452WAT      O 4597   9.422   7.584   3.020
 1452WAT     H1 4598   9.436   7.559   2.924
 1452WAT     H2 4599   9.347   7.530   3.058
 1453WAT      O 4600   0.416   0.373   4.767
 1453WAT     H1 4601   0.431   0.319   4.684
 1453WAT     H2 4602   0.503   0.389   4.813
 1454WAT      O 4603   0.217   5.289   2.275
 1454WAT     H1 4604   0.146   5.221   2.296
 1454WAT     H2 4605   0.194   5.375   2.319
 1455WAT      O 4606   5.328   9.529   5.610
 1455WAT     H1 4607   5.231   9.526   5.589
 1455WAT     H2 4608   5.341   9.543   5.708
 1456WAT      O 4609   0.426   0.669   8.596
 1456WAT     H1 4610   0.505   0.698   8.542
 1456WAT     H2 4611   0.455   0.649   8.690
 1457WAT      O 4612   1.832   4.184   3.786
 1457WAT     H1 4613   1.800   4.113   3.849
 1457WAT     H2 4614   1.853   4.267   3.837
 1458WAT      O 4615   5.916   5.992   6.638
 1458WAT     H1 4616   5.886   5.976   6.732
 1458WAT     H2 4617   5.855   5.942   6.575
 1459WAT      O 4618   7.846   7.024   1.052
 1459WAT     H1 4619   7.873   7.047   0.959
 1459WAT     H2 4620   7.758   7.068   1.073
 1460WAT      O 4621   3.214   5.146   1.198
 1460WAT     H1 4622   3.246   5.073   1.258
 1460WAT     H2 4623   3.255   5.135   1.108
 1461WAT      O 4624   9.717   7.425   1.303
 1461WAT     H1 4625   9.721   7.460   1.397
 1461WAT     H2 4626   9.729   7.326   1.304
 1462WAT      O 4627   1.120   9.777   2.278
 1462WAT     H1 4628   1.215   9.807   2.287
 1462WAT     H2 4629   1.082   9.810   2.192
 1463WAT      O 4630   7.404   5.818   2.556
 1463WAT     H1 4631   7.488   5.871   2.568
 1463WAT     H2 4632   7.424   5.732   2.509
 1464WAT      O 4633   6.324   1.358   3.883
 1464WAT     H1 4634   6.283   1.322   3.799
 1464WAT     H2 4635   6.410   1.310   3.901
 1465WAT      O 4636   4.244   9.384   5.207
 1465WAT     H1 4637   4.271   9.388   5.111
 1465WAT     H2 4638   4.305   9.323   5.257
 1466WAT      O 4639   4.350   3.810   1.398
 1466WAT     H1 4640   4.429   3.800   1.458
 1466WAT     H2 4641   4.350   3.901   1.357
 1467WAT      O 4642   7.371   7.328   5.281
 1467WAT     H1 4643   7.409   7.284   5.199
 1467WAT     H2 4644   7.431   7.402   5.310
 1468WAT      O 4645   7.669   1.743   1.945
 1468WAT     H1 4646   7.691   1.837   1.970
 1468WAT     H2 4647   7.661   1.736   1.845
 1469WAT      O 4648   3.545   7.279   0.170
 1469WAT     H1 4649   3.645   7.275   0.173
 1469WAT     H2 4650   3.507   7.216   0.237
 1470WAT      O 4651   1.667   6.660   0.567
 1470WAT     H1 4652   1.755   6.665   0.519
 1470WAT     H2 4653   1.612   6.586   0.529
 1471WAT      O 4654   8.643   1.499   5.783
 1471WAT     H1 4655   8.588   1.416   5.790
 1471WAT     H2 4656   8.729   1.479   5.736
 1472WAT      O 4657   9.200   4.301   8.503
 1472WAT     H1 4658   9.270   4.343   8.560
 1472WAT     H2 4659   9.168   4.367   8.435
 1473WAT      O 4660   3.286   3.212   3.093
 1473WAT     H1 4661   3.234   3.280   3.145
 1473WAT     H2 4662   3.224   3.160   3.035
 1474WAT      O 4663   7.447   0.906   6.992
 1474WAT     H1 4664   7.365   0.943   6.947
 1474WAT     H2 4665   7.481   0.973   7.058
 1475WAT      O 4666   8.489   3.758   6.304
 1475WAT     H1 4667   8.498   3.855   6.324
 1475WAT     H2 4668   8.411   3.743   6.244
 1476WAT      O 4669   4.695   0.582   1.100
 1476WAT     H1 4670   4.787   0.590   1.139
 1476WAT     H2 4671   4.642   0.514   1.152
 1477WAT      O 4672   3.461   8.037   5.293
 1477WAT     H1 4673   3.540   8.008   5.239
 1477WAT     H2 4674   3.491   8.101   5.363
 1478WAT      O 4675   7.680   2.866   0.083
 1478WAT     H1 4676   7.643   2.954   0.113
 1478WAT     H2 4677   7.662   2.797   0.153
 1479WAT      O 4678   6.579   2.651   0.954
 1479WAT     H1 4679   6.670   2.692   0.963
 1479WAT     H2 4680   6.575   2.568   1.009
 1480WAT      O 4681   6.796   2.925   3.367
 1480WAT     H1 4682   6.803   2.981   3.450
 1480WAT     H2 4683   6.887   2.890   3.343
 1481WAT      O 4684   3.008   2.183   6.778
 1481WAT     H1 4685   3.045   2.125   6.705
 1481WAT     H2 4686   3.082   2.240   6.814
 1482WAT      O 4687   5.928   3.975   3.364
 1482WAT     H1 4688   5.888   4.029   3.439
 1482WAT     H2 4689   5.859   3.912   3.328
 1483WAT      O 4690   9.501   7.422   6.534
 1483WAT     H1 4691   9.490   7.412   6.435
 1483WAT     H2 4692   9.539   7.338   6.572
 1484WAT      O 4693   2.260   8.863   9.203
 1484WAT     H1 4694   2.287   8.821   9.116
 1484WAT     H2 4695   2.337   8.861   9.267
 1485WAT      O 4696   3.564   7.480   7.134
 1485WAT     H1 4697   3.602   7.417   7.202
 1485WAT     H2 4698   3.584   7.445   7.042
 1486WAT      O 4699   3.823   2.561   0.445
 1486WAT     H1 4700   3.873   2.511   0.374
 1486WAT     H2 4701   3.849   2.525   0.535
 1487WAT      O 4702   1.148   5.363   1.246
 1487WAT     H1 4703   1.140   5.283   1.305
 1487WAT     H2 4704   1.057   5.393   1.219
 1488WAT      O 4705   7.454   7.606   8.986
 1488WAT     H1 4706   7.404   7.519   8.985
 1488WAT     H2 4707   7.477   7.630   9.080
 1489WAT      O 4708   6.813   4.933   2.818
 1489WAT     H1 4709   6.877   4.900   2.749
 1489WAT     H2 4710   6.759   4.856   2.852
 1490WAT      O 4711   8.575   2.478   6.448
 1490WAT     H1 4712   8.500   2.539   6.474
 1490WAT     H2 4713   8.655   2.498   6.504
 1491WAT      O 4714   7.581   5.418   8.249
 1491WAT     H1 4715   7.679   5.435   8.250
 1491WAT     H2 4716   7.558   5.362   8.169
 1492WAT      O 4717   5.623   8.721   4.320
 1492WAT     H1 4718   5.713   8.678   4.311
 1492WAT     H2 4719   5.629   8.797   4.385
 1493WAT      O 4720   1.372   9.058   9.027
 1493WAT     H1 4721   1.438   8.988   9.052
 1493WAT     H2 4722   1.331   9.036   8.938
 1494WAT      O 4723   1.494   4.121   2.022
 1494WAT     H1 4724   1.584   4.163   2.036
 1494WAT     H2 4725   1.502   4.021   2.033
 1495WAT      O 4726   6.596   1.264   3.003
 1495WAT     H1 4727   6.578   1.296   2.910
 1495WAT     H2 4728   6.614   1.342   3.063
 1496WAT      O 4729   3.692   3.968   3.861
 1496WAT     H1 4730   3.762   3.988   3.930
 1496WAT     H2 4731   3.695   4.038   3.790
 1497WAT      O 4732   7.742   5.213   9.294
 1497WAT     H1 4733   7.722   5.234   9.390
 1497WAT     H2 4734   7.665   5.242   9.238
 1498WAT      O 4735   3.109   7.549   7.379
 1498WAT     H1 4736   3.037   7.554   7.448
 1498WAT     H2 4737   3.105   7.631   7.321
 1499WAT      O 4738   0.464   3.436   9.611
 1499WAT     H1 4739   0.380   3.448   9.663
 1499WAT     H2 4740   0.454   3.360   9.547
 1500WAT      O 4741   8.142   2.006   1.453
 1500WAT     H1 4742   8.218   2.019   1.389
 1500WAT     H2 4743   8.080   2.084   1.448
 1501WAT      O 4744   0.539   9.238   4.746
 1501WAT     H1 4745   0.508   9.308   4.811
 1501WAT     H2 4746   0.569   9.281   4.661
 1502WAT      O 4747   0.141   4.602   1.726
 1502WAT     H1 4748   0.178   4.509   1.723
 1502WAT     H2 4749   0.180   4.651   1.804
 1503WAT      O 4750   9.114   7.235   2.943
 1503WAT     H1 4751   9.175   7.169   2.899
 1503WAT     H2 4752   9.045   7.187   2.997
 1504WAT      O 4753   0.227   8.990   1.120
 1504WAT     H1 4754   0.159   8.994   1.046
 1504WAT     H2 4755   0.233   9.080   1.164
 1505WAT      O 4756   2.143   8.014   1.088
 1505WAT     H1 4757   2.136   8.049   0.994
 1505WAT     H2 4758   2.231   7.969   1.101
 1506WAT      O 4759   0.213   7.367   2.574
 1506WAT     H1 4760   0.170   7.450   2.609
 1506WAT     H2 4761   0.289   7.391   2.514
 1507WAT      O 4762   2.335   6.387   2.872
 1507WAT     H1 4763   2.256   6.440   2.842
 1507WAT     H2 4764   2.341   6.390   2.971
 1508WAT      O 4765   8.399   8.751   7.574
 1508WAT     H1 4766   8.498   8.766   7.567
 1508WAT     H2 4767   8.358   8.751   7.483
 1509WAT      O 4768   6.529   4.324   7.932
 1509WAT     H1 4769   6.622   4.328   7.895
 1509WAT     H2 4770   6.479   4.405   7.903
 1510WAT      O 4771   4.486   1.220   7.800
 1510WAT     H1 4772   4.482   1.313   7.763
 1510WAT     H2 4773   4.580   1.197   7.822
 1511WAT      O 4774   5.714   2.396   2.031
 1511WAT     H1 4775   5.781   2.368   2.099
 1511WAT     H2 4776   5.654   2.466   2.070
 1512WAT      O 4777   5.447   6.377   4.572
 1512WAT     H1 4778   5.506   6.449   4.534
 1512WAT     H2 4779   5.413   6.319   4.497
 1513WAT      O 4780   1.382   8.859   6.062
 1513WAT     H1 4781   1.329   8.775   6.068
 1513WAT     H2 4782   1.402   8.893   6.154
 1514WAT      O 4783   8.769   3.749   0.972
 1514WAT     H1 4784   8.759   3.654   1.001
 1514WAT     H2 4785   8.710   3.766   0.894
 1515WAT      O 4786   9.181   8.400   7.259
 1515WAT     H1 4787   9.215   8.425   7.350
 1515WAT     H2 4788   9.099   8.453   7.238
 1516WAT      O 4789   2.320   0.125   6.977
 1516WAT     H1 4790   2.369   0.041   6.998
 1516WAT     H2 4791   2.250   0.141   7.046
 1517WAT      O 4792   3.428   0.214   1.964
 1517WAT     H1 4793   3.493   0.287   1.942
 1517WAT     H2 4794   3.418   0.154   1.885
 1518WAT      O 4795   4.936   6.423   7.346
 1518WAT     H1 4796   4.997   6.344   7.360
 1518WAT     H2 4797   4.870   6.401   7.275
 1519WAT      O 4798   2.255   3.415   6.161
 1519WAT     H1 4799   2.289   3.329   6.123
 1519WAT     H2 4800   2.160   3.404   6.189
 1520WAT      O 4801   2.074   7.329   4.101
 1520WAT     H1 4802   2.050   7.256   4.165
 1520WAT     H2 4803   2.159   7.372   4.130
 1521WAT      O 4804   9.554   7.759   0.400
 1521WAT     H1 4805   9.526   7.665   0.418
 1521WAT     H2 4806   9.474   7.819   0.404
 1522WAT      O 4807   2.546   9.645   8.087
 1522WAT     H1 4808   2.622   9.694   8.044
 1522WAT     H2 4809   2.496   9.709   8.147
 1523WAT      O 4810   3.880   9.387   2.900
 1523WAT     H1 4811   3.782   9.387   2.881
 1523WAT     H2 4812   3.919   9.475   2.873
 1524WAT      O 4813   1.696   9.015   3.637
 1524WAT     H1 4814   1.687   9.031   3.736
 1524WAT     H2 4815   1.612   8.972   3.603
 1525WAT      O 4816   6.956   3.543   3.422
 1525WAT     H1 4817   6.965   3.444   3.425
 1525WAT     H2 4818   7.000   3.578   3.339
 1526WAT      O 4819   6.538   6.003   8.677
 1526WAT     H1 4820   6.444   6.023   8.650
 1526WAT     H2 4821   6.600   6.031   8.604
 1527WAT      O 4822   4.532   8.106   1.410
 1527WAT     H1 4823   4.577   8.021   1.384
 1527WAT     H2 4824   4.452   8.086   1.466
 1528WAT      O 4825   3.125   7.716   7.944
 1528WAT     H1 4826   3.044   7.673   7.904
 1528WAT     H2 4827   3.193   7.732   7.873
 1529WAT      O 4828   2.576   2.362   0.126
 1529WAT     H1 4829   2.572   2.354   0.225
 1529WAT     H2 4830   2.620   2.449   0.101
 1530WAT      O 4831   9.005   4.133   8.374
 1530WAT     H1 4832   8.909   4.145   8.399
 1530WAT     H2 4833   9.062   4.195   8.428
 1531WAT      O 4834   3.461   2.091   1.290
 1531WAT     H1 4835   3.450   2.067   1.193
 1531WAT     H2 4836   3.399   2.165   1.313
 1532WAT      O 4837   0.361   9.754   3.151
 1532WAT     H1 4838   0.287   9.693   3.176
 1532WAT     H2 4839   0.405   9.788   3.235
 1533WAT      O 4840   0.148   4.715   5.286
 1533WAT     H1 4841   0.237   4.757   5.301
 1533WAT     H2 4842   0.076   4.776   5.318
 1534WAT      O 4843   1.086   4.714   5.986
 1534WAT     H1 4844   1.181   4.699   6.011
 1534WAT     H2 4845   1.043   4.778   6.050
 1535WAT      O 4846   5.691   2.078   9.289
 1535WAT     H1 4847   5.685   2.076   9.389
 1535WAT     H2 4848   5.759   2.146   9.261
 1536WAT      O 4849   9.143   5.673   6.083
 1536WAT     H1 4850   9.046   5.691   6.074
 1536WAT     H2 4851   9.183   5.655   5.993
 1537WAT      O 4852   7.234   5.272   6.661
 1537WAT     H1 4853   7.284   5.186   6.671
 1537WAT     H2 4854   7.166   5.279   6.734
 1538WAT      O 4855   5.621   3.791   3.033
 1538WAT     H1 4856   5.707   3.811   2.985
 1538WAT     H2 4857   5.550   3.852   2.998
 1539WAT      O 4858   4.455   8.449   4.643
 1539WAT     H1 4859   4.505   8.517   4.590
 1539WAT     H2 4860   4.497   8.359   4.629
 1540WAT      O 4861   0.915   8.035   2.958
 1540WAT     H1 4862   0.947   7.940   2.966
 1540WAT     H2 4863   0.854   8.056   3.035
 1541WAT      O 4864   4.695   7.806   8.542
 1541WAT     H1 4865   4.673   7.897   8.579
 1541WAT     H2 4866   4.718   7.814   8.445
 1542WAT      O 4867   2.309   6.904   5.712
 1542WAT     H1 4868   2.289   6.916   5.615
 1542WAT     H2 4869   2.385   6.963   5.739
 1543WAT      O 4870   3.030   3.916   6.700
 1543WAT     H1 4871   3.010   3.977   6.777
 1543WAT     H2 4872   2.966   3.936   6.626
 1544WAT      O 4873   8.598   8.998   0.128
 1544WAT     H1 4874   8.678   9.057   0.119
 1544WAT     H2 4875   8.555   9.014   0.217
 1545WAT      O 4876   2.122   4.256   2.059
 1545WAT     H1 4877   2.142   4.220   1.968
 1545WAT     H2 4878   2.206   4.258   2.113
 1546WAT      O 4879   8.105   7.932   8.737
 1546WAT     H1 4880   8.012   7.903   8.758
 1546WAT     H2 4881   8.144   7.979   8.816
 1547WAT      O 4882   1.049   3.384   0.198
 1547WAT     H1 4883   1.019   3.408   0.290
 1547WAT     H2 4884   1.107   3.457   0.161
 1548WAT      O 4885   8.185   7.625   0.817
 1548WAT     H1 4886   8.160   7.708   0.867
 1548WAT     H2 4887   8.154   7.545   0.867
 1549WAT      O 4888   9.020   8.650   8.527
 1549WAT     H1 4889   8.942   8.654   8.465
 1549WAT     H2 4890   9.095   8.704   8.489
 1550WAT      O 4891   8.606   0.205   2.636
 1550WAT     H1 4892   8.602   0.266   2.715
 1550WAT     H2 4893   8.677   0.136   2.651
 1551WAT      O 4894   3.871   6.343   2.151
 1551WAT     H1 4895   3.875   6.433   2.107
 1551WAT     H2 4896   3.938   6.282   2.109
 1552WAT      O 4897   6.141   0.093   1.840
 1552WAT     H1 4898   6.234   0.065   1.865
 1552WAT     H2 4899   6.109   0.163   1.905
 1553WAT      O 4900   5.616   4.157   9.115
 1553WAT     H1 4901   5.605   4.233   9.051
 1553WAT     H2 4902   5.695   4.175   9.174
 1554WAT      O 4903   0.379   6.925   6.368
 1554WAT     H1 4904   0.418   6.881   6.288
 1554WAT     H2 4905   0.403   6.873   6.450
 1555WAT      O 4906   8.841   6.277   7.635
 1555WAT     H1 4907   8.839   6.190   7.684
 1555WAT     H2 4908   8.758   6.329   7.655
 1556WAT      O 4909   7.586   4.694   9.197
 1556WAT     H1 4910   7.596   4.700   9.296
 1556WAT     H2 4911   7.623   4.607   9.165
 1557WAT      O 4912   9.095   5.860   3.876
 1557WAT     H1 4913   9.065   5.954   3.858
 1557WAT     H2 4914   9.045   5.797   3.817
 1558WAT      O 4915   7.663   6.958   3.807
 1558WAT     H1 4916   7.593   6.941   3.877
 1558WAT     H2 4917   7.729   7.024   3.842
 1559WAT      O 4918   4.668   4.102   6.184
 1559WAT     H1 4919   4.698   4.189   6.143
 1559WAT     H2 4920   4.747   4.046   6.205
 1560WAT      O 4921   7.572   5.539   6.037
 1560WAT     H1 4922   7.544   5.632   6.062
 1560WAT     H2 4923   7.492   5.479   6.038
 1561WAT      O 4924   4.301   6.448   5.011
 1561WAT     H1 4925   4.330   6.465   4.917
 1561WAT     H2 4926   4.279   6.351   5.023
 1562WAT      O 4927   3.436   6.793   8.233
 1562WAT     H1 4928   3.528   6.832   8.236
 1562WAT     H2 4929   3.369   6.864   8.258
 1563WAT      O 4930   0.660   2.353   9.279
 1563WAT     H1 4931   0.683   2.308   9.193
 1563WAT     H2 4932   0.643   2.450   9.263
 1564WAT      O 4933   1.503   1.875   3.986
 1564WAT     H1 4934   1.427   1.814   3.963
 1564WAT     H2 4935   1.515   1.878   4.085
 1565WAT      O 4936   6.386   7.979   8.050
 1565WAT     H1 4937   6.480   7.952   8.029
 1565WAT     H2 4938   6.326   7.953   7.975
 1566WAT      O 4939   5.069   1.558   6.743
 1566WAT     H1 4940   5.116   1.513   6.667
 1566WAT     H2 4941   4.982   1.596   6.711
 1567WAT      O 4942   2.420   5.173   3.408
 1567WAT     H1 4943   2.383   5.163   3.500
 1567WAT     H2 4944   2.348   5.204   3.346
 1568WAT      O 4945   8.487   0.642   9.254
 1568WAT     H1 4946   8.387   0.633   9.253
 1568WAT     H2 4947   8.512   0.739   9.248
 1569WAT      O 4948   4.666   7.362   7.687
 1569WAT     H1 4949   4.681   7.453   7.727
 1569WAT     H2 4950   4.665   7.368   7.588
 1570WAT      O 4951   1.435   7.535   0.378
 1570WAT     H1 4952   1.425   7.476   0.459
 1570WAT     H2 4953   1.511   7.501   0.322
 1571WAT      O 4954   4.235   0.050   6.719
 1571WAT     H1 4955   4.239   0.117   6.645
 1571WAT     H2 4956   4.272  -0.037   6.687
 1572WAT      O 4957   9.601   2.629   3.397
 1572WAT     H1 4958   9.562   2.563   3.461
 1572WAT     H2 4959   9.667   2.584   3.338
 1573WAT      O 4960   9.590   3.515   1.075
 1573WAT     H1 4961   9.505   3.532   1.126
 1573WAT     H2 4962   9.656   3.470   1.135
 1574WAT      O 4963   0.080   7.599   5.555
 1574WAT     H1 4964   0.043   7.586   5.463
 1574WAT     H2 4965   0.139   7.522   5.579
 1575WAT      O 4966   3.946   5.856   9.556
 1575WAT     H1 4967   3.991   5.882   9.642
 1575WAT     H2 4968   3.950   5.932   9.492
 1576WAT      O 4969   9.360   2.620   2.638
 1576WAT     H1 4970   9.325   2.535   2.678
 1576WAT     H2 4971   9.313   2.698   2.679
 1577WAT      O 4972   5.291   7.563   0.144
 1577WAT     H1 4973   5.254   7.626   0.212
 1577WAT     H2 4974   5.261   7.470   0.166
 1578WAT      O 4975   3.714   6.320   6.142
 1578WAT     H1 4976   3.639   6.261   6.113
 1578WAT     H2 4977   3.766   6.350   6.062
 1579WAT      O 4978   1.989   8.364   2.582
 1579WAT     H1 4979   2.072   8.350   2.529
 1579WAT     H2 4980   1.968   8.282   2.636
 1580WAT      O 4981   7.062   4.706   6.505
 1580WAT     H1 4982   7.015   4.669   6.425
 1580WAT     H2 4983   7.154   4.669   6.510
 1581WAT      O 4984   6.784   4.121   0.398
 1581WAT     H1 4985   6.746   4.068   0.321
 1581WAT     H2 4986   6.780   4.066   0.481
 1582WAT      O 4987   0.474   3.268   2.434
 1582WAT     H1 4988   0.552   3.318   2.472
 1582WAT     H2 4989   0.507   3.185   2.389
 1583WAT      O 4990   0.796   5.326   0.650
 1583WAT     H1 4991   0.873   5.378   0.614
 1583WAT     H2 4992   0.714   5.382   0.650
 1584WAT      O 4993   4.245   8.887   6.123
 1584WAT     H1 4994   4.281   8.835   6.200
 1584WAT     H2 4995   4.266   8.839   6.037
 1585WAT      O 4996   6.893   0.384   8.276
 1585WAT     H1 4997   6.835   0.344   8.205
 1585WAT     H2 4998   6.957   0.316   8.310
 1586WAT      O 4999   6.567   6.011   9.315
 1586WAT     H1 5000   6.635   5.938   9.308
 1586WAT     H2 5001   6.477   5.976   9.290
 1587WAT      O 5002   8.922   6.850   7.265
 1587WAT     H1 5003   8.977   6.879   7.187
 1587WAT     H2 5004   8.840   6.802   7.233
 1588WAT      O 5005   6.360   3.015   9.405
 1588WAT     H1 5006   6.346   3.044   9.310
 1588WAT     H2 5007   6.457   2.995   9.420
 1589WAT      O 5008   9.821   3.142   7.372
 1589WAT     H1 5009   9.850   3.099   7.458
 1589WAT     H2 5010   9.749   3.087   7.330
 1590WAT      O 5011   9.284   3.673   4.524
 1590WAT     H1 5012   9.376   3.635   4.524
 1590WAT     H2 5013   9.269   3.726   4.607
 1591WAT      O 5014   3.108   6.123   9.645
 1591WAT     H1 5015   3.147   6.049   9.591
 1591WAT     H2 5016   3.008   6.123   9.634
 1592WAT      O 5017   4.412   3.392   0.119
 1592WAT     H1 5018   4.379   3.473   0.168
 1592WAT     H2 5019   4.358   3.312   0.146
 1593WAT      O 5020   6.309   8.616   1.830
 1593WAT     H1 5021   6.320   8.619   1.731
 1593WAT     H2 5022   6.212   8.617   1.853
 1594WAT      O 5023   2.874   1.121   2.404
 1594WAT     H1 5024   2.923   1.195   2.449
 1594WAT     H2 5025   2.894   1.035   2.451
 1595WAT      O 5026   9.478   7.656   7.298
 1595WAT     H1 5027   9.387   7.685   7.328
 1595WAT     H2 5028   9.471   7.611   7.210
 1596WAT      O 5029   1.188   2.648   2.302
 1596WAT     H1 5030   1.266   2.621   2.360
 1596WAT     H2 5031   1.144   2.566   2.265
 1597WAT      O 5032   4.694   7.773   2.719
 1597WAT     H1 5033   4.691   7.873   2.722
 1597WAT     H2 5034   4.684   7.742   2.625
 1598WAT      O 5035   8.677   0.688   8.950
 1598WAT     H1 5036   8.761   0.731   8.915
 1598WAT     H2 5037   8.675   0.697   9.050
 1599WAT      O 5038   9.824   3.470   2.173
 1599WAT     H1 5039   9.725   3.477   2.163
 1599WAT     H2 5040   9.849   3.491   2.267
 1600WAT      O 5041   4.646   4.562   8.477
 1600WAT     H1 5042   4.712   4.494   8.444
 1600WAT     H2 5043   4.680   4.604   8.561
 1601WAT      O 5044   1.121   5.169   1.448
 1601WAT     H1 5045   1.058   5.118   1.508
 1601WAT     H2 5046   1.207   5.185   1.496
 1602WAT      O 5047   1.877   1.917   4.979
 1602WAT     H1 5048   1.883   1.951   4.886
 1602WAT     H2 5049   1.799   1.855   4.987
 1603WAT      O 5050   3.718   3.344   4.295
 1603WAT     H1 5051   3.663   3.403   4.236
 1603WAT     H2 5052   3.699   3.367   4.391
 1604WAT      O 5053   3.679   4.270   7.183
 1604WAT     H1 5054   3.759   4.328   7.199
 1604WAT     H2 5055   3.677   4.196   7.251
 1605WAT      O 5056   3.634   5.403   5.028
 1605WAT     H1 5057   3.685   5.319   5.012
 1605WAT     H2 5058   3.568   5.389   5.102
 1606WAT      O 5059   0.926   9.234   2.666
 1606WAT     H1 5060   1.022   9.226   2.637
 1606WAT     H2 5061   0.919   9.211   2.763
 1607WAT      O 5062   5.851   0.888   3.395
 1607WAT     H1 5063   5.840   0.791   3.413
 1607WAT     H2 5064   5.903   0.930   3.469
 1608WAT      O 5065   4.398   1.782   1.489
 1608WAT     H1 5066   4.357   1.707   1.438
 1608WAT     H2 5067   4.468   1.746   1.551
 1609WAT      O 5068   9.124   6.466   7.140
 1609WAT     H1 5069   9.100   6.498   7.232
 1609WAT     H2 5070   9.042   6.431   7.094
 1610WAT      O 5071   5.868   3.620   8.840
 1610WAT     H1 5072   5.883   3.659   8.931
 1610WAT     H2 5073   5.898   3.685   8.771
 1611WAT      O 5074   4.215   9.194   6.807
 1611WAT     H1 5075   4.190   9.291   6.808
 1611WAT     H2 5076   4.247   9.168   6.716
 1612WAT      O 5077   8.970   6.860   6.833
 1612WAT     H1 5078   9.007   6.936   6.886
 1612WAT     H2 5079   8.998   6.774   6.874
 1613WAT      O 5080   1.983   3.576   0.204
 1613WAT     H1 5081   1.946   3.483   0.201
 1613WAT     H2 5082   1.915   3.640   0.169
 1614WAT      O 5083   5.345   5.738   1.702
 1614WAT     H1 5084   5.397   5.654   1.716
 1614WAT     H2 5085   5.366   5.803   1.775
 1615WAT      O 5086   3.108   7.138   7.015
 1615WAT     H1 5087   3.206   7.129   7.034
 1615WAT     H2 5088   3.095   7.182   6.926
 1616WAT      O 5089   3.768   1.432   3.902
 1616WAT     H1 5090   3.850   1.452   3.956
 1616WAT     H2 5091   3.693   1.407   3.964
 1617WAT      O 5092   5.345   8.236   7.726
 1617WAT     H1 5093   5.341   8.329   7.691
 1617WAT     H2 5094   5.262   8.186   7.699
 1618WAT      O 5095   8.753   5.251   5.671
 1618WAT     H1 5096   8.779   5.177   5.734
 1618WAT     H2 5097   8.653   5.253   5.664
 1619WAT      O 5098   4.875   0.658   8.421
 1619WAT     H1 5099   4.872   0.566   8.381
 1619WAT     H2 5100   4.969   0.678   8.449
 1620WAT      O 5101   1.312   3.312   6.040
 1620WAT     H1 5102   1.286   3.275   6.130
 1620WAT     H2 5103   1.409   3.296   6.025
 1621WAT      O 5104   1.733   5.396   5.385
 1621WAT     H1 5105   1.735   5.392   5.485
 1621WAT     H2 5106   1.753   5.490   5.355
 1622WAT      O 5107   6.871   6.466   2.004
 1622WAT     H1 5108   6.810   6.545   2.003
 1622WAT     H2 5109   6.820   6.385   1.976
 1623WAT      O 5110   0.298   3.851   4.574
 1623WAT     H1 5111   0.227   3.813   4.633
 1623WAT     H2 5112   0.388   3.834   4.614
 1624WAT      O 5113   0.946   6.443   7.104
 1624WAT     H1 5114   0.931   6.542   7.109
 1624WAT     H2 5115   0.985   6.411   7.191
 1625WAT      O 5116   4.705   8.193   2.483
 1625WAT     H1 5117   4.705   8.127   2.408
 1625WAT     H2 5118   4.713   8.145   2.570
 1626WAT      O 5119   6.683   9.471   2.629
 1626WAT     H1 5120   6.706   9.474   2.727
 1626WAT     H2 5121   6.763   9.496   2.575
 1627WAT      O 5122   6.871   6.791   1.907
 1627WAT     H1 5123   6.948   6.779   1.845
 1627WAT     H2 5124   6.804   6.717   1.892
 1628WAT      O 5125   0.399   3.225   9.023
 1628WAT     H1 5126   0.423   3.257   8.931
 1628WAT     H2 5127   0.335   3.149   9.017
 1629WAT      O 5128   7.405   3.497   5.185
 1629WAT     H1 5129   7.374   3.485   5.091
 1629WAT     H2 5130   7.481   3.562   5.187
 1630WAT      O 5131   0.715   2.131   6.095
 1630WAT     H1 5132   0.642   2.180   6.143
 1630WAT     H2 5133   0.783   2.197   6.063
 1631WAT      O 5134   6.458   9.221   8.782
 1631WAT     H1 5135   6.552   9.251   8.800
 1631WAT     H2 5136   6.439   9.137   8.832
 1632WAT      O 5137   0.475   6.683   6.556
 1632WAT     H1 5138   0.566   6.701   6.518
 1632WAT     H2 5139   0.413   6.656   6.483
 1633WAT      O 5140   9.774   8.660   3.179
 1633WAT     H1 5141   9.777   8.583   3.243
 1633WAT     H2 5142   9.705   8.726   3.209
 1634WAT      O 5143   5.865   7.862   7.000
 1634WAT     H1 5144   5.774   7.825   7.013
 1634WAT     H2 5145   5.882   7.875   6.902
 1635WAT      O 5146   2.982   2.250   2.700
 1635WAT     H1 5147   2.962   2.205   2.614
 1635WAT     H2 5148   3.068   2.301   2.692
 1636WAT      O 5149   4.764   9.017   0.916
 1636WAT     H1 5150   4.803   9.002   1.007
 1636WAT     H2 5151   4.673   8.975   0.912
 1637WAT      O 5152   2.617   0.779   6.017
 1637WAT     H1 5153   2.569   0.845   5.960
 1637WAT     H2 5154   2.650   0.824   6.100
 1638WAT      O 5155   1.317   5.732   4.585
 1638WAT     H1 5156   1.228   5.779   4.585
 1638WAT     H2 5157   1.372   5.766   4.509
 1639WAT      O 5158   7.802   5.888   0.578
 1639WAT     H1 5159   7.823   5.814   0.515
 1639WAT     H2 5160   7.882   5.947   0.589
 1640WAT      O 5161   0.098   8.152   1.860
 1640WAT     H1 5162   0.071   8.168   1.955
 1640WAT     H2 5163   0.183   8.201   1.840
 1641WAT      O 5164   3.774   9.005   4.201
 1641WAT     H1 5165   3.805   9.099   4.192
 1641WAT     H2 5166   3.847   8.949   4.240
 1642WAT      O 5167   3.469   5.030   0.725
 1642WAT     H1 5168   3.480   5.127   0.746
 1642WAT     H2 5169   3.487   4.976   0.807
 1643WAT      O 5170   4.626   1.645   8.260
 1643WAT     H1 5171   4.552   1.619   8.323
 1643WAT     H2 5172   4.651   1.568   8.203
 1644WAT      O 5173   6.549   4.817   2.035
 1644WAT     H1 5174   6.645   4.837   2.015
 1644WAT     H2 5175   6.516   4.881   2.105
 1645WAT      O 5176   4.339   7.757   7.988
 1645WAT     H1 5177   4.367   7.702   7.909
 1645WAT     H2 5178   4.397   7.838   7.994
 1646WAT      O 5179   9.145   5.358   7.426
 1646WAT     H1 5180   9.172   5.264   7.448
 1646WAT     H2 5181   9.163   5.417   7.505
 1647WAT      O 5182   3.182   9.150   3.350
 1647WAT     H1 5183   3.229   9.198   3.425
 1647WAT     H2 5184   3.141   9.066   3.384
 1648WAT      O 5185   4.248   0.445   8.982
 1648WAT     H1 5186   4.152   0.471   8.975
 1648WAT     H2 5187   4.295   0.465   8.896
 1649WAT      O 5188   7.813   5.353   5.387
 1649WAT     H1 5189   7.886   5.420   5.382
 1649WAT     H2 5190   7.725   5.399   5.376
 1650WAT      O 5191   7.945   0.462   7.034
 1650WAT     H1 5192   8.004   0.542   7.042
 1650WAT     H2 5193   7.934   0.419   7.123
 1651WAT      O 5194   9.858   1.694   5.937
 1651WAT     H1 5195   9.884   1.776   5.987
 1651WAT     H2 5196   9.759   1.680   5.944
 1652WAT      O 5197   5.884   5.100   8.987
 1652WAT     H1 5198   5.935   5.083   9.071
 1652WAT     H2 5199   5.885   5.018   8.930
 1653WAT      O 5200   1.669   6.764   8.958
 1653WAT     H1 5201   1.685   6.862   8.975
 1653WAT     H2 5202   1.627   6.753   8.868
 1654WAT      O 5203   5.656   4.958   4.899
 1654WAT     H1 5204   5.579   5.016   4.925
 1654WAT     H2 5205   5.739   5.014   4.893
 1655WAT      O 5206   7.510   2.456   8.505
 1655WAT     H1 5207   7.571   2.481   8.580
 1655WAT     H2 5208   7.513   2.357   8.491
 1656WAT      O 5209   5.331   6.429   8.343
 1656WAT     H1 5210   5.372   6.520   8.351
 1656WAT     H2 5211   5.235   6.433   8.372
 1657WAT      O 5212   7.977   3.850   8.215
 1657WAT     H1 5213   7.928   3.787   8.276
 1657WAT     H2 5214   8.070   3.863   8.249
 1658WAT      O 5215   1.642   2.639   5.938
 1658WAT     H1 5216   1.731   2.673   5.967
 1658WAT     H2 5217   1.588   2.613   6.019
 1659WAT      O 5218   8.576   7.346   9.136
 1659WAT     H1 5219   8.627   7.417   9.087
 1659WAT     H2 5220   8.637   7.302   9.202
 1660WAT      O 5221   5.900   5.737   5.747
 1660WAT     H1 5222   5.826   5.749   5.681
 1660WAT     H2 5223   5.949   5.652   5.726
 1661WAT      O 5224   1.265   0.712   4.384
 1661WAT     H1 5225   1.260   0.734   4.286
 1661WAT     H2 5226   1.353   0.744   4.420
 1662WAT      O 5227   8.780   3.490   8.925
 1662WAT     H1 5228   8.771   3.412   8.988
 1662WAT     H2 5229   8.751   3.462   8.833
 1663WAT      O 5230   6.067   1.212   7.947
 1663WAT     H1 5231   6.024   1.271   8.015
 1663WAT     H2 5232   6.148   1.259   7.910
 1664WAT      O 5233   3.585   5.814   3.001
 1664WAT     H1 5234   3.497   5.768   3.006
 1664WAT     H2 5235   3.594   5.879   3.076
 1665WAT      O 5236   2.185   6.062   1.318
 1665WAT     H1 5237   2.133   6.072   1.233
 1665WAT     H2 5238   2.194   6.151   1.362
 1666WAT      O 5239   9.806   1.631   3.632
 1666WAT     H1 5240   9.784   1.630   3.730
 1666WAT     H2 5241   9.898   1.669   3.619
 1667WAT      O 5242   0.071   6.913   0.957
 1667WAT     H1 5243   0.082   6.842   1.027
 1667WAT     H2 5244   0.096   6.876   0.867
 1668WAT      O 5245   1.502   6.693   5.660
 1668WAT     H1 5246   1.447   6.706   5.577
 1668WAT     H2 5247   1.493   6.599   5.692
 1669WAT      O 5248   8.153   9.000   6.861
 1669WAT     H1 5249   8.182   9.096   6.868
 1669WAT     H2 5250   8.141   8.962   6.953
 1670WAT      O 5251   6.014   1.926   3.281
 1670WAT     H1 5252   6.104   1.966   3.266
 1670WAT     H2 5253   6.009   1.888   3.373
 1671WAT      O 5254   5.984   0.594   2.281
 1671WAT     H1 5255   6.039   0.513   2.301
 1671WAT     H2 5256   5.892   0.582   2.317
 1672WAT      O 5257   3.127   9.254   4.481
 1672WAT     H1 5258   3.108   9.241   4.384
 1672WAT     H2 5259   3.123   9.352   4.503
 1673WAT      O 5260   3.811   0.204   3.172
 1673WAT     H1 5261   3.906   0.215   3.141
 1673WAT     H2 5262   3.760   0.286   3.150
 1674WAT      O 5263   1.033   3.025   0.986
 1674WAT     H1 5264   1.026   2.987   1.079
 1674WAT     H2 5265   1.092   3.106   0.988
 1675WAT      O 5266   1.497   3.700   4.213
 1675WAT     H1 5267   1.569   3.631   4.204
 1675WAT     H2 5268   1.486   3.749   4.127
 1676WAT      O 5269   6.044   1.336   0.335
 1676WAT     H1 5270   5.977   1.361   0.265
 1676WAT     H2 5271   5.999   1.280   0.405
 1677WAT      O 5272   6.105   3.375   0.056
 1677WAT     H1 5273   6.172   3.330  -0.002
 1677WAT     H2 5274   6.147   3.399   0.144
 1678WAT      O 5275   8.455   1.548   6.541
 1678WAT     H1 5276   8.380   1.566   6.477
 1678WAT     H2 5277   8.542   1.576   6.498
 1679WAT      O 5278   6.551   9.428   5.682
 1679WAT     H1 5279   6.495   9.359   5.729
 1679WAT     H2 5280   6.617   9.381   5.623
 1680WAT      O 5281   2.224   0.515   0.701
 1680WAT     H1 5282   2.137   0.465   0.693
 1680WAT     H2 5283   2.300   0.451   0.695
 1681WAT      O 5284   9.546   8.516   4.511
 1681WAT     H1 5285   9.535   8.612   4.538
 1681WAT     H2 5286   9.643   8.491   4.516
 1682WAT      O 5287   8.393   6.690   7.240
 1682WAT     H1 5288   8.344   6.764   7.193
 1682WAT     H2 5289   8.333   6.612   7.253
 1683WAT      O 5290   2.184   4.195   5.608
 1683WAT     H1 5291   2.205   4.133   5.532
 1683WAT     H2 5292   2.088   4.187   5.632
 1684WAT      O 5293   0.982   0.641   4.986
 1684WAT     H1 5294   1.034   0.562   5.018
 1684WAT     H2 5295   0.886   0.616   4.975
 1685WAT      O 5296   1.925   3.318   7.885
 1685WAT     H1 5297   2.010   3.271   7.861
 1685WAT     H2 5298   1.848   3.276   7.836
 1686WAT      O 5299   5.806   4.515   6.121
 1686WAT     H1 5300   5.830   4.549   6.031
 1686WAT     H2 5301   5.869   4.442   6.148
 1687WAT      O 5302   6.008   9.059   5.374
 1687WAT     H1 5303   6.041   9.096   5.461
 1687WAT     H2 5304   5.929   9.113   5.343
 1688WAT      O 5305   5.092   4.237   5.958
 1688WAT     H1 5306   5.156   4.210   6.030
 1688WAT     H2 5307   5.035   4.313   5.990
 1689WAT      O 5308   7.240   4.465   2.107
 1689WAT     H1 5309   7.222   4.517   2.023
 1689WAT     H2 5310   7.299   4.387   2.086
 1690WAT      O 5311   5.136   2.405   6.330
 1690WAT     H1 5312   5.074   2.480   6.354
 1690WAT     H2 5313   5.192   2.380   6.409
 1691WAT      O 5314   6.605   9.731   9.209
 1691WAT     H1 5315   6.510   9.743   9.239
 1691WAT     H2 5316   6.648   9.821   9.200
 1692WAT      O 5317   4.775   1.256   7.377
 1692WAT     H1 5318   4.758   1.186   7.446
 1692WAT     H2 5319   4.688   1.285   7.338
 1693WAT      O 5320   8.284   4.122   6.452
 1693WAT     H1 5321   8.244   4.089   6.537
 1693WAT     H2 5322   8.354   4.058   6.420
 1694WAT      O 5323   8.306   5.118   8.941
 1694WAT     H1 5324   8.236   5.079   8.883
 1694WAT     H2 5325   8.396   5.087   8.911
 1695WAT      O 5326   7.352   4.797   7.231
 1695WAT     H1 5327   7.328   4.876   7.286
 1695WAT     H2 5328   7.289   4.722   7.250
 1696WAT      O 5329   0.652   0.807   1.486
 1696WAT     H1 5330   0.655   0.878   1.416
 1696WAT     H2 5331   0.573   0.823   1.546
 1697WAT      O 5332   5.653   4.654   2.736
 1697WAT     H1 5333   5.568   4.670   2.686
 1697WAT     H2 5334   5.659   4.717   2.813
 1698WAT      O 5335   9.146   7.802   2.051
 1698WAT     H1 5336   9.047   7.804   2.040
 1698WAT     H2 5337   9.176   7.885   2.098
 1699WAT      O 5338   5.297   1.399   0.863
 1699WAT     H1 5339   5.369   1.440   0.808
 1699WAT     H2 5340   5.207   1.425   0.826
 1700WAT      O 5341   9.888   5.487   3.636
 1700WAT     H1 5342   9.891   5.428   3.556
 1700WAT     H2 5343   9.807   5.546   3.632
 1701WAT      O 5344   7.094   4.206   7.434
 1701WAT     H1 5345   7.160   4.266   7.389
 1701WAT     H2 5346   7.098   4.115   7.394
 1702WAT      O 5347   4.370   3.931   6.103
 1702WAT     H1 5348   4.293   3.912   6.043
 1702WAT     H2 5349   4.398   4.026   6.090
 1703WAT      O 5350   3.831   8.088   7.367
 1703WAT     H1 5351   3.907   8.086   7.432
 1703WAT     H2 5352   3.802   7.994   7.346
 1704WAT      O 5353   1.634   0.700   1.748
 1704WAT     H1 5354   1.663   0.759   1.824
 1704WAT     H2 5355   1.549   0.653   1.773
 1705WAT      O 5356   6.633   1.207   4.988
 1705WAT     H1 5357   6.665   1.239   4.899
 1705WAT     H2 5358   6.710   1.169   5.039
 1706WAT      O 5359   6.126   5.804   0.218
 1706WAT     H1 5360   6.216   5.787   0.257
 1706WAT     H2 5361   6.133   5.874   0.147
 1707WAT      O 5362   0.453   3.938   2.103
 1707WAT     H1 5363   0.359   3.960   2.078
 1707WAT     H2 5364   0.501   3.901   2.023
 1708WAT      O 5365   3.700   5.346   3.636
 1708WAT     H1 5366   3.721   5.362   3.539
 1708WAT     H2 5367   3.781   5.308   3.681
 1709WAT      O 5368   4.532   6.239   7.480
 1709WAT     H1 5369   4.474   6.232   7.562
 1709WAT     H2 5370   4.521   6.330   7.440
 1710WAT      O 5371   8.858   1.954   3.759
 1710WAT     H1 5372   8.810   2.035   3.794
 1710WAT     H2 5373   8.901   1.906   3.835
 1711WAT      O 5374   9.107   7.115   2.195
 1711WAT     H1 5375   9.192   7.067   2.219
 1711WAT     H2 5376   9.046   7.117   2.274
 1712WAT      O 5377   3.878   3.690   6.508
 1712WAT     H1 5378   3.913   3.723   6.420
 1712WAT     H2 5379   3.877   3.766   6.574
 1713WAT      O 5380   3.682   6.631   8.925
 1713WAT     H1 5381   3.710   6.536   8.936
 1713WAT     H2 5382   3.602   6.650   8.982
 1714WAT      O 5383   8.342   7.985   2.269
 1714WAT     H1 5384   8.329   7.890   2.298
 1714WAT     H2 5385   8.260   8.018   2.224
 1715WAT      O 5386   2.472   5.056   4.283
 1715WAT     H1 5387   2.436   4.984   4.342
 1715WAT     H2 5388   2.396   5.105   4.240
 1716WAT      O 5389   2.545   7.630   3.835
 1716WAT     H1 5390   2.490   7.646   3.753
 1716WAT     H2 5391   2.639   7.661   3.819
 1717WAT      O 5392   7.769   6.361   0.938
 1717WAT     H1 5393   7.747   6.277   0.887
 1717WAT     H2 5394   7.868   6.373   0.940
 1718WAT      O 5395   6.277   3.853   0.087
 1718WAT     H1 5396   6.317   3.922   0.027
 1718WAT     H2 5397   6.252   3.896   0.175
 1719WAT      O 5398   4.412   8.354   1.792
 1719WAT     H1 5399   4.445   8.448   1.804
 1719WAT     H2 5400   4.469   8.308   1.724
 1720WAT      O 5401   4.977   4.730   0.565
 1720WAT     H1 5402   5.069   4.712   0.531
 1720WAT     H2 5403   4.939   4.646   0.605
 1721WAT      O 5404   9.129   1.449   1.625
 1721WAT     H1 5405   9.179   1.519   1.575
 1721WAT     H2 5406   9.059   1.409   1.566
 1722WAT      O 5407   0.947   6.643   4.699
 1722WAT     H1 5408   0.980   6.737   4.697
 1722WAT     H2 5409   0.983   6.597   4.781
 1723WAT      O 5410   6.060   0.471   0.194
 1723WAT     H1 5411   6.039   0.390   0.140
 1723WAT     H2 5412   6.088   0.443   0.286
 1724WAT      O 5413   2.718   9.540   6.902
 1724WAT     H1 5414   2.762   9.458   6.865
 1724WAT     H2 5415   2.758   9.621   6.859
 1725WAT      O 5416   4.989   8.273   3.556
 1725WAT     H1 5417   4.939   8.326   3.625
 1725WAT     H2 5418   4.933   8.196   3.526
 1726WAT      O 5419   8.222   4.164   1.196
 1726WAT     H1 5420   8.203   4.261   1.214
 1726WAT     H2 5421   8.300   4.156   1.134
 1727WAT      O 5422   7.026   3.342   5.473
 1727WAT     H1 5423   7.073   3.396   5.403
 1727WAT     H2 5424   6.936   3.317   5.440
 1728WAT      O 5425   3.035   5.297   8.549
 1728WAT     H1 5426   2.961   5.290   8.616
 1728WAT     H2 5427   3.120   5.319   8.596
 1729WAT      O 5428   8.020   3.226   2.950
 1729WAT     H1 5429   7.975   3.152   3.000
 1729WAT     H2 5430   7.951   3.294   2.922
 1730WAT      O 5431   7.221   0.898   9.030
 1730WAT     H1 5432   7.270   0.918   9.115
 1730WAT     H2 5433   7.237   0.802   9.004
 1731WAT      O 5434   1.098   4.134   4.357
 1731WAT     H1 5435   1.021   4.086   4.314
 1731WAT     H2 5436   1.164   4.068   4.390
 1732WAT      O 5437   5.517   5.776   8.041
 1732WAT     H1 5438   5.481   5.754   7.950
 1732WAT     H2 5439   5.443   5.774   8.108
 1733WAT      O 5440   6.067   0.933   6.821
 1733WAT     H1 5441   6.145   0.962   6.766
 1733WAT     H2 5442   6.027   0.850   6.781
 1734WAT      O 5443   7.939   8.246   2.622
 1734WAT     H1 5444   7.902   8.252   2.529
 1734WAT     H2 5445   7.865   8.225   2.686
 1735WAT      O 5446   8.172   0.082   2.087
 1735WAT     H1 5447   8.187   0.028   2.169
 1735WAT     H2 5448   8.260   0.112   2.049
 1736WAT      O 5449   8.402   1.440   4.107
 1736WAT     H1 5450   8.431   1.536   4.102
 1736WAT     H2 5451   8.302   1.436   4.106
 1737WAT      O 5452   8.831   3.410   9.338
 1737WAT     H1 5453   8.877   3.394   9.426
 1737WAT     H2 5454   8.747   3.462   9.354
 1738WAT      O 5455   1.045   3.387   8.625
 1738WAT     H1 5456   0.973   3.343   8.570
 1738WAT     H2 5457   1.131   3.384   8.575
 1739WAT      O 5458   4.460   1.835   2.647
 1739WAT     H1 5459   4.489   1.787   2.730
 1739WAT     H2 5460   4.444   1.768   2.574
 1740WAT      O 5461   7.643   2.469   4.244
 1740WAT     H1 5462   7.695   2.543   4.202
 1740WAT     H2 5463   7.704   2.391   4.259
 1741WAT      O 5464   2.763   1.934   4.693
 1741WAT     H1 5465   2.819   1.872   4.639
 1741WAT     H2 5466   2.695   1.882   4.745
 1742WAT      O 5467   3.249   7.742   6.569
 1742WAT     H1 5468   3.217   7.691   6.489
 1742WAT     H2 5469   3.342   7.775   6.553
 1743WAT      O 5470   3.571   7.261   6.588
 1743WAT     H1 5471   3.647   7.254   6.653
 1743WAT     H2 5472   3.485   7.260   6.639
 1744WAT      O 5473   3.121   0.311   6.665
 1744WAT     H1 5474   3.164   0.369   6.735
 1744WAT     H2 5475   3.029   0.346   6.646
 1745WAT      O 5476   3.974   3.953   1.414
 1745WAT     H1 5477   3.980   3.865   1.367
 1745WAT     H2 5478   4.054   4.008   1.391
 1746WAT      O 5479   2.786   3.639   2.117
 1746WAT     H1 5480   2.727   3.602   2.045
 1746WAT     H2 5481   2.782   3.739   2.116
 1747WAT      O 5482   5.931   6.497   5.236
 1747WAT     H1 5483   5.963   6.402   5.245
 1747WAT     H2 5484   5.937   6.543   5.324
 1748WAT      O 5485   2.518   1.110   1.042
 1748WAT     H1 5486   2.467   1.066   0.968
 1748WAT     H2 5487   2.521   1.050   1.122
 1749WAT      O 5488   9.619   8.661   3.779
 1749WAT     H1 5489   9.629   8.697   3.686
 1749WAT     H2 5490   9.699   8.605   3.802
 1750WAT      O 5491   4.632   4.145   8.335
 1750WAT     H1 5492   4.577   4.103   8.407
 1750WAT     H2 5493   4.616   4.097   8.249
 1751WAT      O 5494   7.769   6.685   3.275
 1751WAT     H1 5495   7.809   6.776   3.259
 1751WAT     H2 5496   7.758   6.670   3.373
 1752WAT      O 5497   5.845   9.042   0.314
 1752WAT     H1 5498   5.873   9.056   0.219
 1752WAT     H2 5499   5.793   8.957   0.321
 1753WAT      O 5500   3.512   6.188   3.322
 1753WAT     H1 5501   3.538   6.251   3.249
 1753WAT     H2 5502   3.454   6.235   3.388
 1754WAT      O 5503   4.594   5.672   3.191
 1754WAT     H1 5504   4.585   5.664   3.290
 1754WAT     H2 5505   4.630   5.763   3.168
 1755WAT      O 5506   2.252   4.009   7.653
 1755WAT     H1 5507   2.232   4.083   7.717
 1755WAT     H2 5508   2.349   4.008   7.631
 1756WAT      O 5509   6.811   5.635   0.072
 1756WAT     H1 5510   6.832   5.602  -0.020
 1756WAT     H2 5511   6.893   5.675   0.113
 1757WAT      O 5512   7.393   5.096   4.142
 1757WAT     H1 5513   7.352   5.187   4.151
 1757WAT     H2 5514   7.325   5.026   4.165
 1758WAT      O 5515   5.362   2.050   2.533
 1758WAT     H1 5516   5.342   2.129   2.476
 1758WAT     H2 5517   5.379   1.970   2.475
 1759WAT      O 5518   7.323   6.349   7.611
 1759WAT     H1 5519   7.414   6.319   7.586
 1759WAT     H2 5520   7.313   6.447   7.591
 1760WAT      O 5521   7.339   3.601   5.534
 1760WAT     H1 5522   7.266   3.571   5.596
 1760WAT     H2 5523   7.402   3.526   5.518
 1761WAT      O 5524   1.786   2.045   7.429
 1761WAT     H1 5525   1.839   2.067   7.347
 1761WAT     H2 5526   1.847   2.009   7.500
 1762WAT      O 5527   7.522   8.069   8.653
 1762WAT     H1 5528   7.474   8.001   8.709
 1762WAT     H2 5529   7.600   8.105   8.704
 1763WAT      O 5530   8.721   3.415   3.449
 1763WAT     H1 5531   8.680   3.386   3.362
 1763WAT     H2 5532   8.653   3.406   3.522
 1764WAT      O 5533   7.111   6.940   2.063
 1764WAT     H1 5534   7.060   6.980   2.139
 1764WAT     H2 5535   7.209   6.958   2.076
 1765WAT      O 5536   4.652   6.743   2.113
 1765WAT     H1 5537   4.743   6.709   2.089
 1765WAT     H2 5538   4.661   6.819   2.177
 1766WAT      O 5539   3.725   0.763   7.274
 1766WAT     H1 5540   3.691   0.719   7.191
 1766WAT     H2 5541   3.784   0.700   7.324
 1767WAT      O 5542   4.007   7.464   5.281
 1767WAT     H1 5543   3.933   7.525   5.254
 1767WAT     H2 5544   4.062   7.441   5.200
 1768WAT      O 5545   5.997   2.650   0.295
 1768WAT     H1 5546   5.928   2.721   0.310
 1768WAT     H2 5547   6.088   2.686   0.316
 1769WAT      O 5548   5.089   2.036   8.893
 1769WAT     H1 5549   5.031   1.999   8.964
 1769WAT     H2 5550   5.148   1.963   8.857
 1770WAT      O 5551   2.782   1.291   5.093
 1770WAT     H1 5552   2.682   1.297   5.094
 1770WAT     H2 5553   2.820   1.384   5.091
 1771WAT      O 5554   9.833   4.624   9.302
 1771WAT     H1 5555   9.857   4.669   9.388
 1771WAT     H2 5556   9.877   4.535   9.298
 1772WAT      O 5557   1.502   5.588   7.259
 1772WAT     H1 5558   1.537   5.498   7.234
 1772WAT     H2 5559   1.504   5.598   7.358
 1773WAT      O 5560   8.834   5.163   3.496
 1773WAT     H1 5561   8.829   5.086   3.559
 1773WAT     H2 5562   8.906   5.147   3.429
 1774WAT      O 5563   9.829   5.488   8.915
 1774WAT     H1 5564   9.764   5.550   8.870
 1774WAT     H2 5565   9.836   5.404   8.862
 1775WAT      O 5566   2.015   6.430   1.149
 1775WAT     H1 5567   2.067   6.358   1.103
 1775WAT     H2 5568   2.022   6.418   1.248
 1776WAT      O 5569   7.426   2.757   0.568
 1776WAT     H1 5570   7.406   2.851   0.596
 1776WAT     H2 5571   7.515   2.729   0.604
 1777WAT      O 5572   7.603   2.454   9.688
 1777WAT     H1 5573   7.504   2.441   9.694
 1777WAT     H2 5574   7.633   2.509   9.766
 1778WAT      O 5575   9.034   4.584   9.669
 1778WAT     H1 5576   9.067   4.586   9.763
 1778WAT     H2 5577   8.965   4.655   9.655
 1779WAT      O 5578   6.393   1.545   0.481
 1779WAT     H1 5579   6.374   1.471   0.415
 1779WAT     H2 5580   6.314   1.556   0.541
 1780WAT      O 5581   2.986   8.913   0.558
 1780WAT     H1 5582   2.915   8.979   0.584
 1780WAT     H2 5583   3.012   8.927   0.463
 1781WAT      O 5584   8.374   9.037   3.531
 1781WAT     H1 5585   8.294   9.066   3.478
 1781WAT     H2 5586   8.457   9.062   3.482
 1782WAT      O 5587   1.880   6.056   6.108
 1782WAT     H1 5588   1.784   6.043   6.130
 1782WAT     H2 5589   1.897   6.030   6.013
 1783WAT      O 5590   0.568   3.000   8.618
 1783WAT     H1 5591   0.499   3.067   8.591
 1783WAT     H2 5592   0.528   2.935   8.682
 1784WAT      O 5593   0.735   2.720   6.758
 1784WAT     H1 5594   0.744   2.809   6.714
 1784WAT     H2 5595   0.755   2.729   6.856
 1785WAT      O 5596   1.129   2.925   1.687
 1785WAT     H1 5597   1.108   2.833   1.654
 1785WAT     H2 5598   1.060   2.954   1.753
 1786WAT      O 5599   4.348   1.884   4.249
 1786WAT     H1 5600   4.256   1.916   4.272
 1786WAT     H2 5601   4.349   1.784   4.246
 1787WAT      O 5602   6.359   1.751   5.456
 1787WAT     H1 5603   6.322   1.701   5.535
 1787WAT     H2 5604   6.413   1.828   5.489
 1788WAT      O 5605   0.132   7.548   9.038
 1788WAT     H1 5606   0.134   7.456   8.998
 1788WAT     H2 5607   0.117   7.540   9.137
 1789WAT      O 5608   8.589   1.501   0.065
 1789WAT     H1 5609   8.511   1.533   0.119
 1789WAT     H2 5610   8.583   1.402   0.054
 1790WAT      O 5611   0.515   6.645   1.027
 1790WAT     H1 5612   0.598   6.591   1.043
 1790WAT     H2 5613   0.513   6.722   1.091
 1791WAT      O 5614   9.432   3.675   9.224
 1791WAT     H1 5615   9.445   3.772   9.242
 1791WAT     H2 5616   9.348   3.644   9.267
 1792WAT      O 5617   6.554   4.994   8.510
 1792WAT     H1 5618   6.614   5.021   8.435
 1792WAT     H2 5619   6.486   5.066   8.525
 1793WAT      O 5620   8.207   6.445   5.000
 1793WAT     H1 5621   8.145   6.497   4.940
 1793WAT     H2 5622   8.275   6.397   4.944
 1794WAT      O 5623   8.161   4.916   9.345
 1794WAT     H1 5624   8.260   4.926   9.359
 1794WAT     H2 5625   8.143   4.902   9.248
 1795WAT      O 5626   0.922   7.693   8.652
 1795WAT     H1 5627   0.885   7.640   8.575
 1795WAT     H2 5628   0.991   7.638   8.699
 1796WAT      O 5629   3.904   2.251   4.886
 1796WAT     H1 5630   3.923   2.219   4.978
 1796WAT     H2 5631   3.964   2.203   4.821
 1797WAT      O 5632   7.571   6.422   3.629
 1797WAT     H1 5633   7.611   6.334   3.656
 1797WAT     H2 5634   7.518   6.459   3.705
 1798WAT      O 5635   3.439   1.437   4.413
 1798WAT     H1 5636   3.463   1.411   4.506
 1798WAT     H2 5637   3.520   1.471   4.365
 1799WAT      O 5638   7.913   4.546   2.124
 1799WAT     H1 5639   7.940   4.641   2.104
 1799WAT     H2 5640   7.818   4.545   2.155
 1800WAT      O 5641   2.017   6.448   7.459
 1800WAT     H1 5642   2.106   6.438   7.415
 1800WAT     H2 5643   1.948   6.470   7.390
 1801WAT      O 5644   0.076   8.814   8.516
 1801WAT     H1 5645   0.176   8.807   8.516
 1801WAT     H2 5646   0.044   8.823   8.422
 1802WAT      O 5647   8.074   5.908   1.869
 1802WAT     H1 5648   8.073   5.904   1.769
 1802WAT     H2 5649   8.167   5.894   1.902
 1803WAT      O 5650   4.940   5.192   1.646
 1803WAT     H1 5651   4.995   5.163   1.567
 1803WAT     H2 5652   4.995   5.185   1.729
 1804WAT      O 5653   1.222   4.563   8.676
 1804WAT     H1 5654   1.228   4.662   8.689
 1804WAT     H2 5655   1.218   4.543   8.578
 1805WAT      O 5656   8.407   0.582   5.768
 1805WAT     H1 5657   8.409   0.532   5.855
 1805WAT     H2 5658   8.384   0.678   5.786
 1806WAT      O 5659   2.174   9.532   1.733
 1806WAT     H1 5660   2.247   9.464   1.734
 1806WAT     H2 5661   2.155   9.559   1.638
 1807WAT      O 5662   7.406   7.315   2.003
 1807WAT     H1 5663   7.324   7.371   1.996
 1807WAT     H2 5664   7.466   7.353   2.073
 1808WAT      O 5665   6.548   3.679   5.619
 1808WAT     H1 5666   6.504   3.704   5.532
 1808WAT     H2 5667   6.533   3.752   5.685
 1809WAT      O 5668   9.202   3.911   1.821
 1809WAT     H1 5669   9.164   3.819   1.820
 1809WAT     H2 5670   9.180   3.957   1.736
 1810WAT      O 5671   8.798   7.033   0.720
 1810WAT     H1 5672   8.774   6.999   0.629
 1810WAT     H2 5673   8.716   7.069   0.765
 1811WAT      O 5674   6.234   0.100   3.722
 1811WAT     H1 5675   6.245   0.081   3.819
 1811WAT     H2 5676   6.193   0.021   3.677
 1812WAT      O 5677   7.512   1.717   0.010
 1812WAT     H1 5678   7.424   1.683  -0.022
 1812WAT     H2 5679   7.546   1.658   0.084
 1813WAT      O 5680   2.674   2.858   8.135
 1813WAT     H1 5681   2.758   2.813   8.106
 1813WAT     H2 5682   2.597   2.795   8.124
 1814WAT      O 5683   0.183   2.796   7.820
 1814WAT     H1 5684   0.232   2.868   7.772
 1814WAT     H2 5685   0.138   2.835   7.901
 1815WAT      O 5686   8.068   6.245   5.847
 1815WAT     H1 5687   8.044   6.209   5.938
 1815WAT     H2 5688   8.130   6.180   5.802
 1816WAT      O 5689   9.139   2.307   6.050
 1816WAT     H1 5690   9.125   2.241   5.976
 1816WAT     H2 5691   9.059   2.367   6.057
 1817WAT      O 5692   0.445   0.039   8.407
 1817WAT     H1 5693   0.430   0.074   8.314
 1817WAT     H2 5694   0.534   0.072   8.440
 1818WAT      O 5695   7.058   0.760   8.378
 1818WAT     H1 5696   7.063   0.732   8.282
 1818WAT     H2 5697   7.121   0.836   8.394
 1819WAT      O 5698   2.995   9.649   9.880
 1819WAT     H1 5699   3.079   9.595   9.887
 1819WAT     H2 5700   2.939   9.613   9.806
 1820WAT      O 5701   0.383   3.361   4.265
 1820WAT     H1 5702   0.369   3.268   4.299
 1820WAT     H2 5703   0.407   3.421   4.341
 1821WAT      O 5704   9.636   1.186   9.165
 1821WAT     H1 5705   9.667   1.137   9.084
 1821WAT     H2 5706   9.548   1.149   9.195
 1822WAT      O 5707   5.672   0.767   0.541
 1822WAT     H1 5708   5.659   0.701   0.615
 1822WAT     H2 5709   5.601   0.837   0.546
 1823WAT      O 5710   5.875   6.252   8.444
 1823WAT     H1 5711   5.793   6.308   8.438
 1823WAT     H2 5712   5.947   6.291   8.386
 1824WAT      O 5713   5.276   5.603   9.520
 1824WAT     H1 5714   5.248   5.552   9.438
 1824WAT     H2 5715   5.294   5.698   9.495
 1825WAT      O 5716   4.407   2.265   1.176
 1825WAT     H1 5717   4.464   2.347   1.165
 1825WAT     H2 5718   4.379   2.257   1.271
 1826WAT      O 5719   5.763   2.472   6.499
 1826WAT     H1 5720   5.853   2.428   6.490
 1826WAT     H2 5721   5.740   2.517   6.413
 1827WAT      O 5722   6.450   0.854   5.216
 1827WAT     H1 5723   6.411   0.830   5.128
 1827WAT     H2 5724   6.390   0.919   5.263
 1828WAT      O 5725   5.376   6.393   2.248
 1828WAT     H1 5726   5.440   6.470   2.245
 1828WAT     H2 5727   5.428   6.308   2.249
 1829WAT      O 5728   0.594   9.496   6.849
 1829WAT     H1 5729   0.544   9.411   6.834
 1829WAT     H2 5730   0.590   9.520   6.947
 1830WAT      O 5731   0.966   1.110   3.402
 1830WAT     H1 5732   0.919   1.023   3.384
 1830WAT     H2 5733   0.910   1.166   3.464
 1831WAT      O 5734   2.206   8.535   5.591
 1831WAT     H1 5735   2.252   8.451   5.620
 1831WAT     H2 5736   2.187   8.592   5.671
 1832WAT      O 5737   7.740   2.840   3.543
 1832WAT     H1 5738   7.824   2.786   3.541
 1832WAT     H2 5739   7.661   2.778   3.548
 1833WAT      O 5740   1.573   9.108   2.160
 1833WAT     H1 5741   1.574   9.113   2.260
 1833WAT     H2 5742   1.584   9.013   2.131
 1834WAT      O 5743   9.787   8.350   4.548
 1834WAT     H1 5744   9.821   8.405   4.624
 1834WAT     H2 5745   9.706   8.300   4.577
 1835WAT      O 5746   4.795   7.386   0.368
 1835WAT     H1 5747   4.724   7.345   0.425
 1835WAT     H2 5748   4.769   7.481   0.347
 1836WAT      O 5749   5.660   1.215   8.378
 1836WAT     H1 5750   5.743   1.264   8.356
 1836WAT     H2 5751   5.585   1.280   8.391
 1837WAT      O 5752   6.919   9.499   8.129
 1837WAT     H1 5753   6.968   9.481   8.043
 1837WAT     H2 5754   6.975   9.560   8.186
 1838WAT      O 5755   8.407   0.143   9.182
 1838WAT     H1 5756   8.392   0.177   9.275
 1838WAT     H2 5757   8.495   0.096   9.178
 1839WAT      O 5758   1.775   0.308   2.643
 1839WAT     H1 5759   1.711   0.267   2.708
 1839WAT     H2 5760   1.842   0.363   2.692
 1840WAT      O 5761   7.711   3.423   4.184
 1840WAT     H1 5762   7.659   3.344   4.216
 1840WAT     H2 5763   7.662   3.468   4.110
 1841WAT      O 5764   3.470   6.245   9.398
 1841WAT     H1 5765   3.430   6.253   9.489
 1841WAT     H2 5766   3.488   6.337   9.362
 1842WAT      O 5767   7.262   0.131   6.738
 1842WAT     H1 5768   7.256   0.165   6.644
 1842WAT     H2 5769   7.170   0.115   6.773
 1843WAT      O 5770   9.821   0.377   0.053
 1843WAT     H1 5771   9.767   0.461   0.054
 1843WAT     H2 5772   9.761   0.298   0.068
 1844WAT      O 5773   6.159   0.915   3.346
 1844WAT     H1 5774   6.071   0.942   3.308
 1844WAT     H2 5775   6.227   0.907   3.273
 1845WAT      O 5776   6.275   9.414   8.835
 1845WAT     H1 5777   6.237   9.375   8.919
 1845WAT     H2 5778   6.342   9.351   8.796
 1846WAT      O 5779   0.370   2.203   7.618
 1846WAT     H1 5780   0.324   2.201   7.529
 1846WAT     H2 5781   0.404   2.111   7.640
 1847WAT      O 5782   7.425   8.388   1.847
 1847WAT     H1 5783   7.352   8.394   1.779
 1847WAT     H2 5784   7.472   8.476   1.853
 1848WAT      O 5785   2.697   0.569   6.541
 1848WAT     H1 5786   2.599   0.568   6.556
 1848WAT     H2 5787   2.719   0.630   6.465
 1849WAT      O 5788   6.256   3.621   6.622
 1849WAT     H1 5789   6.219   3.574   6.703
 1849WAT     H2 5790   6.302   3.705   6.651
 1850WAT      O 5791   0.908   0.890   2.184
 1850WAT     H1 5792   0.998   0.933   2.192
 1850WAT     H2 5793   0.868   0.913   2.095
 1851WAT      O 5794   5.175   9.125   4.497
 1851WAT     H1 5795   5.186   9.030   4.528
 1851WAT     H2 5796   5.263   9.172   4.502
 1852WAT      O 5797   4.813   1.649   2.803
 1852WAT     H1 5798   4.753   1.638   2.882
 1852WAT     H2 5799   4.862   1.563   2.786
 1853WAT      O 5800   0.967   4.421   9.636
 1853WAT     H1 5801   0.888   4.460   9.589
 1853WAT     H2 5802   0.939   4.391   9.727
 1854WAT      O 5803   3.178   8.990   4.603
 1854WAT     H1 5804   3.250   8.961   4.540
 1854WAT     H2 5805   3.146   9.081   4.577
 1855WAT      O 5806   7.493   6.220   1.835
 1855WAT     H1 5807   7.459   6.311   1.858
 1855WAT     H2 5808   7.450   6.152   1.894
 1856WAT      O 5809   0.620   0.243   5.529
 1856WAT     H1 5810   0.637   0.190   5.612
 1856WAT     H2 5811   0.655   0.336   5.541
 1857WAT      O 5812   9.244   2.642   9.569
 1857WAT     H1 5813   9.315   2.608   9.508
 1857WAT     H2 5814   9.172   2.573   9.579
 1858WAT      O 5815   3.306   9.095   0.766
 1858WAT     H1 5816   3.303   9.020   0.700
 1858WAT     H2 5817   3.270   9.178   0.724
 1859WAT      O 5818   4.302   8.636   7.087
 1859WAT     H1 5819   4.318   8.636   6.988
 1859WAT     H2 5820   4.211   8.674   7.106
 1860WAT      O 5821   4.509   5.445   0.868
 1860WAT     H1 5822   4.609   5.443   0.872
 1860WAT     H2 5823   4.472   5.466   0.959
 1861WAT      O 5824   3.699   2.430   9.176
 1861WAT     H1 5825   3.792   2.395   9.178
 1861WAT     H2 5826   3.642   2.375   9.238
 1862WAT      O 5827   2.688   0.026   0.453
 1862WAT     H1 5828   2.697   0.105   0.514
 1862WAT     H2 5829   2.723   0.050   0.363
 1863WAT      O 5830   0.676   6.440   1.768
 1863WAT     H1 5831   0.587   6.405   1.738
 1863WAT     H2 5832   0.664   6.489   1.855
 1864WAT      O 5833   9.770   0.417   8.317
 1864WAT     H1 5834   9.862   0.388   8.345
 1864WAT     H2 5835   9.743   0.497   8.371
 1865WAT      O 5836   9.545   6.353   5.092
 1865WAT     H1 5837   9.529   6.254   5.093
 1865WAT     H2 5838   9.547   6.387   5.186
 1866WAT      O 5839   1.587   0.489   3.776
 1866WAT     H1 5840   1.679   0.454   3.793
 1866WAT     H2 5841   1.578   0.580   3.817
 1867WAT      O 5842   3.076   3.559   8.810
 1867WAT     H1 5843   3.044   3.486   8.749
 1867WAT     H2 5844   3.028   3.644   8.788
 1868WAT      O 5845   1.089   2.480   8.582
 1868WAT     H1 5846   1.043   2.403   8.538
 1868WAT     H2 5847   1.188   2.468   8.577
 1869WAT      O 5848   8.819   9.485   5.729
 1869WAT     H1 5849   8.872   9.569   5.717
 1869WAT     H2 5850   8.773   9.487   5.817
 1870WAT      O 5851   0.037   0.624   1.792
 1870WAT     H1 5852   0.101   0.661   1.859
 1870WAT     H2 5853   0.079   0.547   1.745
 1871WAT      O 5854   1.410   6.122   0.067
 1871WAT     H1 5855   1.369   6.188   0.003
 1871WAT     H2 5856   1.484   6.073   0.023
 1872WAT      O 5857   9.421   8.553   5.004
 1872WAT     H1 5858   9.450   8.648   5.016
 1872WAT     H2 5859   9.482   8.493   5.056
 1873WAT      O 5860   6.400   7.897   7.628
 1873WAT     H1 5861   6.390   7.891   7.528
 1873WAT     H2 5862   6.497   7.904   7.651
 1874WAT      O 5863   6.995   0.975   9.853
 1874WAT     H1 5864   6.914   1.033   9.846
 1874WAT     H2 5865   7.037   0.964   9.763
 1875WAT      O 5866   9.368   1.099   9.318
 1875WAT     H1 5867   9.277   1.110   9.356
 1875WAT     H2 5868   9.363   1.093   9.218
 1876WAT      O 5869   5.313   2.103   0.404
 1876WAT     H1 5870   5.333   2.130   0.498
 1876WAT     H2 5871   5.215   2.114   0.386
 1877WAT      O 5872   3.429   5.193   7.258
 1877WAT     H1 5873   3.436   5.093   7.255
 1877WAT     H2 5874   3.360   5.224   7.193
 1878WAT      O 5875   9.428   1.523   2.257
 1878WAT     H1 5876   9.474   1.611   2.268
 1878WAT     H2 5877   9.358   1.512   2.328
 1879WAT      O 5878   5.877   7.880   6.728
 1879WAT     H1 5879   5.787   7.911   6.697
 1879WAT     H2 5880   5.918   7.822   6.658
 1880WAT      O 5881   9.870   9.283   4.097
 1880WAT     H1 5882   9.795   9.256   4.037
 1880WAT     H2 5883   9.893   9.379   4.081
 1881WAT      O 5884   1.545   0.731   0.090
 1881WAT     H1 5885   1.478   0.666   0.126
 1881WAT     H2 5886   1.501   0.818   0.071
 1882WAT      O 5887   1.593   5.186   8.183
 1882WAT     H1 5888   1.685   5.147   8.171
 1882WAT     H2 5889   1.533   5.153   8.110
 1883WAT      O 5890   7.131   9.136   3.443
 1883WAT     H1 5891   7.217   9.085   3.429
 1883WAT     H2 5892   7.145   9.232   3.419
 1884WAT      O 5893   6.979   3.676   6.395
 1884WAT     H1 5894   6.959   3.770   6.425
 1884WAT     H2 5895   6.900   3.638   6.348
 1885WAT      O 5896   9.305   0.760   5.055
 1885WAT     H1 5897   9.379   0.694   5.041
 1885WAT     H2 5898   9.243   0.757   4.977
 1886WAT      O 5899   8.526   5.694   2.518
 1886WAT     H1 5900   8.433   5.659   2.515
 1886WAT     H2 5901   8.557   5.714   2.425
 1887WAT      O 5902   1.828   3.042   4.186
 1887WAT     H1 5903   1.889   3.040   4.265
 1887WAT     H2 5904   1.798   2.948   4.165
 1888WAT      O 5905   1.976   9.516   8.811
 1888WAT     H1 5906   2.021   9.518   8.722
 1888WAT     H2 5907   2.003   9.434   8.861
 1889WAT      O 5908   3.711   9.401   8.163
 1889WAT     H1 5909   3.618   9.370   8.142
 1889WAT     H2 5910   3.722   9.407   8.262
 1890WAT      O 5911   9.093   7.463   6.151
 1890WAT     H1 5912   9.006   7.422   6.125
 1890WAT     H2 5913   9.092   7.482   6.249
 1891WAT      O 5914   6.584   1.055   3.181
 1891WAT     H1 5915   6.595   1.144   3.136
 1891WAT     H2 5916   6.607   1.065   3.278
 1892WAT      O 5917   3.668   7.219   4.460
 1892WAT     H1 5918   3.740   7.238   4.526
 1892WAT     H2 5919   3.683   7.129   4.419
 1893WAT      O 5920   7.190   8.616   1.715
 1893WAT     H1 5921   7.277   8.666   1.723
 1893WAT     H2 5922   7.206   8.527   1.674
 1894WAT      O 5923   8.699   2.367   4.839
 1894WAT     H1 5924   8.770   2.331   4.900
 1894WAT     H2 5925   8.635   2.294   4.816
 1895WAT      O 5926   7.713   1.577   7.536
 1895WAT     H1 5927   7.670   1.613   7.454
 1895WAT     H2 5928   7.734   1.652   7.599
 1896WAT      O 5929   6.013   5.732   9.377
 1896WAT     H1 5930   6.083   5.745   9.447
 1896WAT     H2 5931   6.018   5.639   9.341
 1897WAT      O 5932   5.865   2.842   5.855
 1897WAT     H1 5933   5.911   2.925   5.886
 1897WAT     H2 5934   5.777   2.834   5.901
 1898WAT      O 5935   8.710   7.143   4.688
 1898WAT     H1 5936   8.749   7.146   4.781
 1898WAT     H2 5937   8.611   7.146   4.694
 1899WAT      O 5938   0.848   1.777   8.994
 1899WAT     H1 5939   0.931   1.750   8.946
 1899WAT     H2 5940   0.800   1.848   8.941
 1900WAT      O 5941   7.252   3.007   2.795
 1900WAT     H1 5942   7.251   2.915   2.755
 1900WAT     H2 5943   7.158   3.037   2.812
 1901WAT      O 5944   1.316   2.303   4.933
 1901WAT     H1 5945   1.251   2.256   4.992
 1901WAT     H2 5946   1.409   2.280   4.961
 1902WAT      O 5947   4.168   8.259   1.811
 1902WAT     H1 5948   4.262   8.290   1.799
 1902WAT     H2 5949   4.168   8.169   1.853
 1903WAT      O 5950   1.697   6.401   6.216
 1903WAT     H1 5951   1.743   6.451   6.289
 1903WAT     H2 5952   1.634   6.463   6.168
 1904WAT      O 5953   7.812   7.350   9.539
 1904WAT     H1 5954   7.760   7.289   9.599
 1904WAT     H2 5955   7.751   7.391   9.472
 1905WAT      O 5956   9.411   1.116   0.534
 1905WAT     H1 5957   9.343   1.138   0.604
 1905WAT     H2 5958   9.465   1.037   0.563
 1906WAT      O 5959   3.783   6.559   5.661
 1906WAT     H1 5960   3.690   6.539   5.630
 1906WAT     H2 5961   3.784   6.565   5.761
 1907WAT      O 5962   4.733   1.118   7.863
 1907WAT     H1 5963   4.740   1.019   7.853
 1907WAT     H2 5964   4.819   1.161   7.833
 1908WAT      O 5965   6.228   9.762   4.145
 1908WAT     H1 5966   6.219   9.828   4.071
 1908WAT     H2 5967   6.323   9.735   4.155
 1909WAT      O 5968   2.887   6.023   6.039
 1909WAT     H1 5969   2.971   6.076   6.025
 1909WAT     H2 5970   2.819   6.050   5.972
 1910WAT      O 5971   7.150   4.060   7.962
 1910WAT     H1 5972   7.179   4.155   7.971
 1910WAT     H2 5973   7.217   4.000   8.005
 1911WAT      O 5974   0.225   4.352   3.624
 1911WAT     H1 5975   0.153   4.291   3.657
 1911WAT     H2 5976   0.276   4.388   3.702
 1912WAT      O 5977   6.566   0.181   6.775
 1912WAT     H1 5978   6.641   0.144   6.720
 1912WAT     H2 5979   6.483   0.127   6.759
 1913WAT      O 5980   1.122   1.341   3.351
 1913WAT     H1 5981   1.054   1.270   3.334
 1913WAT     H2 5982   1.201   1.302   3.398
 1914WAT      O 5983   2.240   9.685   5.898
 1914WAT     H1 5984   2.146   9.719   5.906
 1914WAT     H2 5985   2.285   9.729   5.821
 1915WAT      O 5986   0.337   1.692   2.223
 1915WAT     H1 5987   0.239   1.677   2.228
 1915WAT     H2 5988   0.364   1.700   2.127
 1916WAT      O 5989   7.078   0.981   7.957
 1916WAT     H1 5990   7.033   1.016   8.039
 1916WAT     H2 5991   7.155   0.922   7.984
 1917WAT      O 5992   0.922   9.638   5.128
 1917WAT     H1 5993   0.882   9.718   5.172
 1917WAT     H2 5994   0.993   9.667   5.065
 1918WAT      O 5995   3.461   7.420   0.509
 1918WAT     H1 5996   3.443   7.408   0.412
 1918WAT     H2 5997   3.381   7.394   0.562
 1919WAT      O 5998   3.706   7.658   8.153
 1919WAT     H1 5999   3.723   7.713   8.071
 1919WAT     H2 6000   3.771   7.582   8.156
 1920WAT      O 6001   5.333   7.932   1.240
 1920WAT     H1 6002   5.259   7.940   1.173
 1920WAT     H2 6003   5.316   7.993   1.317
 1921WAT      O 6004   8.240   9.641   7.203
 1921WAT     H1 6005   8.244   9.588   7.287
 1921WAT     H2 6006   8.159   9.700   7.204
 1922WAT      O 6007   9.658   5.596   4.490
 1922WAT     H1 6008   9.597   5.569   4.565
 1922WAT     H2 6009   9.747   5.623   4.527
 1923WAT      O 6010   2.847   2.737   1.417
 1923WAT     H1 6011   2.923   2.685   1.455
 1923WAT     H2 6012   2.818   2.806   1.483
 1924WAT      O 6013   1.689   9.789   4.673
 1924WAT     H1 6014   1.730   9.698   4.661
 1924WAT     H2 6015   1.761   9.856   4.691
 1925WAT      O 6016   5.233   3.969   4.768
 1925WAT     H1 6017   5.175   3.942   4.691
 1925WAT     H2 6018   5.178   3.970   4.852
 1926WAT      O 6019   8.529   8.148   3.867
 1926WAT     H1 6020   8.551   8.165   3.963
 1926WAT     H2 6021   8.585   8.208   3.810
 1927WAT      O 6022   8.549   4.205   1.534
 1927WAT     H1 6023   8.590   4.131   1.587
 1927WAT     H2 6024   8.484   4.167   1.468
 1928WAT      O 6025   9.828   3.423   2.899
 1928WAT     H1 6026   9.786   3.446   2.987
 1928WAT     H2 6027   9.923   3.454   2.898
 1929WAT      O 6028   8.614   7.236   6.802
 1929WAT     H1 6029   8.560   7.213   6.883
 1929WAT     H2 6030   8.599   7.332   6.778
 1930WAT      O 6031   0.582   9.303   9.754
 1930WAT     H1 6032   0.655   9.368   9.776
 1930WAT     H2 6033   0.558   9.312   9.657
 1931WAT      O 6034   3.730   6.127   9.842
 1931WAT     H1 6035   3.708   6.224   9.856
 1931WAT     H2 6036   3.709   6.076   9.926
 1932WAT      O 6037   3.713   4.372   0.188
 1932WAT     H1 6038   3.680   4.384   0.094
 1932WAT     H2 6039   3.791   4.310   0.188
 1933WAT      O 6040   0.915   6.294   4.105
 1933WAT     H1 6041   0.857   6.376   4.099
 1933WAT     H2 6042   0.996   6.307   4.049
 1934WAT      O 6043   6.786   8.892   7.246
 1934WAT     H1 6044   6.858   8.938   7.299
 1934WAT     H2 6045   6.827   8.817   7.193
 1935WAT      O 6046   3.435   3.390   7.040
 1935WAT     H1 6047   3.528   3.411   7.070
 1935WAT     H2 6048   3.416   3.438   6.954
 1936WAT      O 6049   9.286   2.227   9.250
 1936WAT     H1 6050   9.226   2.307   9.259
 1936WAT     H2 6051   9.261   2.160   9.320
 1937WAT      O 6052   1.756   9.657   8.883
 1937WAT     H1 6053   1.783   9.753   8.883
 1937WAT     H2 6054   1.830   9.601   8.847
 1938WAT      O 6055   3.439   9.727   3.456
 1938WAT     H1 6056   3.520   9.783   3.442
 1938WAT     H2 6057   3.428   9.664   3.379
 1939WAT      O 6058   4.597   6.568   4.847
 1939WAT     H1 6059   4.558   6.479   4.825
 1939WAT     H2 6060   4.696   6.565   4.837
 1940WAT      O 6061   4.823   1.810   3.777
 1940WAT     H1 6062   4.840   1.749   3.699
 1940WAT     H2 6063   4.830   1.905   3.748
 1941WAT      O 6064   6.524   7.287   5.822
 1941WAT     H1 6065   6.598   7.220   5.831
 1941WAT     H2 6066   6.466   7.283   5.903
 1942WAT      O 6067   7.218   3.223   6.430
 1942WAT     H1 6068   7.268   3.211   6.516
 1942WAT     H2 6069   7.140   3.283   6.444
 1943WAT      O 6070   4.040   2.627   3.469
 1943WAT     H1 6071   4.052   2.642   3.567
 1943WAT     H2 6072   4.122   2.657   3.421
 1944WAT      O 6073   9.851   5.942   0.578
 1944WAT     H1 6074   9.857   5.943   0.678
 1944WAT     H2 6075   9.755   5.953   0.551
 1945WAT      O 6076   2.950   3.316   1.831
 1945WAT     H1 6077   3.045   3.319   1.862
 1945WAT     H2 6078   2.944   3.356   1.739
 1946WAT      O 6079   9.782   1.183   0.723
 1946WAT     H1 6080   9.868   1.149   0.760
 1946WAT     H2 6081   9.706   1.146   0.777
 1947WAT      O 6082   4.031   7.129   1.672
 1947WAT     H1 6083   4.126   7.158   1.660
 1947WAT     H2 6084   4.023   7.075   1.756
 1948WAT      O 6085   0.549   4.321   9.299
 1948WAT     H1 6086   0.526   4.325   9.396
 1948WAT     H2 6087   0.646   4.297   9.289
 1949WAT      O 6088   0.292   7.418   0.225
 1949WAT     H1 6089   0.373   7.376   0.186
 1949WAT     H2 6090   0.318   7.504   0.270
 1950WAT      O 6091   0.203   4.719   1.969
 1950WAT     H1 6092   0.141   4.794   1.992
 1950WAT     H2 6093   0.263   4.700   2.047
 1951WAT      O 6094   7.769   8.908   0.537
 1951WAT     H1 6095   7.685   8.863   0.569
 1951WAT     H2 6096   7.849   8.855   0.567
 1952WAT      O 6097   0.294   1.434   7.818
 1952WAT     H1 6098   0.229   1.397   7.752
 1952WAT     H2 6099   0.256   1.516   7.860
 1953WAT      O 6100   7.586   0.344   8.689
 1953WAT     H1 6101   7.673   0.372   8.646
 1953WAT     H2 6102   7.510   0.369   8.629
 1954WAT      O 6103   0.981   5.536   2.934
 1954WAT     H1 6104   0.919   5.459   2.917
 1954WAT     H2 6105   1.025   5.524   3.023
 1955WAT      O 6106   1.471   2.181   3.184
 1955WAT     H1 6107   1.547   2.142   3.132
 1955WAT     H2 6108   1.507   2.237   3.258
 1956WAT      O 6109   0.503   4.402   5.528
 1956WAT     H1 6110   0.413   4.425   5.491
 1956WAT     H2 6111   0.498   4.402   5.628
 1957WAT      O 6112   7.371   7.590   9.799
 1957WAT     H1 6113   7.463   7.559   9.777
 1957WAT     H2 6114   7.315   7.512   9.826
 1958WAT      O 6115   7.458   7.285   4.497
 1958WAT     H1 6116   7.522   7.209   4.510
 1958WAT     H2 6117   7.483   7.336   4.415
 1959WAT      O 6118   5.088   3.626   2.497
 1959WAT     H1 6119   5.007   3.624   2.555
 1959WAT     H2 6120   5.064   3.667   2.409
 1960WAT      O 6121   2.139   2.141   5.350
 1960WAT     H1 6122   2.094   2.131   5.261
 1960WAT     H2 6123   2.192   2.226   5.350
 1961WAT      O 6124   5.864   1.895   2.306
 1961WAT     H1 6125   5.956   1.866   2.281
 1961WAT     H2 6126   5.842   1.981   2.260
 1962WAT      O 6127   1.128   1.954   6.844
 1962WAT     H1 6128   1.177   1.911   6.920
 1962WAT     H2 6129   1.100   1.883   6.778
 1963WAT      O 6130   3.138   2.798   9.237
 1963WAT     H1 6131   3.102   2.877   9.287
 1963WAT     H2 6132   3.124   2.716   9.291
 1964WAT      O 6133   5.341   4.897   1.100
 1964WAT     H1 6134   5.369   4.874   1.007
 1964WAT     H2 6135   5.293   4.985   1.100
 1965WAT      O 6136   3.742   9.116   3.626
 1965WAT     H1 6137   3.649   9.148   3.611
 1965WAT     H2 6138   3.779   9.079   3.540
 1966WAT      O 6139   8.999   9.451   5.008
 1966WAT     H1 6140   8.952   9.472   5.094
 1966WAT     H2 6141   8.945   9.385   4.956
 1967WAT      O 6142   8.960   5.245   6.239
 1967WAT     H1 6143   8.879   5.258   6.296
 1967WAT     H2 6144   9.008   5.333   6.229
 1968WAT      O 6145   0.235   1.051   7.144
 1968WAT     H1 6146   0.311   1.052   7.210
 1968WAT     H2 6147   0.227   1.141   7.102
 1969WAT      O 6148   9.456   8.874   9.313
 1969WAT     H1 6149   9.540   8.821   9.303
 1969WAT     H2 6150   9.473   8.952   9.373
 1970WAT      O 6151   9.595   3.188   4.615
 1970WAT     H1 6152   9.662   3.215   4.685
 1970WAT     H2 6153   9.580   3.090   4.620
 1971WAT      O 6154   2.792   6.545   5.521
 1971WAT     H1 6155   2.698   6.555   5.554
 1971WAT     H2 6156   2.791   6.514   5.426
 1972WAT      O 6157   2.225   4.496   6.069
 1972WAT     H1 6158   2.254   4.552   6.146
 1972WAT     H2 6159   2.141   4.446   6.093
 1973WAT      O 6160   6.131   6.562   0.859
 1973WAT     H1 6161   6.128   6.588   0.762
 1973WAT     H2 6162   6.075   6.480   0.873
 1974WAT      O 6163   6.742   2.743   5.367
 1974WAT     H1 6164   6.778   2.683   5.295
 1974WAT     H2 6165   6.818   2.773   5.426
 1975WAT      O 6166   4.420   1.098   6.636
 1975WAT     H1 6167   4.415   1.133   6.543
 1975WAT     H2 6168   4.340   1.129   6.688
 1976WAT      O 6169   2.550   9.274   5.247
 1976WAT     H1 6170   2.563   9.305   5.153
 1976WAT     H2 6171   2.639   9.258   5.289
 1977WAT      O 6172   0.787   5.732   6.684
 1977WAT     H1 6173   0.816   5.787   6.762
 1977WAT     H2 6174   0.774   5.637   6.713
 1978WAT      O 6175   9.021   4.362   2.678
 1978WAT     H1 6176   8.938   4.347   2.625
 1978WAT     H2 6177   9.054   4.275   2.715
 1979WAT      O 6178   1.975   7.322   7.151
 1979WAT     H1 6179   2.071   7.298   7.168
 1979WAT     H2 6180   1.954   7.408   7.198
 1980WAT      O 6181   4.353   9.240   8.581
 1980WAT     H1 6182   4.440   9.271   8.542
 1980WAT     H2 6183   4.345   9.274   8.675
 1981WAT      O 6184   7.750   6.891   0.616
 1981WAT     H1 6185   7.749   6.923   0.521
 1981WAT     H2 6186   7.728   6.794   0.619
 1982WAT      O 6187   2.349   6.735   4.211
 1982WAT     H1 6188   2.267   6.681   4.188
 1982WAT     H2 6189   2.430   6.686   4.180
 1983WAT      O 6190   8.517   5.641   0.307
 1983WAT     H1 6191   8.503   5.733   0.344
 1983WAT     H2 6192   8.490   5.639   0.211
 1984WAT      O 6193   5.626   1.698   3.801
 1984WAT     H1 6194   5.689   1.767   3.837
 1984WAT     H2 6195   5.542   1.742   3.771
 1985WAT      O 6196   5.797   9.774   2.683
 1985WAT     H1 6197   5.841   9.861   2.706
 1985WAT     H2 6198   5.793   9.716   2.765
 1986WAT      O 6199   7.063   5.585   6.989
 1986WAT     H1 6200   7.083   5.650   6.916
 1986WAT     H2 6201   7.148   5.560   7.035
 1987WAT      O 6202   0.469   6.727   1.746
 1987WAT     H1 6203   0.538   6.770   1.804
 1987WAT     H2 6204   0.494   6.738   1.650
 1988WAT      O 6205   4.539   6.677   0.169
 1988WAT     H1 6206   4.533   6.578   0.167
 1988WAT     H2 6207   4.580   6.710   0.083
 1989WAT      O 6208   2.624   9.483   0.836
 1989WAT     H1 6209   2.674   9.568   0.819
 1989WAT     H2 6210   2.616   9.469   0.934
 1990WAT      O 6211   0.277   9.424   9.682
 1990WAT     H1 6212   0.177   9.417   9.676
 1990WAT     H2 6213   0.303   9.457   9.773
 1991WAT      O 6214   0.923   6.312   3.717
 1991WAT     H1 6215   0.864   6.248   3.766
 1991WAT     H2 6216   0.935   6.395   3.772
 1992WAT      O 6217   2.456   7.116   2.244
 1992WAT     H1 6218   2.388   7.171   2.291
 1992WAT     H2 6219   2.545   7.161   2.247
 1993WAT      O 6220   2.597   0.275   9.505
 1993WAT     H1 6221   2.636   0.192   9.546
 1993WAT     H2 6222   2.644   0.355   9.543
 1994WAT      O 6223   3.407   8.378   1.202
 1994WAT     H1 6224   3.427   8.474   1.217
 1994WAT     H2 6225   3.329   8.370   1.140
 1995WAT      O 6226   5.891   9.202   3.007
 1995WAT     H1 6227   5.955   9.177   3.079
 1995WAT     H2 6228   5.804   9.154   3.021
 1996WAT      O 6229   2.673   7.645   3.348
 1996WAT     H1 6230   2.683   7.643   3.249
 1996WAT     H2 6231   2.582   7.677   3.373
 1997WAT      O 6232   5.716   1.965   5.581
 1997WAT     H1 6233   5.788   1.903   5.613
 1997WAT     H2 6234   5.650   1.913   5.526
 1998WAT      O 6235   0.512   2.621   9.659
 1998WAT     H1 6236   0.606   2.653   9.676
 1998WAT     H2 6237   0.448   2.696   9.672
 1999WAT      O 6238   1.362   5.420   9.295
 1999WAT     H1 6239   1.326   5.362   9.367
 1999WAT     H2 6240   1.419   5.491   9.335
 2000WAT      O 6241   9.709   5.308   9.869
 2000WAT     H1 6242   9.636   5.242   9.854
 2000WAT     H2 6243   9.688   5.364   9.949
 2001WAT      O 6244   8.888   1.306   2.915
 2001WAT     H1 6245   8.886   1.322   2.817
 2001WAT     H2 6246   8.818   1.361   2.960
 2002WAT      O 6247   0.502   4.334   9.587
 2002WAT     H1 6248   0.504   4.391   9.670
 2002WAT     H2 6249   0.590   4.288   9.577
 2003WAT      O 6250   7.002   0.970   9.422
 2003WAT     H1 6251   7.086   1.019   9.398
 2003WAT     H2 6252   6.970   0.917   9.344
 2004WAT      O 6253   7.932   9.165   2.531
 2004WAT     H1 6254   7.852   9.142   2.587
 2004WAT     H2 6255   8.014   9.125   2.571
 2005WAT      O 6256   2.188   1.531   1.533
 2005WAT     H1 6257   2.268   1.561   1.585
 2005WAT     H2 6258   2.179   1.588   1.451
 2006WAT      O 6259   6.260   2.688   8.288
 2006WAT     H1 6260   6.285   2.595   8.263
 2006WAT     H2 6261   6.342   2.745   8.293
 2007WAT      O 6262   9.211   2.135   8.298
 2007WAT     H1 6263   9.280   2.099   8.360
 2007WAT     H2 6264   9.150   2.062   8.269
 2008WAT      O 6265   2.053   0.964   0.637
 2008WAT     H1 6266   2.100   1.040   0.590
 2008WAT     H2 6267   1.966   0.997   0.673
 2009WAT      O 6268   0.172   5.039   4.654
 2009WAT     H1 6269   0.253   5.031   4.712
 2009WAT     H2 6270   0.187   4.990   4.568
 2010WAT      O 6271   2.628   3.600   2.370
 2010WAT     H1 6272   2.679   3.632   2.291
 2010WAT     H2 6273   2.585   3.678   2.416
 2011WAT      O 6274   9.276   9.381   2.524
 2011WAT     H1 6275   9.315   9.384   2.616
 2011WAT     H2 6276   9.220   9.462   2.509
 2012WAT      O 6277   6.966   6.635   5.166
 2012WAT     H1 6278   7.009   6.569   5.227
 2012WAT     H2 6279   7.022   6.647   5.084
 2013WAT      O 6280   1.075   4.444   0.691
 2013WAT     H1 6281   1.155   4.396   0.655
 2013WAT     H2 6282   1.076   4.442   0.791
 2014WAT      O 6283   0.858   2.553   4.469
 2014WAT     H1 6284   0.915   2.532   4.548
 2014WAT     H2 6285   0.886   2.641   4.430
 2015WAT      O 6286   9.489   0.771   1.438
 2015WAT     H1 6287   9.487   0.710   1.358
 2015WAT     H2 6288   9.578   0.817   1.442
 2016WAT      O 6289   4.553   0.410   4.407
 2016WAT     H1 6290   4.521   0.436   4.316
 2016WAT     H2 6291   4.583   0.492   4.456
 2017WAT      O 6292   5.436   2.302   9.806
 2017WAT     H1 6293   5.385   2.287   9.891
 2017WAT     H2 6294   5.414   2.229   9.741
 2018WAT      O 6295   1.975   7.322   2.040
 2018WAT     H1 6296   1.906   7.357   1.976
 2018WAT     H2 6297   1.937   7.321   2.133
 2019WAT      O 6298   3.915   0.059   6.630
 2019WAT     H1 6299   3.869   0.109   6.704
 2019WAT     H2 6300   3.882   0.093   6.542
 2020WAT      O 6301   5.872   0.821   5.269
 2020WAT     H1 6302   5.780   0.783   5.270
 2020WAT     H2 6303   5.867   0.919   5.249
 2021WAT      O 6304   2.633   1.497   9.291
 2021WAT     H1 6305   2.623   1.478   9.388
 2021WAT     H2 6306   2.641   1.411   9.240
 2022WAT      O 6307   1.475   3.965   1.602
 2022WAT     H1 6308   1.509   3.946   1.509
 2022WAT     H2 6309   1.551   3.958   1.667
 2023WAT      O 6310   1.999   2.193   3.655
 2023WAT     H1 6311   2.020   2.149   3.742
 2023WAT     H2 6312   1.948   2.278   3.672
 2024WAT      O 6313   5.941   2.124   1.758
 2024WAT     H1 6314   6.020   2.186   1.766
 2024WAT     H2 6315   5.913   2.118   1.662
 2025WAT      O 6316   0.325   9.295   2.000
 2025WAT     H1 6317   0.409   9.342   2.029
 2025WAT     H2 6318   0.316   9.301   1.901
 2026WAT      O 6319   3.869   9.132   0.877
 2026WAT     H1 6320   3.819   9.180   0.948
 2026WAT     H2 6321   3.808   9.068   0.830
 2027WAT      O 6322   7.695   3.519   8.241
 2027WAT     H1 6323   7.621   3.468   8.284
 2027WAT     H2 6324   7.673   3.538   8.146
 2028WAT      O 6325   7.422   0.325   3.242
 2028WAT     H1 6326   7.448   0.421   3.248
 2028WAT     H2 6327   7.489   0.269   3.291
 2029WAT      O 6328   8.365   6.400   4.281
 2029WAT     H1 6329   8.321   6.331   4.338
 2029WAT     H2 6330   8.376   6.485   4.333
 2030WAT      O 6331   4.770   5.961   5.388
 2030WAT     H1 6332   4.754   5.888   5.322
 2030WAT     H2 6333   4.830   5.928   5.461
 2031WAT      O 6334   0.369   5.145   6.638
 2031WAT     H1 6335   0.331   5.063   6.681
 2031WAT     H2 6336   0.468   5.132   6.625
 2032WAT      O 6337   5.510   4.525   4.358
 2032WAT     H1 6338   5.438   4.594   4.357
 2032WAT     H2 6339   5.479   4.443   4.310
 2033WAT      O 6340   0.657   2.559   7.293
 2033WAT     H1 6341   0.611   2.496   7.357
 2033WAT     H2 6342   0.648   2.524   7.200
 2034WAT      O 6343   7.201   5.277   7.754
 2034WAT     H1 6344   7.238   5.354   7.806
 2034WAT     H2 6345   7.214   5.293   7.656
 2035WAT      O 6346   9.183   3.442   4.956
 2035WAT     H1 6347   9.106   3.503   4.972
 2035WAT     H2 6348   9.235   3.429   5.040
 2036WAT      O 6349   3.341   0.220   3.362
 2036WAT     H1 6350   3.313   0.316   3.362
 2036WAT     H2 6351   3.377   0.196   3.272
 2037WAT      O 6352   0.297   1.228   9.240
 2037WAT     H1 6353   0.289   1.278   9.327
 2037WAT     H2 6354   0.275   1.290   9.165
 2038WAT      O 6355   6.572   0.989   4.716
 2038WAT     H1 6356   6.548   1.064   4.777
 2038WAT     H2 6357   6.659   0.950   4.744
 2039WAT      O 6358   9.499   1.896   2.930
 2039WAT     H1 6359   9.567   1.855   2.990
 2039WAT     H2 6360   9.537   1.978   2.887
 2040WAT      O 6361   5.906   4.868   2.185
 2040WAT     H1 6362   5.945   4.807   2.115
 2040WAT     H2 6363   5.978   4.897   2.247
 2041WAT      O 6364   8.809   5.091   4.216
 2041WAT     H1 6365   8.901   5.069   4.184
 2041WAT     H2 6366   8.816   5.154   4.294
 2042WAT      O 6367   0.713   0.004   6.660
 2042WAT     H1 6368   0.807  -0.030   6.650
 2042WAT     H2 6369   0.697   0.078   6.595
 2043WAT      O 6370   4.726   8.309   8.019
 2043WAT     H1 6371   4.780   8.391   8.001
 2043WAT     H2 6372   4.674   8.322   8.104
 2044WAT      O 6373   3.940   1.428   4.130
 2044WAT     H1 6374   4.001   1.363   4.175
 2044WAT     H2 6375   3.990   1.512   4.109
 2045WAT      O 6376   8.947   2.374   7.878
 2045WAT     H1 6377   8.856   2.417   7.884
 2045WAT     H2 6378   9.002   2.422   7.810
 2046WAT      O 6379   2.267   8.056   4.063
 2046WAT     H1 6380   2.271   7.997   4.144
 2046WAT     H2 6381   2.358   8.091   4.043
 2047WAT      O 6382   6.281   3.090   7.775
 2047WAT     H1 6383   6.189   3.121   7.795
 2047WAT     H2 6384   6.346   3.134   7.837
 2048WAT      O 6385   0.786   2.421   0.894
 2048WAT     H1 6386   0.788   2.519   0.871
 2048WAT     H2 6387   0.700   2.401   0.941
 2049WAT      O 6388   1.215   5.752   8.490
 2049WAT     H1 6389   1.197   5.666   8.538
 2049WAT     H2 6390   1.270   5.734   8.409
 2050WAT      O 6391   8.051   5.454   6.061
 2050WAT     H1 6392   8.060   5.450   5.962
 2050WAT     H2 6393   7.962   5.416   6.088
 2051WAT      O 6394   3.125   9.239   4.781
 2051WAT     H1 6395   3.215   9.284   4.779
 2051WAT     H2 6396   3.111   9.198   4.872
 2052WAT      O 6397   3.136   1.053   7.720
 2052WAT     H1 6398   3.219   1.040   7.665
 2052WAT     H2 6399   3.135   0.987   7.794
 2053WAT      O 6400   4.943   9.626   6.689
 2053WAT     H1 6401   4.855   9.579   6.682
 2053WAT     H2 6402   4.940   9.711   6.637
 2054WAT      O 6403   6.844   4.332   7.507
 2054WAT     H1 6404   6.927   4.278   7.498
 2054WAT     H2 6405   6.867   4.429   7.510
 2055WAT      O 6406   2.336   8.581   2.638
 2055WAT     H1 6407   2.356   8.649   2.567
 2055WAT     H2 6408   2.258   8.612   2.693
 2056WAT      O 6409   0.108   2.011   0.891
 2056WAT     H1 6410   0.097   1.911   0.884
 2056WAT     H2 6411   0.169   2.033   0.967
 2057WAT      O 6412   7.910   3.419   6.797
 2057WAT     H1 6413   7.816   3.390   6.811
 2057WAT     H2 6414   7.956   3.354   6.735
 2058WAT      O 6415   9.210   1.475   4.680
 2058WAT     H1 6416   9.148   1.432   4.745
 2058WAT     H2 6417   9.160   1.496   4.596
 2059WAT      O 6418   6.883   4.045   1.701
 2059WAT     H1 6419   6.973   4.063   1.742
 2059WAT     H2 6420   6.860   3.948   1.711
 2060WAT      O 6421   5.084   3.037   0.214
 2060WAT     H1 6422   5.107   3.052   0.310
 2060WAT     H2 6423   4.986   3.018   0.206
 2061WAT      O 6424   5.965   1.708   4.300
 2061WAT     H1 6425   5.938   1.795   4.341
 2061WAT     H2 6426   5.904   1.687   4.223
 2062WAT      O 6427   7.507   9.064   8.618
 2062WAT     H1 6428   7.545   8.975   8.594
 2062WAT     H2 6429   7.445   9.094   8.545
 2063WAT      O 6430   1.589   8.423   0.279
 2063WAT     H1 6431   1.646   8.361   0.224
 2063WAT     H2 6432   1.502   8.378   0.298
 2064WAT      O 6433   1.095   0.410   4.247
 2064WAT     H1 6434   1.064   0.405   4.342
 2064WAT     H2 6435   1.189   0.376   4.241
 2065WAT      O 6436   2.755   4.413   1.766
 2065WAT     H1 6437   2.674   4.359   1.790
 2065WAT     H2 6438   2.746   4.505   1.804
 2066WAT      O 6439   2.878   1.627   2.572
 2066WAT     H1 6440   2.875   1.536   2.530
 2066WAT     H2 6441   2.792   1.643   2.622
 2067WAT      O 6442   0.916   4.204   6.065
 2067WAT     H1 6443   0.891   4.128   6.127
 2067WAT     H2 6444   0.925   4.288   6.118
 2068WAT      O 6445   5.613   2.181   7.222
 2068WAT     H1 6446   5.645   2.224   7.306
 2068WAT     H2 6447   5.542   2.114   7.244
 2069WAT      O 6448   6.350   6.312   5.919
 2069WAT     H1 6449   6.426   6.313   5.853
 2069WAT     H2 6450   6.265   6.335   5.871
 2070WAT      O 6451   5.840   7.477   8.075
 2070WAT     H1 6452   5.868   7.545   8.142
 2070WAT     H2 6453   5.752   7.502   8.036
 2071WAT      O 6454   6.452   2.393   8.947
 2071WAT     H1 6455   6.509   2.450   8.888
 2071WAT     H2 6456   6.490   2.301   8.952
 2072WAT      O 6457   2.462   3.387   1.990
 2072WAT     H1 6458   2.548   3.419   1.950
 2072WAT     H2 6459   2.394   3.461   1.986
 2073WAT      O 6460   1.900   3.936   7.520
 2073WAT     H1 6461   1.865   3.861   7.464
 2073WAT     H2 6462   1.971   3.985   7.469
 2074WAT      O 6463   3.169   0.095   1.633
 2074WAT     H1 6464   3.175   0.017   1.570
 2074WAT     H2 6465   3.253   0.103   1.686
 2075WAT      O 6466   8.311   2.200   6.869
 2075WAT     H1 6467   8.284   2.250   6.951
 2075WAT     H2 6468   8.229   2.170   6.820
 2076WAT      O 6469   8.842   6.993   1.875
 2076WAT     H1 6470   8.834   6.899   1.908
 2076WAT     H2 6471   8.835   7.056   1.953
 2077WAT      O 6472   5.037   6.496   8.137
 2077WAT     H1 6473   4.968   6.507   8.066
 2077WAT     H2 6474   5.030   6.404   8.176
 2078WAT      O 6475   7.231   5.125   4.481
 2078WAT     H1 6476   7.134   5.105   4.470
 2078WAT     H2 6477   7.285   5.045   4.457
 2079WAT      O 6478   0.294   9.741   8.564
 2079WAT     H1 6479   0.238   9.792   8.629
 2079WAT     H2 6480   0.332   9.804   8.495
 2080WAT      O 6481   6.041   7.666   7.099
 2080WAT     H1 6482   5.967   7.708   7.047
 2080WAT     H2 6483   6.114   7.733   7.113
 2081WAT      O 6484   0.707   2.991   9.170
 2081WAT     H1 6485   0.662   2.946   9.093
 2081WAT     H2 6486   0.694   3.089   9.163
 2082WAT      O 6487   0.955   8.555   8.264
 2082WAT     H1 6488   0.871   8.605   8.245
 2082WAT     H2 6489   1.030   8.620   8.280
 2083WAT      O 6490   5.633   1.355   1.577
 2083WAT     H1 6491   5.711   1.293   1.563
 2083WAT     H2 6492   5.548   1.305   1.562
 2084WAT      O 6493   5.171   6.117   5.034
 2084WAT     H1 6494   5.251   6.069   4.997
 2084WAT     H2 6495   5.101   6.125   4.964
 2085WAT      O 6496   0.923   7.724   3.377
 2085WAT     H1 6497   0.889   7.711   3.283
 2085WAT     H2 6498   0.909   7.819   3.404
 2086WAT      O 6499   5.407   6.796   1.626
 2086WAT     H1 6500   5.442   6.868   1.685
 2086WAT     H2 6501   5.405   6.828   1.531
 2087WAT      O 6502   9.276   6.117   4.139
 2087WAT     H1 6503   9.253   6.091   4.232
 2087WAT     H2 6504   9.362   6.074   4.112
 2088WAT      O 6505   2.699   0.068   6.756
 2088WAT     H1 6506   2.743   0.086   6.667
 2088WAT     H2 6507   2.613   0.020   6.741
 2089WAT      O 6508   9.642   2.946   4.716
 2089WAT     H1 6509   9.691   2.883   4.656
 2089WAT     H2 6510   9.696   2.962   4.798
 2090WAT      O 6511   4.506   7.937   9.601
 2090WAT     H1 6512   4.568   7.902   9.671
 2090WAT     H2 6513   4.557   7.955   9.517
 2091WAT      O 6514   2.355   0.171   7.376
 2091WAT     H1 6515   2.272   0.120   7.399
 2091WAT     H2 6516   2.422   0.160   7.449
 2092WAT      O 6517   0.682   3.121   3.371
 2092WAT     H1 6518   0.704   3.031   3.334
 2092WAT     H2 6519   0.691   3.190   3.299
 2093WAT      O 6520   0.649   4.805   4.878
 2093WAT     H1 6521   0.560   4.760   4.872
 2093WAT     H2 6522   0.705   4.759   4.947
 2094WAT      O 6523   2.909   9.112   1.055
 2094WAT     H1 6524   2.967   9.167   1.114
 2094WAT     H2 6525   2.965   9.062   0.989
 2095WAT      O 6526   9.421   3.148   6.987
 2095WAT     H1 6527   9.373   3.235   6.999
 2095WAT     H2 6528   9.519   3.162   6.999
 2096WAT      O 6529   7.877   4.062   7.569
 2096WAT     H1 6530   7.821   4.109   7.637
 2096WAT     H2 6531   7.819   4.019   7.500
 2097WAT      O 6532   1.714   6.185   8.286
 2097WAT     H1 6533   1.633   6.127   8.292
 2097WAT     H2 6534   1.702   6.265   8.344
 2098WAT      O 6535   9.763   0.024   4.484
 2098WAT     H1 6536   9.748   0.121   4.504
 2098WAT     H2 6537   9.680  -0.028   4.508
 2099WAT      O 6538   1.214   1.643   2.252
 2099WAT     H1 6539   1.140   1.693   2.298
 2099WAT     H2 6540   1.284   1.619   2.319
 2100WAT      O 6541   6.281   4.334   4.296
 2100WAT     H1 6542   6.314   4.290   4.212
 2100WAT     H2 6543   6.290   4.433   4.287
 2101WAT      O 6544   8.699   8.318   8.822
 2101WAT     H1 6545   8.718   8.318   8.920
 2101WAT     H2 6546   8.633   8.245   8.802
 2102WAT      O 6547   4.962   0.484   3.922
 2102WAT     H1 6548   4.972   0.545   3.843
 2102WAT     H2 6549   4.934   0.393   3.891
 2103WAT      O 6550   2.538   3.177   5.263
 2103WAT     H1 6551   2.549   3.179   5.362
 2103WAT     H2 6552   2.486   3.096   5.236
 2104WAT      O 6553   2.633   6.963   8.534
 2104WAT     H1 6554   2.713   6.917   8.572
 2104WAT     H2 6555   2.592   7.022   8.604
 2105WAT      O 6556   2.698   8.716   5.118
 2105WAT     H1 6557   2.638   8.789   5.150
 2105WAT     H2 6558   2.746   8.745   5.035
 2106WAT      O 6559   7.856   1.647   5.789
 2106WAT     H1 6560   7.878   1.733   5.743
 2106WAT     H2 6561   7.877   1.655   5.886
 2107WAT      O 6562   1.856   8.221   9.104
 2107WAT     H1 6563   1.855   8.277   9.021
 2107WAT     H2 6564   1.892   8.130   9.082
 2108WAT      O 6565   1.611   8.148   5.256
 2108WAT     H1 6566   1.536   8.109   5.308
 2108WAT     H2 6567   1.662   8.075   5.209
 2109WAT      O 6568   6.389   0.414   0.634
 2109WAT     H1 6569   6.318   0.458   0.689
 2109WAT     H2 6570   6.458   0.375   0.694
 2110WAT      O 6571   1.405   5.649   5.496
 2110WAT     H1 6572   1.359   5.674   5.581
 2110WAT     H2 6573   1.449   5.560   5.507
 2111WAT      O 6574   6.949   4.249   6.561
 2111WAT     H1 6575   6.872   4.249   6.498
 2111WAT     H2 6576   6.958   4.340   6.602
 2112WAT      O 6577   0.767   7.105   4.562
 2112WAT     H1 6578   0.809   7.109   4.653
 2112WAT     H2 6579   0.684   7.159   4.561
 2113WAT      O 6580   0.379   6.304   6.408
 2113WAT     H1 6581   0.327   6.389   6.404
 2113WAT     H2 6582   0.431   6.300   6.493
 2114WAT      O 6583   6.188   1.415   1.734
 2114WAT     H1 6584   6.107   1.449   1.686
 2114WAT     H2 6585   6.268   1.424   1.675
 2115WAT      O 6586   0.979   3.263   0.649
 2115WAT     H1 6587   0.955   3.267   0.551
 2115WAT     H2 6588   0.904   3.219   0.699
 2116WAT      O 6589   2.263   9.683   0.355
 2116WAT     H1 6590   2.244   9.695   0.452
 2116WAT     H2 6591   2.353   9.642   0.343
 2117WAT      O 6592   4.824   6.927   0.692
 2117WAT     H1 6593   4.896   6.976   0.742
 2117WAT     H2 6594   4.735   6.961   0.722
 2118WAT      O 6595   4.248   5.321   2.296
 2118WAT     H1 6596   4.154   5.346   2.317
 2118WAT     H2 6597   4.267   5.337   2.200
 2119WAT      O 6598   8.488   8.622   9.389
 2119WAT     H1 6599   8.562   8.583   9.333
 2119WAT     H2 6600   8.523   8.645   9.479
 2120WAT      O 6601   0.984   9.190   9.840
 2120WAT     H1 6602   1.016   9.118   9.903
 2120WAT     H2 6603   1.030   9.276   9.862
 2121WAT      O 6604   6.714   7.041   0.383
 2121WAT     H1 6605   6.619   7.027   0.411
 2121WAT     H2 6606   6.731   6.995   0.296
 2122WAT      O 6607   3.944   7.277   5.457
 2122WAT     H1 6608   4.004   7.283   5.536
 2122WAT     H2 6609   3.963   7.354   5.395
 2123WAT      O 6610   2.917   2.006   6.057
 2123WAT     H1 6611   2.918   2.105   6.039
 2123WAT     H2 6612   2.886   1.957   5.976
 2124WAT      O 6613   2.629   1.567   9.023
 2124WAT     H1 6614   2.641   1.568   9.122
 2124WAT     H2 6615   2.718   1.580   8.979
 2125WAT      O 6616   3.782   5.300   2.927
 2125WAT     H1 6617   3.802   5.255   3.013
 2125WAT     H2 6618   3.867   5.326   2.881
 2126WAT      O 6619   2.377   4.363   4.595
 2126WAT     H1 6620   2.338   4.410   4.515
 2126WAT     H2 6621   2.386   4.428   4.671
 2127WAT      O 6622   1.855   3.050   3.449
 2127WAT     H1 6623   1.940   3.025   3.496
 2127WAT     H2 6624   1.847   2.998   3.365
 2128WAT      O 6625   4.736   1.670   5.054
 2128WAT     H1 6626   4.767   1.601   5.120
 2128WAT     H2 6627   4.748   1.761   5.094
 2129WAT      O 6628   5.790   4.685   4.818
 2129WAT     H1 6629   5.749   4.605   4.774
 2129WAT     H2 6630   5.720   4.755   4.833
 2130WAT      O 6631   1.451   1.481   8.269
 2130WAT     H1 6632   1.409   1.410   8.326
 2130WAT     H2 6633   1.550   1.470   8.269
 2131WAT      O 6634   9.413   7.537   9.738
 2131WAT     H1 6635   9.317   7.514   9.726
 2131WAT     H2 6636   9.467   7.453   9.747
 2132WAT      O 6637   2.536   4.920   8.762
 2132WAT     H1 6638   2.572   4.982   8.693
 2132WAT     H2 6639   2.439   4.940   8.778
 2133WAT      O 6640   0.701   9.534   7.305
 2133WAT     H1 6641   0.781   9.486   7.270
 2133WAT     H2 6642   0.662   9.483   7.381
 2134WAT      O 6643   6.029   2.822   8.370
 2134WAT     H1 6644   6.093   2.752   8.339
 2134WAT     H2 6645   6.018   2.891   8.298
 2135WAT      O 6646   1.109   6.359   1.327
 2135WAT     H1 6647   1.060   6.435   1.370
 2135WAT     H2 6648   1.204   6.385   1.313
 2136WAT      O 6649   8.908   1.787   6.358
 2136WAT     H1 6650   8.971   1.861   6.382
 2136WAT     H2 6651   8.921   1.761   6.262
 2137WAT      O 6652   5.344   0.491   3.853
 2137WAT     H1 6653   5.301   0.422   3.794
 2137WAT     H2 6654   5.314   0.582   3.825
 2138WAT      O 6655   6.423   5.598   8.489
 2138WAT     H1 6656   6.334   5.554   8.497
 2138WAT     H2 6657   6.445   5.645   8.574
 2139WAT      O 6658   6.618   8.759   3.694
 2139WAT     H1 6659   6.615   8.767   3.794
 2139WAT     H2 6660   6.568   8.834   3.653
 2140WAT      O 6661   7.522   3.928   7.830
 2140WAT     H1 6662   7.610   3.888   7.802
 2140WAT     H2 6663   7.470   3.954   7.748
 2141WAT      O 6664   1.862   4.469   4.262
 2141WAT     H1 6665   1.887   4.458   4.166
 2141WAT     H2 6666   1.816   4.386   4.294
 2142WAT      O 6667   8.242   1.167   8.110
 2142WAT     H1 6668   8.326   1.112   8.105
 2142WAT     H2 6669   8.169   1.120   8.061
 2143WAT      O 6670   5.082   1.069   7.018
 2143WAT     H1 6671   5.110   1.152   6.969
 2143WAT     H2 6672   4.995   1.087   7.065
 2144WAT      O 6673   3.517   4.006   5.123
 2144WAT     H1 6674   3.473   4.095   5.109
 2144WAT     H2 6675   3.497   3.946   5.046
 2145WAT      O 6676   0.605   1.427   2.532
 2145WAT     H1 6677   0.650   1.472   2.609
 2145WAT     H2 6678   0.580   1.334   2.558
 2146WAT      O 6679   9.858   3.290   0.074
 2146WAT     H1 6680   9.851   3.324  -0.020
 2146WAT     H2 6681   9.771   3.304   0.121
 2147WAT      O 6682   7.480   4.243   6.188
 2147WAT     H1 6683   7.533   4.163   6.216
 2147WAT     H2 6684   7.389   4.239   6.229
 2148WAT      O 6685   3.409   2.988   2.409
 2148WAT     H1 6686   3.399   3.076   2.363
 2148WAT     H2 6687   3.322   2.940   2.409
 2149WAT      O 6688   0.720   2.111   2.949
 2149WAT     H1 6689   0.625   2.081   2.942
 2149WAT     H2 6690   0.777   2.036   2.981
 2150WAT      O 6691   2.326   3.711   4.923
 2150WAT     H1 6692   2.419   3.697   4.959
 2150WAT     H2 6693   2.298   3.806   4.939
 2151WAT      O 6694   6.354   8.653   2.905
 2151WAT     H1 6695   6.388   8.712   2.978
 2151WAT     H2 6696   6.257   8.632   2.921
 2152WAT      O 6697   7.449   8.934   8.856
 2152WAT     H1 6698   7.534   8.929   8.908
 2152WAT     H2 6699   7.461   8.995   8.778
 2153WAT      O 6700   8.750   2.883   1.537
 2153WAT     H1 6701   8.747   2.979   1.509
 2153WAT     H2 6702   8.828   2.838   1.493
 2154WAT      O 6703   8.694   4.114   9.184
 2154WAT     H1 6704   8.765   4.045   9.170
 2154WAT     H2 6705   8.711   4.192   9.124
 2155WAT      O 6706   9.036   9.419   0.074
 2155WAT     H1 6707   8.987   9.446  -0.010
 2155WAT     H2 6708   9.085   9.334   0.058
 2156WAT      O 6709   0.486   1.519   1.895
 2156WAT     H1 6710   0.467   1.617   1.894
 2156WAT     H2 6711   0.559   1.499   1.959
 2157WAT      O 6712   0.545   7.935   4.207
 2157WAT     H1 6713   0.612   7.961   4.138
 2157WAT     H2 6714   0.455   7.972   4.182
 2158WAT      O 6715   2.566   5.338   5.833
 2158WAT     H1 6716   2.561   5.239   5.819
 2158WAT     H2 6717   2.654   5.360   5.875
 2159WAT      O 6718   1.374   8.836   8.441
 2159WAT     H1 6719   1.439   8.840   8.518
 2159WAT     H2 6720   1.351   8.928   8.412
 2160WAT      O 6721   7.580   0.772   0.190
 2160WAT     H1 6722   7.578   0.720   0.105
 2160WAT     H2 6723   7.660   0.745   0.244
 2161WAT      O 6724   6.267   8.576   0.740
 2161WAT     H1 6725   6.178   8.572   0.785
 2161WAT     H2 6726   6.257   8.619   0.650
 2162WAT      O 6727   5.935   0.315   3.983
 2162WAT     H1 6728   5.939   0.400   4.035
 2162WAT     H2 6729   5.839   0.289   3.970
 2163WAT      O 6730   1.860   1.029   6.805
 2163WAT     H1 6731   1.847   1.093   6.881
 2163WAT     H2 6732   1.954   1.035   6.773
 2164WAT      O 6733   4.761   6.696   6.569
 2164WAT     H1 6734   4.763   6.716   6.667
 2164WAT     H2 6735   4.763   6.781   6.518
 2165WAT      O 6736   9.566   8.414   6.395
 2165WAT     H1 6737   9.603   8.419   6.303
 2165WAT     H2 6738   9.636   8.378   6.457
 2166WAT      O 6739   8.445   3.239   3.872
 2166WAT     H1 6740   8.370   3.174   3.882
 2166WAT     H2 6741   8.438   3.309   3.943
 2167WAT      O 6742   4.364   7.186   6.752
 2167WAT     H1 6743   4.327   7.238   6.829
 2167WAT     H2 6744   4.314   7.100   6.743
 2168WAT      O 6745   2.551   7.115   7.770
 2168WAT     H1 6746   2.564   7.056   7.850
 2168WAT     H2 6747   2.549   7.059   7.688
 2169WAT      O 6748   0.658   0.456   6.105
 2169WAT     H1 6749   0.598   0.529   6.073
 2169WAT     H2 6750   0.680   0.472   6.201
 2170WAT      O 6751   9.219   7.043   1.033
 2170WAT     H1 6752   9.270   7.129   1.029
 2170WAT     H2 6753   9.261   6.977   0.971
 2171WAT      O 6754   9.310   0.665   0.606
 2171WAT     H1 6755   9.339   0.589   0.547
 2171WAT     H2 6756   9.242   0.720   0.558
 2172WAT      O 6757   1.880   0.213   7.552
 2172WAT     H1 6758   1.859   0.169   7.464
 2172WAT     H2 6759   1.842   0.305   7.553
 2173WAT      O 6760   6.233   9.066   6.798
 2173WAT     H1 6761   6.329   9.067   6.771
 2173WAT     H2 6762   6.224   9.092   6.894
 2174WAT      O 6763   7.465   3.197   5.901
 2174WAT     H1 6764   7.413   3.281   5.886
 2174WAT     H2 6765   7.535   3.213   5.970
 2175WAT      O 6766   0.597   4.143   1.031
 2175WAT     H1 6767   0.559   4.226   0.988
 2175WAT     H2 6768   0.684   4.166   1.075
 2176WAT      O 6769   6.809   6.259   6.833
 2176WAT     H1 6770   6.864   6.249   6.915
 2176WAT     H2 6771   6.763   6.348   6.833
 2177WAT      O 6772   6.049   7.523   1.773
 2177WAT     H1 6773   6.136   7.572   1.782
 2177WAT     H2 6774   6.020   7.490   1.863
 2178WAT      O 6775   2.476   3.076   8.867
 2178WAT     H1 6776   2.549   3.050   8.803
 2178WAT     H2 6777   2.408   3.132   8.820
 2179WAT      O 6778   5.158   8.547   6.524
 2179WAT     H1 6779   5.147   8.627   6.583
 2179WAT     H2 6780   5.210   8.573   6.442
 2180WAT      O 6781   0.735   4.161   4.918
 2180WAT     H1 6782   0.676   4.146   4.839
 2180WAT     H2 6783   0.814   4.100   4.914
 2181WAT      O 6784   4.376   9.568   9.112
 2181WAT     H1 6785   4.290   9.533   9.073
 2181WAT     H2 6786   4.448   9.500   9.098
 2182WAT      O 6787   0.283   7.633   4.760
 2182WAT     H1 6788   0.291   7.698   4.684
 2182WAT     H2 6789   0.260   7.683   4.844
 2183WAT      O 6790   4.305   4.275   9.017
 2183WAT     H1 6791   4.221   4.296   9.067
 2183WAT     H2 6792   4.382   4.324   9.059
 2184WAT      O 6793   9.226   5.647   5.281
 2184WAT     H1 6794   9.301   5.632   5.217
 2184WAT     H2 6795   9.263   5.661   5.373
 2185WAT      O 6796   6.378   7.031   7.675
 2185WAT     H1 6797   6.461   7.086   7.663
 2185WAT     H2 6798   6.390   6.943   7.630
 2186WAT      O 6799   6.867   3.106   6.679
 2186WAT     H1 6800   6.792   3.150   6.629
 2186WAT     H2 6801   6.900   3.028   6.626
 2187WAT      O 6802   8.871   9.728   2.284
 2187WAT     H1 6803   8.938   9.672   2.334
 2187WAT     H2 6804   8.811   9.668   2.231
 2188WAT      O 6805   4.447   7.903   3.705
 2188WAT     H1 6806   4.443   7.882   3.607
 2188WAT     H2 6807   4.433   8.001   3.718
 2189WAT      O 6808   8.595   1.880   6.724
 2189WAT     H1 6809   8.561   1.903   6.815
 2189WAT     H2 6810   8.661   1.805   6.730
 2190WAT      O 6811   4.278   4.823   8.048
 2190WAT     H1 6812   4.305   4.736   8.090
 2190WAT     H2 6813   4.193   4.855   8.089
 2191WAT      O 6814   6.470   7.405   4.320
 2191WAT     H1 6815   6.510   7.490   4.285
 2191WAT     H2 6816   6.381   7.390   4.278
 2192WAT      O 6817   5.914   5.961   8.429
 2192WAT     H1 6818   5.884   5.869   8.404
 2192WAT     H2 6819   5.852   6.000   8.496
 2193WAT      O 6820   2.937   2.550   5.309
 2193WAT     H1 6821   2.840   2.526   5.310
 2193WAT     H2 6822   2.993   2.468   5.318
 2194WAT      O 6823   2.844   5.020   4.781
 2194WAT     H1 6824   2.868   4.951   4.849
 2194WAT     H2 6825   2.844   4.979   4.690
 2195WAT      O 6826   7.682   0.225   6.621
 2195WAT     H1 6827   7.745   0.270   6.684
 2195WAT     H2 6828   7.710   0.130   6.608
 2196WAT      O 6829   0.897   8.265   0.510
 2196WAT     H1 6830   0.836   8.331   0.554
 2196WAT     H2 6831   0.853   8.175   0.507
 2197WAT      O 6832   6.081   1.478   3.972
 2197WAT     H1 6833   6.068   1.544   3.898
 2197WAT     H2 6834   6.142   1.405   3.942
 2198WAT      O 6835   8.810   5.716   0.817
 2198WAT     H1 6836   8.737   5.738   0.752
 2198WAT     H2 6837   8.774   5.722   0.910
 2199WAT      O 6838   5.926   1.110   2.127
 2199WAT     H1 6839   5.838   1.148   2.153
 2199WAT     H2 6840   5.930   1.013   2.153
 2200WAT      O 6841   0.795   5.933   6.151
 2200WAT     H1 6842   0.881   5.938   6.201
 2200WAT     H2 6843   0.749   5.847   6.172
 2201WAT      O 6844   3.165   0.012   6.654
 2201WAT     H1 6845   3.151   0.110   6.660
 2201WAT     H2 6846   3.263  -0.008   6.644
 2202WAT      O 6847   0.792   3.272   3.802
 2202WAT     H1 6848   0.875   3.238   3.845
 2202WAT     H2 6849   0.753   3.202   3.743
 2203WAT      O 6850   0.037  -0.005   4.823
 2203WAT     H1 6851  -0.030   0.068   4.810
 2203WAT     H2 6852   0.122   0.018   4.777
 2204WAT      O 6853   8.205   7.906   9.886
 2204WAT     H1 6854   8.225   7.998   9.853
 2204WAT     H2 6855   8.191   7.845   9.807
 2205WAT      O 6856   1.366   4.269   7.231
 2205WAT     H1 6857   1.320   4.248   7.318
 2205WAT     H2 6858   1.300   4.308   7.167
 2206WAT      O 6859   4.681   6.911   7.734
 2206WAT     H1 6860   4.714   6.998   7.697
 2206WAT     H2 6861   4.603   6.927   7.793
 2207WAT      O 6862   4.219   1.371   1.743
 2207WAT     H1 6863   4.158   1.431   1.794
 2207WAT     H2 6864   4.164   1.307   1.688
 2208WAT      O 6865   5.890   4.779   4.315
 2208WAT     H1 6866   5.849   4.698   4.274
 2208WAT     H2 6867   5.891   4.853   4.248
 2209WAT      O 6868   0.981   8.141   4.320
 2209WAT     H1 6869   0.943   8.223   4.278
 2209WAT     H2 6870   1.023   8.165   4.408
 2210WAT      O 6871   1.229   7.227   2.630
 2210WAT     H1 6872   1.241   7.219   2.531
 2210WAT     H2 6873   1.136   7.200   2.654
 2211WAT      O 6874   3.827   7.304   7.888
 2211WAT     H1 6875   3.926   7.312   7.887
 2211WAT     H2 6876   3.800   7.217   7.847
 2212WAT      O 6877   8.546   2.083   2.874
 2212WAT     H1 6878   8.611   2.009   2.894
 2212WAT     H2 6879   8.475   2.084   2.945
 2213WAT      O 6880   5.951   0.137   8.774
 2213WAT     H1 6881   5.902   0.114   8.858
 2213WAT     H2 6882   5.887   0.176   8.708
 2214WAT      O 6883   3.066   1.788   0.687
 2214WAT     H1 6884   3.156   1.831   0.682
 2214WAT     H2 6885   2.996   1.857   0.708
 2215WAT      O 6886   2.381   7.010   3.855
 2215WAT     H1 6887   2.324   7.023   3.936
 2215WAT     H2 6888   2.397   6.913   3.841
 2216WAT      O 6889   8.324   6.016   9.087
 2216WAT     H1 6890   8.275   5.975   9.164
 2216WAT     H2 6891   8.343   5.946   9.018
 2217WAT      O 6892   2.085   2.495   5.615
 2217WAT     H1 6893   2.012   2.455   5.670
 2217WAT     H2 6894   2.047   2.540   5.535
 2218WAT      O 6895   8.819   4.154   0.755
 2218WAT     H1 6896   8.846   4.062   0.728
 2218WAT     H2 6897   8.785   4.152   0.849
 2219WAT      O 6898   6.226   9.628   6.486
 2219WAT     H1 6899   6.286   9.604   6.410
 2219WAT     H2 6900   6.267   9.597   6.572
 2220WAT      O 6901   2.007   7.018   4.716
 2220WAT     H1 6902   2.095   6.970   4.705
 2220WAT     H2 6903   1.944   6.988   4.645
 2221WAT      O 6904   6.747   6.296   7.933
 2221WAT     H1 6905   6.760   6.207   7.977
 2221WAT     H2 6906   6.834   6.330   7.901
 2222WAT      O 6907   5.511   3.985   9.737
 2222WAT     H1 6908   5.511   4.023   9.829
 2222WAT     H2 6909   5.605   3.981   9.702
 2223WAT      O 6910   8.557   8.166   2.593
 2223WAT     H1 6911   8.573   8.220   2.676
 2223WAT     H2 6912   8.462   8.134   2.593
 2224WAT      O 6913   1.469   2.530   4.482
 2224WAT     H1 6914   1.497   2.592   4.409
 2224WAT     H2 6915   1.418   2.581   4.552
 2225WAT      O 6916   1.339   5.396   4.893
 2225WAT     H1 6917   1.422   5.367   4.941
 2225WAT     H2 6918   1.363   5.432   4.803
 2226WAT      O 6919   8.948   2.861   5.403
 2226WAT     H1 6920   8.866   2.827   5.449
 2226WAT     H2 6921   9.000   2.919   5.466
 2227WAT      O 6922   2.428   1.717   0.942
 2227WAT     H1 6923   2.365   1.658   0.994
 2227WAT     H2 6924   2.405   1.714   0.845
 2228WAT      O 6925   8.091   0.282   4.463
 2228WAT     H1 6926   8.170   0.309   4.519
 2228WAT     H2 6927   8.088   0.338   4.381
 2229WAT      O 6928   4.056   8.313   9.182
 2229WAT     H1 6929   4.095   8.278   9.097
 2229WAT     H2 6930   4.019   8.237   9.235
 2230WAT      O 6931   0.218   0.419   9.118
 2230WAT     H1 6932   0.170   0.348   9.169
 2230WAT     H2 6933   0.316   0.400   9.119
 2231WAT      O 6934   7.949   7.837   2.600
 2231WAT     H1 6935   7.948   7.742   2.630
 2231WAT     H2 6936   7.905   7.894   2.670
 2232WAT      O 6937   6.792   5.773   3.379
 2232WAT     H1 6938   6.722   5.841   3.401
 2232WAT     H2 6939   6.748   5.687   3.351
 2233WAT      O 6940   7.913   2.475   1.790
 2233WAT     H1 6941   7.977   2.482   1.714
 2233WAT     H2 6942   7.821   2.498   1.760
 2234WAT      O 6943   4.639   7.615   6.753
 2234WAT     H1 6944   4.545   7.598   6.724
 2234WAT     H2 6945   4.640   7.680   6.828
 2235WAT      O 6946   5.677   9.568   5.805
 2235WAT     H1 6947   5.629   9.490   5.844
 2235WAT     H2 6948   5.624   9.605   5.729
 2236WAT      O 6949   0.498   6.792   2.796
 2236WAT     H1 6950   0.590   6.785   2.833
 2236WAT     H2 6951   0.432   6.799   2.872
 2237WAT      O 6952   4.795   7.245   4.218
 2237WAT     H1 6953   4.801   7.280   4.312
 2237WAT     H2 6954   4.740   7.308   4.163
 2238WAT      O 6955   2.900   6.862   3.350
 2238WAT     H1 6956   2.904   6.926   3.273
 2238WAT     H2 6957   2.948   6.903   3.429
 2239WAT      O 6958   4.558   4.408   5.876
 2239WAT     H1 6959   4.606   4.388   5.961
 2239WAT     H2 6960   4.510   4.326   5.845
 2240WAT      O 6961   7.439   1.417   5.694
 2240WAT     H1 6962   7.351   1.383   5.728
 2240WAT     H2 6963   7.489   1.460   5.769
 2241WAT      O 6964   3.328   7.768   6.152
 2241WAT     H1 6965   3.233   7.788   6.175
 2241WAT     H2 6966   3.356   7.684   6.198
 2242WAT      O 6967   8.129   9.399   6.233
 2242WAT     H1 6968   8.040   9.425   6.271
 2242WAT     H2 6969   8.125   9.404   6.133
 2243WAT      O 6970   0.724   4.492   1.201
 2243WAT     H1 6971   0.644   4.453   1.156
 2243WAT     H2 6972   0.804   4.486   1.140
 2244WAT      O 6973   6.004   3.694   0.165
 2244WAT     H1 6974   5.937   3.699   0.239
 2244WAT     H2 6975   6.075   3.764   0.179
 2245WAT      O 6976   1.850   7.169   9.102
 2245WAT     H1 6977   1.935   7.118   9.096
 2245WAT     H2 6978   1.868   7.263   9.130
 2246WAT      O 6979   5.713   2.155   0.818
 2246WAT     H1 6980   5.649   2.082   0.841
 2246WAT     H2 6981   5.759   2.187   0.901
 2247WAT      O 6982   2.739   3.631   5.413
 2247WAT     H1 6983   2.793   3.594   5.337
 2247WAT     H2 6984   2.650   3.662   5.378
 2248WAT      O 6985   9.417   0.603   1.665
 2248WAT     H1 6986   9.428   0.655   1.580
 2248WAT     H2 6987   9.320   0.587   1.682
 2249WAT      O 6988   9.247   1.028   7.088
 2249WAT     H1 6989   9.252   1.125   7.109
 2249WAT     H2 6990   9.328   0.982   7.126
 2250WAT      O 6991   0.020   1.629   4.374
 2250WAT     H1 6992   0.109   1.621   4.329
 2250WAT     H2 6993   0.014   1.563   4.449
 2251WAT      O 6994   5.862   4.147   4.281
 2251WAT     H1 6995   5.767   4.174   4.294
 2251WAT     H2 6996   5.923   4.222   4.305
 2252WAT      O 6997   0.581   9.327   7.527
 2252WAT     H1 6998   0.509   9.382   7.568
 2252WAT     H2 6999   0.551   9.293   7.438
 2253WAT      O 7000   3.418   1.137   0.742
 2253WAT     H1 7001   3.385   1.199   0.814
 2253WAT     H2 7002   3.517   1.128   0.750
 2254WAT      O 7003   0.821   8.609   3.966
 2254WAT     H1 7004   0.841   8.512   3.952
 2254WAT     H2 7005   0.744   8.636   3.907
 2255WAT      O 7006   7.336   9.773   4.730
 2255WAT     H1 7007   7.366   9.868   4.738
 2255WAT     H2 7008   7.244   9.771   4.691
 2256WAT      O 7009   5.258   4.346   8.316
 2256WAT     H1 7010   5.280   4.414   8.246
 2256WAT     H2 7011   5.327   4.274   8.314
 2257WAT      O 7012   3.468   4.242   3.070
 2257WAT     H1 7013   3.477   4.174   3.142
 2257WAT     H2 7014   3.559   4.261   3.031
 2258WAT      O 7015   7.406   4.863   2.108
 2258WAT     H1 7016   7.472   4.921   2.155
 2258WAT     H2 7017   7.452   4.781   2.074
 2259WAT      O 7018   0.207   3.058   8.992
 2259WAT     H1 7019   0.238   2.965   8.970
 2259WAT     H2 7020   0.109   3.065   8.975
 2260WAT      O 7021   9.217   7.378   0.318
 2260WAT     H1 7022   9.238   7.298   0.261
 2260WAT     H2 7023   9.137   7.424   0.281
 2261WAT      O 7024   1.583   5.053   1.919
 2261WAT     H1 7025   1.562   4.973   1.861
 2261WAT     H2 7026   1.586   5.024   2.015
 2262WAT      O 7027   1.973   4.784   7.967
 2262WAT     H1 7028   2.017   4.819   8.050
 2262WAT     H2 7029   1.920   4.856   7.925
 2263WAT      O 7030   2.786   2.838   9.439
 2263WAT     H1 7031   2.771   2.743   9.413
 2263WAT     H2 7032   2.763   2.898   9.363
 2264WAT      O 7033   2.948   8.050   3.670
 2264WAT     H1 7034   2.901   8.010   3.748
 2264WAT     H2 7035   3.046   8.027   3.674
 2265WAT      O 7036   4.916   7.775   7.013
 2265WAT     H1 7037   4.880   7.748   7.103
 2265WAT     H2 7038   4.982   7.850   7.025
 2266WAT      O 7039   7.171   6.517   2.943
 2266WAT     H1 7040   7.145   6.422   2.960
 2266WAT     H2 7041   7.269   6.522   2.925
 2267WAT      O 7042   4.856   6.406   4.960
 2267WAT     H1 7043   4.757   6.398   4.969
 2267WAT     H2 7044   4.878   6.495   4.919
 2268WAT      O 7045   2.300   8.776   2.436
 2268WAT     H1 7046   2.347   8.856   2.474
 2268WAT     H2 7047   2.214   8.762   2.486
 2269WAT      O 7048   4.904   3.747   0.953
 2269WAT     H1 7049   4.901   3.818   0.883
 2269WAT     H2 7050   4.811   3.715   0.971
 2270WAT      O 7051   9.755   1.263   4.240
 2270WAT     H1 7052   9.715   1.205   4.168
 2270WAT     H2 7053   9.682   1.308   4.291
 2271WAT      O 7054   8.500   0.638   1.687
 2271WAT     H1 7055   8.452   0.683   1.761
 2271WAT     H2 7056   8.556   0.564   1.724
 2272WAT      O 7057   2.997   5.242   2.403
 2272WAT     H1 7058   2.953   5.259   2.492
 2272WAT     H2 7059   3.095   5.259   2.411
 2273WAT      O 7060   6.121   8.324   6.236
 2273WAT     H1 7061   6.074   8.406   6.203
 2273WAT     H2 7062   6.120   8.254   6.165
 2274WAT      O 7063   8.794   3.210   4.030
 2274WAT     H1 7064   8.737   3.234   4.108
 2274WAT     H2 7065   8.785   3.113   4.010
 2275WAT      O 7066   6.482   5.420   6.362
 2275WAT     H1 7067   6.524   5.480   6.430
 2275WAT     H2 7068   6.466   5.330   6.403
 2276WAT      O 7069   4.335   7.812   7.223
 2276WAT     H1 7070   4.288   7.822   7.310
 2276WAT     H2 7071   4.425   7.854   7.229
 2277WAT      O 7072   6.437   9.064   9.147
 2277WAT     H1 7073   6.423   9.047   9.245
 2277WAT     H2 7074   6.525   9.108   9.133
 2278WAT      O 7075   0.486   6.442   8.815
 2278WAT     H1 7076   0.560   6.377   8.797
 2278WAT     H2 7077   0.456   6.484   8.730
 2279WAT      O 7078   1.421   2.316   9.004
 2279WAT     H1 7079   1.386   2.329   9.097
 2279WAT     H2 7080   1.446   2.404   8.965
 2280WAT      O 7081   3.111   2.323   7.293
 2280WAT     H1 7082   3.121   2.390   7.367
 2280WAT     H2 7083   3.127   2.231   7.329
 2281WAT      O 7084   3.786   3.946   5.258
 2281WAT     H1 7085   3.694   3.968   5.226
 2281WAT     H2 7086   3.799   3.983   5.350
 2282WAT      O 7087   1.261   8.469   0.018
 2282WAT     H1 7088   1.343   8.503  -0.028
 2282WAT     H2 7089   1.240   8.377  -0.015
 2283WAT      O 7090   1.036   7.600   9.378
 2283WAT     H1 7091   1.120   7.656   9.377
 2283WAT     H2 7092   0.962   7.653   9.419
 2284WAT      O 7093   5.552   5.279   3.493
 2284WAT     H1 7094   5.554   5.273   3.593
 2284WAT     H2 7095   5.480   5.220   3.458
 2285WAT      O 7096   2.648   3.398   1.299
 2285WAT     H1 7097   2.740   3.371   1.271
 2285WAT     H2 7098   2.654   3.464   1.374
 2286WAT      O 7099   2.744   3.652   6.633
 2286WAT     H1 7100   2.671   3.621   6.696
 2286WAT     H2 7101   2.703   3.684   6.548
 2287WAT      O 7102   7.144   9.089   3.911
 2287WAT     H1 7103   7.075   9.033   3.866
 2287WAT     H2 7104   7.120   9.186   3.903
 2288WAT      O 7105   8.862   1.810   5.876
 2288WAT     H1 7106   8.804   1.892   5.878
 2288WAT     H2 7107   8.872   1.777   5.782
 2289WAT      O 7108   9.080   2.125   1.511
 2289WAT     H1 7109   9.050   2.038   1.550
 2289WAT     H2 7110   9.106   2.187   1.585
 2290WAT      O 7111   3.266   1.350   5.970
 2290WAT     H1 7112   3.306   1.312   5.887
 2290WAT     H2 7113   3.225   1.277   6.024
 2291WAT      O 7114   4.213   2.331   5.202
 2291WAT     H1 7115   4.168   2.249   5.166
 2291WAT     H2 7116   4.308   2.334   5.171
 2292WAT      O 7117   0.468   2.866   2.640
 2292WAT     H1 7118   0.422   2.890   2.554
 2292WAT     H2 7119   0.399   2.845   2.709
 2293WAT      O 7120   3.553   2.386   0.338
 2293WAT     H1 7121   3.644   2.360   0.369
 2293WAT     H2 7122   3.532   2.478   0.369
 2294WAT      O 7123   4.808   0.590   1.767
 2294WAT     H1 7124   4.847   0.518   1.824
 2294WAT     H2 7125   4.805   0.675   1.818
 2295WAT      O 7126   0.202   5.978   4.574
 2295WAT     H1 7127   0.197   6.041   4.497
 2295WAT     H2 7128   0.117   5.927   4.582
 2296WAT      O 7129   1.942   6.110   2.093
 2296WAT     H1 7130   1.874   6.042   2.068
 2296WAT     H2 7131   2.032   6.066   2.101
 2297WAT      O 7132   1.407   1.908   9.253
 2297WAT     H1 7133   1.323   1.937   9.298
 2297WAT     H2 7134   1.397   1.916   9.154
 2298WAT      O 7135   0.193   6.739   4.371
 2298WAT     H1 7136   0.279   6.712   4.414
 2298WAT     H2 7137   0.207   6.744   4.272
 2299WAT      O 7138   5.209   8.930   2.325
 2299WAT     H1 7139   5.255   8.843   2.310
 2299WAT     H2 7140   5.272   8.993   2.372
 2300WAT      O 7141   1.842   1.547   9.724
 2300WAT     H1 7142   1.898   1.626   9.697
 2300WAT     H2 7143   1.815   1.496   9.643
 2301WAT      O 7144   5.084   5.093   9.348
 2301WAT     H1 7145   5.181   5.074   9.358
 2301WAT     H2 7146   5.057   5.167   9.410
 2302WAT      O 7147   7.736   3.770   5.627
 2302WAT     H1 7148   7.786   3.809   5.550
 2302WAT     H2 7149   7.680   3.841   5.670
 2303WAT      O 7150   0.136   1.400   5.726
 2303WAT     H1 7151   0.137   1.480   5.665
 2303WAT     H2 7152   0.085   1.326   5.681
 2304WAT      O 7153   8.336   9.015   8.566
 2304WAT     H1 7154   8.288   9.061   8.641
 2304WAT     H2 7155   8.434   9.011   8.587
 2305WAT      O 7156   9.536   8.672   0.591
 2305WAT     H1 7157   9.560   8.700   0.498
 2305WAT     H2 7158   9.438   8.650   0.594
 2306WAT      O 7159   7.401   6.436   3.864
 2306WAT     H1 7160   7.456   6.519   3.872
 2306WAT     H2 7161   7.310   6.453   3.903
 2307WAT      O 7162   1.586   6.466   0.349
 2307WAT     H1 7163   1.638   6.384   0.327
 2307WAT     H2 7164   1.489   6.444   0.352
 2308WAT      O 7165   1.314   4.308   6.322
 2308WAT     H1 7166   1.215   4.296   6.314
 2308WAT     H2 7167   1.360   4.223   6.294
 2309WAT      O 7168   4.525   7.686   1.179
 2309WAT     H1 7169   4.454   7.750   1.152
 2309WAT     H2 7170   4.547   7.626   1.103
 2310WAT      O 7171   8.090   0.038   0.482
 2310WAT     H1 7172   8.102   0.132   0.450
 2310WAT     H2 7173   8.154   0.020   0.556
 2311WAT      O 7174   4.062   2.917   7.647
 2311WAT     H1 7175   4.004   2.986   7.691
 2311WAT     H2 7176   4.018   2.828   7.654
 2312WAT      O 7177   9.003   2.939   5.909
 2312WAT     H1 7178   8.912   2.911   5.877
 2312WAT     H2 7179   9.012   2.917   6.006
 2313WAT      O 7180   2.813   3.121   4.761
 2313WAT     H1 7181   2.816   3.204   4.817
 2313WAT     H2 7182   2.901   3.075   4.764
 2314WAT      O 7183   5.339   9.450   5.336
 2314WAT     H1 7184   5.266   9.451   5.267
 2314WAT     H2 7185   5.317   9.514   5.409
 2315WAT      O 7186   2.945   1.103   8.572
 2315WAT     H1 7187   2.976   1.008   8.582
 2315WAT     H2 7188   2.854   1.104   8.531
 2316WAT      O 7189   7.404   4.134   3.516
 2316WAT     H1 7190   7.494   4.120   3.474
 2316WAT     H2 7191   7.341   4.171   3.447
 2317WAT      O 7192   7.549   3.214   1.639
 2317WAT     H1 7193   7.629   3.247   1.589
 2317WAT     H2 7194   7.567   3.216   1.737
 2318WAT      O 7195   4.716   6.978   4.362
 2318WAT     H1 7196   4.731   6.893   4.312
 2318WAT     H2 7197   4.804   7.024   4.378
 2319WAT      O 7198   3.035   2.215   8.570
 2319WAT     H1 7199   2.967   2.142   8.567
 2319WAT     H2 7200   3.124   2.177   8.594
 2320WAT      O 7201   4.461   7.807   0.121
 2320WAT     H1 7202   4.440   7.895   0.162
 2320WAT     H2 7203   4.381   7.775   0.069
 2321WAT      O 7204   0.437   2.525   3.474
 2321WAT     H1 7205   0.405   2.605   3.424
 2321WAT     H2 7206   0.512   2.481   3.423
 2322WAT      O 7207   3.640   9.460   9.762
 2322WAT     H1 7208   3.663   9.444   9.858
 2322WAT     H2 7209   3.572   9.533   9.756
 2323WAT      O 7210   6.960   7.598   3.512
 2323WAT     H1 7211   6.928   7.534   3.443
 2323WAT     H2 7212   6.903   7.680   3.511
 2324WAT      O 7213   3.470   9.261   1.267
 2324WAT     H1 7214   3.534   9.185   1.279
 2324WAT     H2 7215   3.414   9.245   1.186
 2325WAT      O 7216   8.844   3.632   3.771
 2325WAT     H1 7217   8.879   3.594   3.685
 2325WAT     H2 7218   8.856   3.732   3.770
 2326WAT      O 7219   8.006   5.114   7.746
 2326WAT     H1 7220   8.081   5.080   7.689
 2326WAT     H2 7221   7.939   5.041   7.760
 2327WAT      O 7222   3.786   1.580   6.359
 2327WAT     H1 7223   3.689   1.600   6.363
 2327WAT     H2 7224   3.813   1.563   6.264
 2328WAT      O 7225   7.078   5.701   0.131
 2328WAT     H1 7226   7.059   5.789   0.086
 2328WAT     H2 7227   7.113   5.718   0.224
 2329WAT      O 7228   1.902   2.727   6.013
 2329WAT     H1 7229   1.980   2.701   6.071
 2329WAT     H2 7230   1.904   2.826   5.997
 2330WAT      O 7231   4.077   1.472   9.313
 2330WAT     H1 7232   4.028   1.389   9.287
 2330WAT     H2 7233   4.164   1.476   9.264
 2331WAT      O 7234   0.058   0.945   6.945
 2331WAT     H1 7235   0.135   0.909   6.891
 2331WAT     H2 7236   0.094   0.998   7.021
 2332WAT      O 7237   5.462   5.507   4.542
 2332WAT     H1 7238   5.559   5.524   4.522
 2332WAT     H2 7239   5.410   5.512   4.457
 2333WAT      O 7240   0.015   0.590   9.092
 2333WAT     H1 7241  -0.024   0.570   9.002
 2333WAT     H2 7242   0.094   0.531   9.107
 2334WAT      O 7243   6.975   0.858   2.530
 2334WAT     H1 7244   6.927   0.909   2.459
 2334WAT     H2 7245   6.960   0.760   2.518
 2335WAT      O 7246   6.897   2.257   1.335
 2335WAT     H1 7247   6.918   2.181   1.396
 2335WAT     H2 7248   6.835   2.320   1.381
 2336WAT      O 7249   6.028   1.302   8.476
 2336WAT     H1 7250   6.036   1.209   8.440
 2336WAT     H2 7251   6.104   1.321   8.538
 2337WAT      O 7252   3.523   1.614   6.395
 2337WAT     H1 7253   3.455   1.688   6.399
 2337WAT     H2 7254   3.516   1.567   6.307
 2338WAT      O 7255   5.954   0.702   4.306
 2338WAT     H1 7256   6.020   0.750   4.248
 2338WAT     H2 7257   5.909   0.768   4.367
 2339WAT      O 7258   3.816   8.756   9.664
 2339WAT     H1 7259   3.791   8.725   9.572
 2339WAT     H2 7260   3.738   8.804   9.706
 2340WAT      O 7261   5.172   4.356   1.553
 2340WAT     H1 7262   5.086   4.315   1.582
 2340WAT     H2 7263   5.234   4.284   1.521
 2341WAT      O 7264   9.512   0.889   7.155
 2341WAT     H1 7265   9.549   0.796   7.159
 2341WAT     H2 7266   9.586   0.954   7.139
 2342WAT      O 7267   3.882   8.710   3.140
 2342WAT     H1 7268   3.792   8.754   3.144
 2342WAT     H2 7269   3.871   8.615   3.112
 2343WAT      O 7270   4.474   7.397   3.372
 2343WAT     H1 7271   4.443   7.321   3.430
 2343WAT     H2 7272   4.451   7.484   3.416
 2344WAT      O 7273   1.963   3.411   1.637
 2344WAT     H1 7274   1.942   3.313   1.635
 2344WAT     H2 7275   2.033   3.432   1.569
 2345WAT      O 7276   3.533   3.062   5.659
 2345WAT     H1 7277   3.498   2.970   5.646
 2345WAT     H2 7278   3.629   3.066   5.632
 2346WAT      O 7279   1.740   3.728   8.870
 2346WAT     H1 7280   1.687   3.657   8.824
 2346WAT     H2 7281   1.741   3.711   8.968
 2347WAT      O 7282   9.495   6.162   9.554
 2347WAT     H1 7283   9.405   6.175   9.514
 2347WAT     H2 7284   9.530   6.071   9.529
 2348WAT      O 7285   8.102   0.244   1.879
 2348WAT     H1 7286   8.118   0.146   1.890
 2348WAT     H2 7287   8.156   0.294   1.946
 2349WAT      O 7288   0.365   0.692   1.362
 2349WAT     H1 7289   0.403   0.756   1.295
 2349WAT     H2 7290   0.272   0.666   1.335
 2350WAT      O 7291   8.248   4.421   0.286
 2350WAT     H1 7292   8.314   4.489   0.319
 2350WAT     H2 7293   8.180   4.466   0.228
 2351WAT      O 7294   3.446   7.210   1.175
 2351WAT     H1 7295   3.401   7.124   1.150
 2351WAT     H2 7296   3.532   7.190   1.223
 2352WAT      O 7297   7.238   7.292   4.659
 2352WAT     H1 7298   7.316   7.298   4.596
 2352WAT     H2 7299   7.191   7.205   4.646
 2353WAT      O 7300   7.007   5.061   1.116
 2353WAT     H1 7301   7.037   5.135   1.176
 2353WAT     H2 7302   6.946   4.999   1.165
 2354WAT      O 7303   0.149   9.490   1.010
 2354WAT     H1 7304   0.112   9.406   0.971
 2354WAT     H2 7305   0.077   9.537   1.061
 2355WAT      O 7306   5.690   0.361   1.495
 2355WAT     H1 7307   5.728   0.320   1.577
 2355WAT     H2 7308   5.613   0.307   1.462
 2356WAT      O 7309   6.158   2.468   5.251
 2356WAT     H1 7310   6.257   2.481   5.249
 2356WAT     H2 7311   6.136   2.385   5.302
 2357WAT      O 7312   5.678   3.480   3.661
 2357WAT     H1 7313   5.674   3.432   3.573
 2357WAT     H2 7314   5.586   3.502   3.691
 2358WAT      O 7315   2.475   6.830   8.323
 2358WAT     H1 7316   2.524   6.878   8.396
 2358WAT     H2 7317   2.378   6.854   8.326
 2359WAT      O 7318   9.774   0.935   6.688
 2359WAT     H1 7319   9.708   0.862   6.667
 2359WAT     H2 7320   9.856   0.894   6.729
 2360WAT      O 7321   2.190   2.347   1.350
 2360WAT     H1 7322   2.223   2.440   1.337
 2360WAT     H2 7323   2.248   2.300   1.416
 2361WAT      O 7324   2.447   5.628   6.125
 2361WAT     H1 7325   2.462   5.569   6.204
 2361WAT     H2 7326   2.349   5.635   6.107
 2362WAT      O 7327   0.849   2.992   8.733
 2362WAT     H1 7328   0.785   3.017   8.660
 2362WAT     H2 7329   0.800   2.946   8.807
 2363WAT      O 7330   2.048   3.220   3.277
 2363WAT     H1 7331   2.144   3.240   3.258
 2363WAT     H2 7332   2.037   3.122   3.292
 2364WAT      O 7333   6.238   5.146   6.645
 2364WAT     H1 7334   6.227   5.057   6.690
 2364WAT     H2 7335   6.235   5.219   6.713
 2365WAT      O 7336   0.201   2.882   1.275
 2365WAT     H1 7337   0.295   2.861   1.249
 2365WAT     H2 7338   0.138   2.833   1.213
 2366WAT      O 7339   8.202   0.134   3.532
 2366WAT     H1 7340   8.285   0.083   3.509
 2366WAT     H2 7341   8.209   0.169   3.625
 2367WAT      O 7342   3.488   0.051   4.159
 2367WAT     H1 7343   3.584   0.076   4.150
 2367WAT     H2 7344   3.442   0.060   4.071
 2368WAT      O 7345   4.866   2.506   0.615
 2368WAT     H1 7346   4.831   2.512   0.522
 2368WAT     H2 7347   4.951   2.452   0.615
 2369WAT      O 7348   2.737   9.422   2.531
 2369WAT     H1 7349   2.754   9.408   2.433
 2369WAT     H2 7350   2.771   9.343   2.582
 2370WAT      O 7351   0.832   3.207   7.069
 2370WAT     H1 7352   0.833   3.287   7.129
 2370WAT     H2 7353   0.781   3.133   7.112
 2371WAT      O 7354   5.148   8.787   7.975
 2371WAT     H1 7355   5.104   8.870   7.942
 2371WAT     H2 7356   5.199   8.807   8.058
 2372WAT      O 7357   0.368   5.203   1.377
 2372WAT     H1 7358   0.368   5.104   1.393
 2372WAT     H2 7359   0.398   5.221   1.283
 2373WAT      O 7360   7.670   1.572   6.410
 2373WAT     H1 7361   7.665   1.658   6.462
 2373WAT     H2 7362   7.620   1.583   6.323
 2374WAT      O 7363   6.759   8.979   6.083
 2374WAT     H1 7364   6.677   9.011   6.034
 2374WAT     H2 7365   6.788   8.891   6.046
 2375WAT      O 7366   3.713   0.749   4.292
 2375WAT     H1 7367   3.654   0.761   4.213
 2375WAT     H2 7368   3.762   0.662   4.285
 2376WAT      O 7369   2.201   1.231   8.564
 2376WAT     H1 7370   2.127   1.243   8.630
 2376WAT     H2 7371   2.280   1.286   8.592
 2377WAT      O 7372   6.706   2.144   8.495
 2377WAT     H1 7373   6.649   2.224   8.514
 2377WAT     H2 7374   6.803   2.170   8.502
 2378WAT      O 7375   2.012   7.979   3.284
 2378WAT     H1 7376   2.034   8.042   3.210
 2378WAT     H2 7377   1.973   8.030   3.361
 2379WAT      O 7378   9.332   8.425   3.743
 2379WAT     H1 7379   9.365   8.423   3.648
 2379WAT     H2 7380   9.390   8.365   3.799
 2380WAT      O 7381   9.814   4.944   3.852
 2380WAT     H1 7382   9.910   4.969   3.847
 2380WAT     H2 7383   9.758   5.027   3.846
 2381WAT      O 7384   2.588   5.696   1.042
 2381WAT     H1 7385   2.514   5.703   1.108
 2381WAT     H2 7386   2.674   5.675   1.089
 2382WAT      O 7387   8.971   7.645   1.437
 2382WAT     H1 7388   8.959   7.614   1.343
 2382WAT     H2 7389   8.983   7.566   1.497
 2383WAT      O 7390   5.237   5.442   7.092
 2383WAT     H1 7391   5.330   5.471   7.116
 2383WAT     H2 7392   5.229   5.343   7.103
 2384WAT      O 7393   2.968   3.527   1.612
 2384WAT     H1 7394   3.035   3.515   1.538
 2384WAT     H2 7395   3.001   3.596   1.676
 2385WAT      O 7396   6.114   5.415   3.784
 2385WAT     H1 7397   6.200   5.374   3.752
 2385WAT     H2 7398   6.072   5.466   3.709
 2386WAT      O 7399   2.501   3.630   4.334
 2386WAT     H1 7400   2.540   3.676   4.254
 2386WAT     H2 7401   2.517   3.686   4.415
 2387WAT      O 7402   3.397   9.459   8.743
 2387WAT     H1 7403   3.494   9.447   8.724
 2387WAT     H2 7404   3.349   9.373   8.727
 2388WAT      O 7405   9.716   3.108   1.113
 2388WAT     H1 7406   9.758   3.018   1.131
 2388WAT     H2 7407   9.776   3.180   1.148
 2389WAT      O 7408   5.280   4.209   3.668
 2389WAT     H1 7409   5.184   4.219   3.643
 2389WAT     H2 7410   5.338   4.244   3.594
 2390WAT      O 7411   2.869   6.901   6.892
 2390WAT     H1 7412   2.850   6.975   6.957
 2390WAT     H2 7413   2.860   6.813   6.938
 2391WAT      O 7414   4.981   3.067   9.552
 2391WAT     H1 7415   4.970   3.152   9.602
 2391WAT     H2 7416   5.047   3.009   9.599
 2392WAT      O 7417   0.213   3.486   9.712
 2392WAT     H1 7418   0.171   3.573   9.684
 2392WAT     H2 7419   0.273   3.502   9.790
 2393WAT      O 7420   0.256   6.319   2.344
 2393WAT     H1 7421   0.219   6.305   2.436
 2393WAT     H2 7422   0.201   6.268   2.279
 2394WAT      O 7423   2.747   8.967   2.121
 2394WAT     H1 7424   2.815   9.040   2.131
 2394WAT     H2 7425   2.775   8.888   2.175
 2395WAT      O 7426   0.394   9.647   1.980
 2395WAT     H1 7427   0.439   9.592   2.051
 2395WAT     H2 7428   0.455   9.656   1.902
 2396WAT      O 7429   2.411   1.790   6.064
 2396WAT     H1 7430   2.421   1.773   5.966
 2396WAT     H2 7431   2.331   1.847   6.080
 2397WAT      O 7432   0.416   0.212   9.290
 2397WAT     H1 7433   0.325   0.240   9.319
 2397WAT     H2 7434   0.460   0.287   9.240
 2398WAT      O 7435   3.607   8.441   7.816
 2398WAT     H1 7436   3.665   8.457   7.895
 2398WAT     H2 7437   3.521   8.400   7.846
 2399WAT      O 7438   5.623   3.460   0.610
 2399WAT     H1 7439   5.657   3.397   0.680
 2399WAT     H2 7440   5.575   3.409   0.539
 2400WAT      O 7441   8.077   9.656   8.000
 2400WAT     H1 7442   8.004   9.674   7.934
 2400WAT     H2 7443   8.109   9.562   7.989
 2401WAT      O 7444   9.801   8.492   3.859
 2401WAT     H1 7445   9.813   8.430   3.937
 2401WAT     H2 7446   9.882   8.550   3.851
 2402WAT      O 7447   9.053   8.261   1.801
 2402WAT     H1 7448   8.974   8.318   1.823
 2402WAT     H2 7449   9.125   8.276   1.869
 2403WAT      O 7450   7.329   0.059   5.825
 2403WAT     H1 7451   7.318   0.032   5.921
 2403WAT     H2 7452   7.268   0.004   5.768
 2404WAT      O 7453   0.789   8.218   4.871
 2404WAT     H1 7454   0.880   8.258   4.881
 2404WAT     H2 7455   0.797   8.118   4.871
 2405WAT      O 7456   8.072   7.004   4.388
 2405WAT     H1 7457   8.132   6.936   4.345
 2405WAT     H2 7458   7.977   6.973   4.382
 2406WAT      O 7459   9.866   6.227   9.601
 2406WAT     H1 7460   9.941   6.229   9.535
 2406WAT     H2 7461   9.803   6.153   9.578
 2407WAT      O 7462   6.040   9.077   8.961
 2407WAT     H1 7463   5.995   9.053   9.047
 2407WAT     H2 7464   6.062   9.175   8.962
 2408WAT      O 7465   0.836   2.497   4.082
 2408WAT     H1 7466   0.907   2.559   4.115
 2408WAT     H2 7467   0.753   2.508   4.138
 2409WAT      O 7468   6.121   3.940   7.472
 2409WAT     H1 7469   6.029   3.912   7.497
 2409WAT     H2 7470   6.187   3.902   7.537
 2410WAT      O 7471   2.491   5.093   0.616
 2410WAT     H1 7472   2.455   5.062   0.528
 2410WAT     H2 7473   2.417   5.129   0.672
 2411WAT      O 7474   3.457   8.732   6.378
 2411WAT     H1 7475   3.520   8.675   6.325
 2411WAT     H2 7476   3.374   8.748   6.324
 2412WAT      O 7477   6.467   2.597   3.495
 2412WAT     H1 7478   6.454   2.545   3.580
 2412WAT     H2 7479   6.554   2.647   3.500
 2413WAT      O 7480   0.581   7.299   1.824
 2413WAT     H1 7481   0.518   7.333   1.754
 2413WAT     H2 7482   0.631   7.221   1.788
 2414WAT      O 7483   3.862   0.098   5.874
 2414WAT     H1 7484   3.828   0.182   5.917
 2414WAT     H2 7485   3.899   0.120   5.783
 2415WAT      O 7486   8.363   7.910   9.079
 2415WAT     H1 7487   8.452   7.951   9.063
 2415WAT     H2 7488   8.348   7.899   9.177
 2416WAT      O 7489   4.444   4.860   2.224
 2416WAT     H1 7490   4.541   4.886   2.230
 2416WAT     H2 7491   4.387   4.942   2.236
 2417WAT      O 7492   6.085   9.723   9.496
 2417WAT     H1 7493   5.989   9.724   9.467
 2417WAT     H2 7494   6.142   9.764   9.425
 2418WAT      O 7495   7.276   5.419   7.503
 2418WAT     H1 7496   7.360   5.433   7.451
 2418WAT     H2 7497   7.206   5.483   7.471
 2419WAT      O 7498   4.758   7.168   8.100
 2419WAT     H1 7499   4.721   7.159   8.008
 2419WAT     H2 7500   4.683   7.176   8.166
 2420WAT      O 7501   9.715   8.064   1.115
 2420WAT     H1 7502   9.792   8.090   1.173
 2420WAT     H2 7503   9.639   8.127   1.130
 2421WAT      O 7504   4.589   8.201   9.780
 2421WAT     H1 7505   4.523   8.136   9.819
 2421WAT     H2 7506   4.669   8.208   9.840
 2422WAT      O 7507   8.859   9.653   3.259
 2422WAT     H1 7508   8.862   9.641   3.359
 2422WAT     H2 7509   8.839   9.565   3.216
 2423WAT      O 7510   2.679   1.881   0.940
 2423WAT     H1 7511   2.732   1.845   1.017
 2423WAT     H2 7512   2.597   1.826   0.927
 2424WAT      O 7513   6.163   7.131   1.684
 2424WAT     H1 7514   6.223   7.073   1.629
 2424WAT     H2 7515   6.196   7.132   1.778
 2425WAT      O 7516   3.721   9.793   7.027
 2425WAT     H1 7517   3.738   9.740   7.110
 2425WAT     H2 7518   3.753   9.742   6.947
 2426WAT      O 7519   3.020   7.224   1.356
 2426WAT     H1 7520   2.986   7.238   1.263
 2426WAT     H2 7521   2.946   7.187   1.412
 2427WAT      O 7522   7.376   1.024   4.460
 2427WAT     H1 7523   7.369   1.030   4.360
 2427WAT     H2 7524   7.438   1.095   4.493
 2428WAT      O 7525   7.491   0.433   0.919
 2428WAT     H1 7526   7.513   0.348   0.871
 2428WAT     H2 7527   7.562   0.501   0.901
 2429WAT      O 7528   6.316   5.911   9.310
 2429WAT     H1 7529   6.266   5.893   9.225
 2429WAT     H2 7530   6.276   5.990   9.356
 2430WAT      O 7531   2.240   3.034   8.529
 2430WAT     H1 7532   2.229   2.955   8.589
 2430WAT     H2 7533   2.297   3.103   8.574
 2431WAT      O 7534   9.487   0.447   2.221
 2431WAT     H1 7535   9.452   0.459   2.128
 2431WAT     H2 7536   9.445   0.366   2.262
 2432WAT      O 7537   9.001   6.999   8.605
 2432WAT     H1 7538   8.987   7.018   8.508
 2432WAT     H2 7539   9.062   7.068   8.644
 2433WAT      O 7540   7.206   5.731   7.514
 2433WAT     H1 7541   7.231   5.827   7.522
 2433WAT     H2 7542   7.262   5.688   7.443
 2434WAT      O 7543   2.961   9.646   2.885
 2434WAT     H1 7544   2.995   9.560   2.923
 2434WAT     H2 7545   3.003   9.722   2.934
 2435WAT      O 7546   0.384   3.684   2.844
 2435WAT     H1 7547   0.342   3.773   2.827
 2435WAT     H2 7548   0.482   3.689   2.824
 2436WAT      O 7549   8.237   7.004   9.797
 2436WAT     H1 7550   8.287   7.045   9.873
 2436WAT     H2 7551   8.145   6.979   9.826
 2437WAT      O 7552   2.870   2.864   2.211
 2437WAT     H1 7553   2.881   2.765   2.208
 2437WAT     H2 7554   2.826   2.890   2.297
 2438WAT      O 7555   8.613   8.844   3.018
 2438WAT     H1 7556   8.548   8.920   3.026
 2438WAT     H2 7557   8.565   8.758   3.035
 2439WAT      O 7558   1.829   7.022   2.986
 2439WAT     H1 7559   1.899   7.044   3.054
 2439WAT     H2 7560   1.759   7.094   2.986
 2440WAT      O 7561   0.843   5.703   5.459
 2440WAT     H1 7562   0.859   5.801   5.470
 2440WAT     H2 7563   0.927   5.653   5.477
 2441WAT      O 7564   6.109   3.744   3.656
 2441WAT     H1 7565   6.017   3.727   3.620
 2441WAT     H2 7566   6.141   3.833   3.625
 2442WAT      O 7567   7.542   0.696   1.162
 2442WAT     H1 7568   7.585   0.766   1.219
 2442WAT     H2 7569   7.593   0.611   1.169
 2443WAT      O 7570   6.311   0.664   4.034
 2443WAT     H1 7571   6.323   0.567   4.012
 2443WAT     H2 7572   6.289   0.714   3.950
 2444WAT      O 7573   7.044   6.293   1.812
 2444WAT     H1 7574   6.992   6.355   1.871
 2444WAT     H2 7575   7.125   6.340   1.777
 2445WAT      O 7576   5.040   3.412   4.058
 2445WAT     H1 7577   5.088   3.486   4.104
 2445WAT     H2 7578   5.056   3.326   4.107
 2446WAT      O 7579   4.066   7.165   9.627
 2446WAT     H1 7580   3.993   7.217   9.671
 2446WAT     H2 7581   4.076   7.076   9.673
 2447WAT      O 7582   5.694   3.157   8.309
 2447WAT     H1 7583   5.741   3.121   8.390
 2447WAT     H2 7584   5.596   3.160   8.326
 2448WAT      O 7585   1.721   6.587   9.426
 2448WAT     H1 7586   1.812   6.564   9.459
 2448WAT     H2 7587   1.719   6.581   9.326
 2449WAT      O 7588   5.696   9.762   8.846
 2449WAT     H1 7589   5.659   9.673   8.822
 2449WAT     H2 7590   5.640   9.834   8.805
 2450WAT      O 7591   0.469   7.384   2.099
 2450WAT     H1 7592   0.528   7.358   2.023
 2450WAT     H2 7593   0.381   7.337   2.090
 2451WAT      O 7594   8.830   9.567   1.931
 2451WAT     H1 7595   8.848   9.539   1.837
 2451WAT     H2 7596   8.897   9.635   1.959
 2452WAT      O 7597   9.882   4.175   2.724
 2452WAT     H1 7598   9.825   4.252   2.695
 2452WAT     H2 7599   9.942   4.147   2.649
 2453WAT      O 7600   2.373   2.656   9.817
 2453WAT     H1 7601   2.318   2.574   9.836
 2453WAT     H2 7602   2.320   2.737   9.841
 2454WAT      O 7603   7.578   1.352   6.570
 2454WAT     H1 7604   7.519   1.287   6.522
 2454WAT     H2 7605   7.602   1.427   6.508
 2455WAT      O 7606   8.134   5.470   3.786
 2455WAT     H1 7607   8.132   5.443   3.882
 2455WAT     H2 7608   8.142   5.389   3.728
 2456WAT      O 7609   6.551   7.279   1.674
 2456WAT     H1 7610   6.538   7.362   1.619
 2456WAT     H2 7611   6.500   7.204   1.632
 2457WAT      O 7612   4.992   5.110   6.653
 2457WAT     H1 7613   4.956   5.168   6.579
 2457WAT     H2 7614   4.925   5.105   6.727
 2458WAT      O 7615   3.941   5.411   8.881
 2458WAT     H1 7616   4.041   5.421   8.888
 2458WAT     H2 7617   3.916   5.316   8.901
 2459WAT      O 7618   4.138   0.743   1.925
 2459WAT     H1 7619   4.174   0.833   1.901
 2459WAT     H2 7620   4.044   0.752   1.958
 2460WAT      O 7621   4.898   4.162   7.581
 2460WAT     H1 7622   4.800   4.173   7.563
 2460WAT     H2 7623   4.935   4.247   7.617
 2461WAT      O 7624   8.464   0.516   0.107
 2461WAT     H1 7625   8.560   0.524   0.133
 2461WAT     H2 7626   8.456   0.517   0.007
 2462WAT      O 7627   6.767   3.931   7.633
 2462WAT     H1 7628   6.766   4.009   7.570
 2462WAT     H2 7629   6.840   3.943   7.700
 2463WAT      O 7630   9.351   4.219   7.392
 2463WAT     H1 7631   9.359   4.162   7.310
 2463WAT     H2 7632   9.256   4.246   7.406
 2464WAT      O 7633   8.417   1.575   5.960
 2464WAT     H1 7634   8.478   1.561   5.882
 2464WAT     H2 7635   8.330   1.528   5.944
 2465WAT      O 7636   2.450   1.030   5.851
 2465WAT     H1 7637   2.402   0.942   5.846
 2465WAT     H2 7638   2.491   1.050   5.762
 2466WAT      O 7639   0.442   0.583   7.735
 2466WAT     H1 7640   0.521   0.580   7.674
 2466WAT     H2 7641   0.395   0.671   7.724
 2467WAT      O 7642   8.211   4.894   1.169
 2467WAT     H1 7643   8.166   4.935   1.089
 2467WAT     H2 7644   8.310   4.896   1.155
 2468WAT      O 7645   2.578   9.440   2.761
 2468WAT     H1 7646   2.637   9.444   2.680
 2468WAT     H2 7647   2.602   9.360   2.816
 2469WAT      O 7648   3.996   1.897   4.995
 2469WAT     H1 7649   3.926   1.835   5.032
 2469WAT     H2 7650   3.986   1.903   4.896
 2470WAT      O 7651   3.754   1.930   1.732
 2470WAT     H1 7652   3.785   1.880   1.651
 2470WAT     H2 7653   3.768   2.028   1.717
 2471WAT      O 7654   8.429   5.191   7.684
 2471WAT     H1 7655   8.510   5.158   7.731
 2471WAT     H2 7656   8.389   5.267   7.735
 2472WAT      O 7657   2.280   0.508   3.041
 2472WAT     H1 7658   2.256   0.481   2.948
 2472WAT     H2 7659   2.351   0.579   3.037
 2473WAT      O 7660   0.538   8.425   1.937
 2473WAT     H1 7661   0.573   8.468   2.020
 2473WAT     H2 7662   0.530   8.493   1.865
 2474WAT      O 7663   2.929   4.975   2.276
 2474WAT     H1 7664   2.895   4.905   2.340
 2474WAT     H2 7665   2.924   5.065   2.320
 2475WAT      O 7666   1.723   7.268   3.649
 2475WAT     H1 7667   1.731   7.169   3.636
 2475WAT     H2 7668   1.814   7.309   3.651
 2476WAT      O 7669   4.121   1.050   7.151
 2476WAT     H1 7670   4.023   1.066   7.153
 2476WAT     H2 7671   4.139   0.959   7.112
 2477WAT      O 7672   9.655   0.758   9.032
 2477WAT     H1 7673   9.739   0.797   8.996
 2477WAT     H2 7674   9.634   0.672   8.986
 2478WAT      O 7675   2.495   8.425   0.476
 2478WAT     H1 7676   2.517   8.465   0.565
 2478WAT     H2 7677   2.397   8.403   0.472
 2479WAT      O 7678   4.668   6.063   8.443
 2479WAT     H1 7679   4.704   5.969   8.450
 2479WAT     H2 7680   4.710   6.119   8.514
 2480WAT      O 7681   4.076   5.514   1.613
 2480WAT     H1 7682   4.104   5.529   1.519
 2480WAT     H2 7683   3.995   5.455   1.615
 2481WAT      O 7684   8.513   4.691   0.659
 2481WAT     H1 7685   8.587   4.634   0.694
 2481WAT     H2 7686   8.441   4.698   0.729
 2482WAT      O 7687   0.995   4.097   3.651
 2482WAT     H1 7688   0.938   4.016   3.658
 2482WAT     H2 7689   0.950   4.166   3.595
 2483WAT      O 7690   7.702   1.663   1.684
 2483WAT     H1 7691   7.791   1.695   1.651
 2483WAT     H2 7692   7.641   1.648   1.606
 2484WAT      O 7693   2.239   3.768   6.382
 2484WAT     H1 7694   2.230   3.754   6.284
 2484WAT     H2 7695   2.307   3.704   6.418
 2485WAT      O 7696   7.694   4.132   2.560
 2485WAT     H1 7697   7.785   4.136   2.518
 2485WAT     H2 7698   7.627   4.171   2.497
 2486WAT      O 7699   2.603   4.703   0.600
 2486WAT     H1 7700   2.543   4.779   0.575
 2486WAT     H2 7701   2.627   4.710   0.697
 2487WAT      O 7702   0.546   2.678   3.989
 2487WAT     H1 7703   0.537   2.624   4.073
 2487WAT     H2 7704   0.525   2.774   4.009
 2488WAT      O 7705   2.020   0.510   2.295
 2488WAT     H1 7706   1.978   0.540   2.209
 2488WAT     H2 7707   1.955   0.522   2.370
 2489WAT      O 7708   8.886   5.287   4.394
 2489WAT     H1 7709   8.933   5.359   4.344
 2489WAT     H2 7710   8.843   5.324   4.476
 2490WAT      O 7711   3.027   5.161   5.249
 2490WAT     H1 7712   3.002   5.251   5.286
 2490WAT     H2 7713   3.108   5.170   5.192
 2491WAT      O 7714   1.785   6.750   4.714
 2491WAT     H1 7715   1.801   6.693   4.795
 2491WAT     H2 7716   1.798   6.695   4.631
 2492WAT      O 7717   4.144   2.123   3.822
 2492WAT     H1 7718   4.076   2.056   3.852
 2492WAT     H2 7719   4.201   2.149   3.900
 2493WAT      O 7720   1.358   5.831   9.220
 2493WAT     H1 7721   1.353   5.930   9.211
 2493WAT     H2 7722   1.270   5.796   9.249
 2494WAT      O 7723   4.694   2.334   1.848
 2494WAT     H1 7724   4.643   2.252   1.822
 2494WAT     H2 7725   4.633   2.397   1.896
 2495WAT      O 7726   6.924   2.123   6.477
 2495WAT     H1 7727   6.968   2.184   6.412
 2495WAT     H2 7728   6.826   2.139   6.477
 2496WAT      O 7729   8.458   8.273   2.313
 2496WAT     H1 7730   8.504   8.247   2.398
 2496WAT     H2 7731   8.369   8.314   2.335
 2497WAT      O 7732   8.378   4.204   6.962
 2497WAT     H1 7733   8.423   4.265   6.897
 2497WAT     H2 7734   8.280   4.224   6.964
 2498WAT      O 7735   7.039   5.336   9.005
 2498WAT     H1 7736   6.956   5.330   9.061
 2498WAT     H2 7737   7.090   5.419   9.029
 2499WAT      O 7738   3.234   8.962   8.371
 2499WAT     H1 7739   3.151   8.925   8.329
 2499WAT     H2 7740   3.245   8.923   8.463
 2500WAT      O 7741   9.014   6.004   7.538
 2500WAT     H1 7742   9.075   6.040   7.466
 2500WAT     H2 7743   8.948   5.942   7.497
 2501WAT      O 7744   4.911   6.334   2.236
 2501WAT     H1 7745   4.818   6.310   2.209
 2501WAT     H2 7746   4.918   6.335   2.336
 2502WAT      O 7747   1.644   1.755   9.308
 2502WAT     H1 7748   1.546   1.756   9.330
 2502WAT     H2 7749   1.695   1.801   9.381
 2503WAT      O 7750   1.943   1.952   0.404
 2503WAT     H1 7751   1.915   1.861   0.373
 2503WAT     H2 7752   1.877   2.020   0.372
 2504WAT      O 7753   4.679   2.232   3.185
 2504WAT     H1 7754   4.778   2.228   3.199
 2504WAT     H2 7755   4.636   2.152   3.227
 2505WAT      O 7756   5.765   7.597   9.607
 2505WAT     H1 7757   5.849   7.648   9.622
 2505WAT     H2 7758   5.742   7.545   9.690
 2506WAT      O 7759   2.145   5.055   8.792
 2506WAT     H1 7760   2.149   5.010   8.881
 2506WAT     H2 7761   2.086   5.136   8.798
 2507WAT      O 7762   6.889   5.837   6.404
 2507WAT     H1 7763   6.866   5.741   6.383
 2507WAT     H2 7764   6.894   5.889   6.319
 2508WAT      O 7765   1.885   7.316   0.762
 2508WAT     H1 7766   1.866   7.414   0.764
 2508WAT     H2 7767   1.800   7.265   0.775
 2509WAT      O 7768   4.698   2.515   0.836
 2509WAT     H1 7769   4.741   2.510   0.746
 2509WAT     H2 7770   4.746   2.454   0.899
 2510WAT      O 7771   9.211   8.898   5.294
 2510WAT     H1 7772   9.307   8.889   5.319
 2510WAT     H2 7773   9.158   8.825   5.337
 2511WAT      O 7774   2.281   0.429   3.964
 2511WAT     H1 7775   2.261   0.361   4.035
 2511WAT     H2 7776   2.196   0.471   3.934
 2512WAT      O 7777   6.514   8.857   9.537
 2512WAT     H1 7778   6.510   8.852   9.637
 2512WAT     H2 7779   6.553   8.772   9.501
 2513WAT      O 7780   2.772   8.053   7.503
 2513WAT     H1 7781   2.673   8.053   7.522
 2513WAT     H2 7782   2.815   7.979   7.554
 2514WAT      O 7783   1.647   6.158   3.946
 2514WAT     H1 7784   1.727   6.163   3.886
 2514WAT     H2 7785   1.652   6.231   4.014
 2515WAT      O 7786   7.659   9.110   4.141
 2515WAT     H1 7787   7.621   9.029   4.186
 2515WAT     H2 7788   7.739   9.142   4.192
 2516WAT      O 7789   9.352   4.986   2.091
 2516WAT     H1 7790   9.433   4.959   2.143
 2516WAT     H2 7791   9.344   4.928   2.010
 2517WAT      O 7792   0.094   6.861   6.291
 2517WAT     H1 7793   0.048   6.950   6.284
 2517WAT     H2 7794   0.181   6.873   6.340
 2518WAT      O 7795   8.629   5.867   9.616
 2518WAT     H1 7796   8.664   5.902   9.703
 2518WAT     H2 7797   8.538   5.828   9.629
 2519WAT      O 7798   5.021   9.648   5.590
 2519WAT     H1 7799   5.068   9.680   5.672
 2519WAT     H2 7800   5.063   9.690   5.509
 2520WAT      O 7801   4.039   9.067   8.743
 2520WAT     H1 7802   3.963   9.002   8.739
 2520WAT     H2 7803   4.102   9.049   8.668
 2521WAT      O 7804   3.613   8.243   1.052
 2521WAT     H1 7805   3.617   8.276   0.958
 2521WAT     H2 7806   3.531   8.276   1.097
 2522WAT      O 7807   1.463   9.391   3.327
 2522WAT     H1 7808   1.391   9.456   3.301
 2522WAT     H2 7809   1.534   9.439   3.378
 2523WAT      O 7810   6.398   9.297   0.196
 2523WAT     H1 7811   6.485   9.278   0.241
 2523WAT     H2 7812   6.405   9.278   0.098
 2524WAT      O 7813   4.392   4.618   2.274
 2524WAT     H1 7814   4.420   4.710   2.249
 2524WAT     H2 7815   4.473   4.559   2.281
 2525WAT      O 7816   4.759   4.007   5.656
 2525WAT     H1 7817   4.796   4.085   5.604
 2525WAT     H2 7818   4.760   4.029   5.754
 2526WAT      O 7819   0.319   3.595   1.815
 2526WAT     H1 7820   0.261   3.671   1.787
 2526WAT     H2 7821   0.293   3.513   1.763
 2527WAT      O 7822   7.825   8.268   6.493
 2527WAT     H1 7823   7.810   8.254   6.591
 2527WAT     H2 7824   7.920   8.294   6.478
 2528WAT      O 7825   8.899   0.535   1.017
 2528WAT     H1 7826   8.931   0.442   0.997
 2528WAT     H2 7827   8.832   0.532   1.091
 2529WAT      O 7828   1.059   1.225   6.633
 2529WAT     H1 7829   1.050   1.196   6.537
 2529WAT     H2 7830   0.970   1.215   6.679
 2530WAT      O 7831   2.030   9.255   9.120
 2530WAT     H1 7832   2.053   9.262   9.218
 2530WAT     H2 7833   1.950   9.312   9.101
 2531WAT      O 7834   3.511   4.468   5.969
 2531WAT     H1 7835   3.537   4.564   5.972
 2531WAT     H2 7836   3.468   4.442   6.055
 2532WAT      O 7837   1.322   1.017   2.916
 2532WAT     H1 7838   1.311   1.035   3.014
 2532WAT     H2 7839   1.257   0.945   2.889
 2533WAT      O 7840   0.502   6.103   2.729
 2533WAT     H1 7841   0.578   6.148   2.681
 2533WAT     H2 7842   0.429   6.084   2.664
 2534WAT      O 7843   7.458   7.716   3.125
 2534WAT     H1 7844   7.475   7.760   3.037
 2534WAT     H2 7845   7.457   7.786   3.197
 2535WAT      O 7846   9.148   2.563   5.238
 2535WAT     H1 7847   9.069   2.536   5.294
 2535WAT     H2 7848   9.128   2.649   5.191
 2536WAT      O 7849   2.011   1.478   7.083
 2536WAT     H1 7850   2.025   1.391   7.131
 2536WAT     H2 7851   1.920   1.513   7.105
 2537WAT      O 7852   1.508   1.240   4.250
 2537WAT     H1 7853   1.471   1.159   4.205
 2537WAT     H2 7854   1.608   1.238   4.247
 2538WAT      O 7855   0.497   9.714   2.728
 2538WAT     H1 7856   0.490   9.786   2.659
 2538WAT     H2 7857   0.425   9.726   2.797
 2539WAT      O 7858   1.262   4.041   6.861
 2539WAT     H1 7859   1.306   3.966   6.910
 2539WAT     H2 7860   1.313   4.126   6.876
 2540WAT      O 7861   2.414   5.964   7.063
 2540WAT     H1 7862   2.482   6.029   7.029
 2540WAT     H2 7863   2.454   5.911   7.138
 2541WAT      O 7864   9.383   5.900   8.349
 2541WAT     H1 7865   9.317   5.825   8.344
 2541WAT     H2 7866   9.462   5.872   8.404
 2542WAT      O 7867   7.412   6.987   5.661
 2542WAT     H1 7868   7.495   6.970   5.713
 2542WAT     H2 7869   7.415   7.080   5.623
 2543WAT      O 7870   6.460   4.162   2.801
 2543WAT     H1 7871   6.413   4.242   2.838
 2543WAT     H2 7872   6.397   4.109   2.744
 2544WAT      O 7873   3.938   7.830   7.091
 2544WAT     H1 7874   3.928   7.819   7.190
 2544WAT     H2 7875   4.017   7.887   7.071
 2545WAT      O 7876   5.639   1.031   4.183
 2545WAT     H1 7877   5.635   1.009   4.281
 2545WAT     H2 7878   5.730   1.066   4.161
 2546WAT      O 7879   4.315   4.441   1.712
 2546WAT     H1 7880   4.269   4.514   1.764
 2546WAT     H2 7881   4.388   4.403   1.768
 2547WAT      O 7882   9.580   2.309   8.242
 2547WAT     H1 7883   9.486   2.337   8.260
 2547WAT     H2 7884   9.620   2.272   8.326
 2548WAT      O 7885   4.567   2.067   2.512
 2548WAT     H1 7886   4.649   2.030   2.468
 2548WAT     H2 7887   4.517   1.994   2.557
 2549WAT      O 7888   6.567   5.029   5.676
 2549WAT     H1 7889   6.543   5.111   5.728
 2549WAT     H2 7890   6.602   5.055   5.586
 2550WAT      O 7891   0.624   4.410   7.289
 2550WAT     H1 7892   0.601   4.465   7.370
 2550WAT     H2 7893   0.715   4.371   7.300
 2551WAT      O 7894   8.801   6.211   8.310
 2551WAT     H1 7895   8.756   6.269   8.243
 2551WAT     H2 7896   8.879   6.164   8.268
 2552WAT      O 7897   3.745   6.662   2.325
 2552WAT     H1 7898   3.675   6.652   2.395
 2552WAT     H2 7899   3.701   6.684   2.237
 2553WAT      O 7900   1.440   6.524   2.867
 2553WAT     H1 7901   1.484   6.600   2.913
 2553WAT     H2 7902   1.442   6.540   2.768
 2554WAT      O 7903   0.510   9.250   7.005
 2554WAT     H1 7904   0.531   9.340   7.045
 2554WAT     H2 7905   0.410   9.240   6.996
 2555WAT      O 7906   9.206   9.294   4.085
 2555WAT     H1 7907   9.155   9.238   4.150
 2555WAT     H2 7908   9.299   9.259   4.076
 2556WAT      O 7909   9.092   5.771   7.053
 2556WAT     H1 7910   9.064   5.861   7.020
 2556WAT     H2 7911   9.100   5.708   6.976
 2557WAT      O 7912   9.328   1.461   8.712
 2557WAT     H1 7913   9.308   1.425   8.803
 2557WAT     H2 7914   9.250   1.442   8.651
 2558WAT      O 7915   6.596   1.621   6.923
 2558WAT     H1 7916   6.661   1.670   6.981
 2558WAT     H2 7917   6.522   1.583   6.980
 2559WAT      O 7918   8.078   1.265   1.669
 2559WAT     H1 7919   8.157   1.223   1.626
 2559WAT     H2 7920   8.095   1.277   1.767
 2560WAT      O 7921   5.474   4.490   7.143
 2560WAT     H1 7922   5.435   4.430   7.213
 2560WAT     H2 7923   5.489   4.581   7.182
 2561WAT      O 7924   6.873   4.582   7.826
 2561WAT     H1 7925   6.827   4.497   7.800
 2561WAT     H2 7926   6.972   4.568   7.823
 2562WAT      O 7927   9.727   3.415   3.154
 2562WAT     H1 7928   9.702   3.445   3.246
 2562WAT     H2 7929   9.774   3.327   3.159
 2563WAT      O 7930   6.967   2.416   7.110
 2563WAT     H1 7931   6.996   2.511   7.095
 2563WAT     H2 7932   6.914   2.411   7.195
 2564WAT      O 7933   0.163   9.127   2.160
 2564WAT     H1 7934   0.226   9.183   2.105
 2564WAT     H2 7935   0.209   9.099   2.244
 2565WAT      O 7936   6.064   2.995   6.122
 2565WAT     H1 7937   6.005   3.049   6.063
 2565WAT     H2 7938   6.008   2.934   6.178
 2566WAT      O 7939   9.865   5.387   4.223
 2566WAT     H1 7940   9.915   5.428   4.146
 2566WAT     H2 7941   9.926   5.328   4.275
 2567WAT      O 7942   0.156   9.182   0.330
 2567WAT     H1 7943   0.248   9.150   0.305
 2567WAT     H2 7944   0.156   9.209   0.426
 2568WAT      O 7945   1.071   6.125   0.650
 2568WAT     H1 7946   0.977   6.158   0.644
 2568WAT     H2 7947   1.130   6.182   0.593
 2569WAT      O 7948   8.428   6.120   3.419
 2569WAT     H1 7949   8.456   6.034   3.461
 2569WAT     H2 7950   8.329   6.129   3.425
 2570WAT      O 7951   2.029   3.119   2.551
 2570WAT     H1 7952   1.980   3.175   2.483
 2570WAT     H2 7953   2.030   3.167   2.639
 2571WAT      O 7954   2.894   8.821   3.610
 2571WAT     H1 7955   2.922   8.726   3.596
 2571WAT     H2 7956   2.796   8.830   3.590
 2572WAT      O 7957   5.889   8.461   8.446
 2572WAT     H1 7958   5.799   8.426   8.419
 2572WAT     H2 7959   5.943   8.387   8.486
 2573WAT      O 7960   1.051   7.937   7.710
 2573WAT     H1 7961   1.092   8.026   7.734
 2573WAT     H2 7962   1.093   7.866   7.766
 2574WAT      O 7963   0.301   8.360   1.018
 2574WAT     H1 7964   0.272   8.388   1.110
 2574WAT     H2 7965   0.245   8.407   0.950
 2575WAT      O 7966   1.569   4.645   4.648
 2575WAT     H1 7967   1.615   4.687   4.570
 2575WAT     H2 7968   1.633   4.586   4.698
 2576WAT      O 7969   0.121   7.648   0.206
 2576WAT     H1 7970   0.101   7.746   0.198
 2576WAT     H2 7971   0.195   7.635   0.271
 2577WAT      O 7972   2.647   2.173   5.263
 2577WAT     H1 7973   2.690   2.142   5.348
 2577WAT     H2 7974   2.586   2.101   5.229
 2578WAT      O 7975   9.265   8.765   8.443
 2578WAT     H1 7976   9.335   8.694   8.433
 2578WAT     H2 7977   9.224   8.784   8.353
 2579WAT      O 7978   5.924   5.949   4.519
 2579WAT     H1 7979   5.975   5.866   4.540
 2579WAT     H2 7980   5.858   5.967   4.592
 2580WAT      O 7981   3.807   7.251   8.988
 2580WAT     H1 7982   3.792   7.175   8.924
 2580WAT     H2 7983   3.849   7.327   8.939
 2581WAT      O 7984   7.507   6.035   8.404
 2581WAT     H1 7985   7.560   6.010   8.323
 2581WAT     H2 7986   7.554   6.109   8.453
 2582WAT      O 7987   8.336   1.166   1.558
 2582WAT     H1 7988   8.359   1.069   1.554
 2582WAT     H2 7989   8.386   1.215   1.486
 2583WAT      O 7990   9.096   7.311   7.475
 2583WAT     H1 7991   9.042   7.229   7.456
 2583WAT     H2 7992   9.035   7.389   7.490
 2584WAT      O 7993   1.563   3.089   3.888
 2584WAT     H1 7994   1.614   3.017   3.934
 2584WAT     H2 7995   1.468   3.089   3.919
 2585WAT      O 7996   6.771   7.151   6.375
 2585WAT     H1 7997   6.696   7.189   6.430
 2585WAT     H2 7998   6.756   7.175   6.279
 2586WAT      O 7999   3.178   5.625   7.537
 2586WAT     H1 8000   3.176   5.689   7.613
 2586WAT     H2 8001   3.270   5.623   7.497
 2587WAT      O 8002   6.814   3.652   7.549
 2587WAT     H1 8003   6.879   3.594   7.597
 2587WAT     H2 8004   6.791   3.731   7.606
 2588WAT      O 8005   6.976   2.529   5.809
 2588WAT     H1 8006   6.904   2.596   5.823
 2588WAT     H2 8007   6.950   2.441   5.850
 2589WAT      O 8008   9.138   6.618   8.330
 2589WAT     H1 8009   9.119   6.525   8.299
 2589WAT     H2 8010   9.234   6.625   8.355
 2590WAT      O 8011   9.562   7.759   3.367
 2590WAT     H1 8012   9.600   7.696   3.298
 2590WAT     H2 8013   9.584   7.726   3.458
 2591WAT      O 8014   0.914   4.056   4.625
 2591WAT     H1 8015   0.931   3.993   4.549
 2591WAT     H2 8016   0.819   4.047   4.654
 2592WAT      O 8017   1.449   6.210   0.756
 2592WAT     H1 8018   1.420   6.122   0.793
 2592WAT     H2 8019   1.487   6.266   0.830
 2593WAT      O 8020   2.718   6.690   8.299
 2593WAT     H1 8021   2.638   6.751   8.301
 2593WAT     H2 8022   2.760   6.693   8.208
 2594WAT      O 8023   6.638   8.330   9.222
 2594WAT     H1 8024   6.551   8.331   9.172
 2594WAT     H2 8025   6.714   8.337   9.157
 2595WAT      O 8026   8.605   5.962   5.785
 2595WAT     H1 8027   8.613   6.038   5.850
 2595WAT     H2 8028   8.567   5.996   5.699
 2596WAT      O 8029   0.250   2.476   9.083
 2596WAT     H1 8030   0.244   2.436   9.175
 2596WAT     H2 8031   0.169   2.534   9.068
 2597WAT      O 8032   4.276   8.066   9.125
 2597WAT     H1 8033   4.303   8.159   9.149
 2597WAT     H2 8034   4.239   8.020   9.206
 2598WAT      O 8035   9.470   0.847   3.499
 2598WAT     H1 8036   9.467   0.794   3.414
 2598WAT     H2 8037   9.378   0.879   3.521
 2599WAT      O 8038   8.609   6.948   2.170
 2599WAT     H1 8039   8.607   6.887   2.249
 2599WAT     H2 8040   8.628   7.042   2.199
 2600WAT      O 8041   7.631   8.203   6.335
 2600WAT     H1 8042   7.658   8.126   6.278
 2600WAT     H2 8043   7.698   8.217   6.408
 2601WAT      O 8044   6.833   2.905   2.351
 2601WAT     H1 8045   6.931   2.922   2.357
 2601WAT     H2 8046   6.799   2.872   2.439
 2602WAT      O 8047   7.786   7.051   8.522
 2602WAT     H1 8048   7.755   6.981   8.587
 2602WAT     H2 8049   7.744   7.139   8.544
 2603WAT      O 8050   4.143   7.894   0.706
 2603WAT     H1 8051   4.107   7.815   0.754
 2603WAT     H2 8052   4.230   7.871   0.662
 2604WAT      O 8053   5.432   6.813   2.866
 2604WAT     H1 8054   5.487   6.744   2.912
 2604WAT     H2 8055   5.350   6.833   2.920
 2605WAT      O 8056   4.490   7.013   2.455
 2605WAT     H1 8057   4.515   7.098   2.409
 2605WAT     H2 8058   4.391   7.005   2.460
 2606WAT      O 8059   2.729   4.373   6.805
 2606WAT     H1 8060   2.641   4.401   6.768
 2606WAT     H2 8061   2.788   4.454   6.814
 2607WAT      O 8062   6.481   1.765   8.965
 2607WAT     H1 8063   6.451   1.839   8.906
 2607WAT     H2 8064   6.515   1.802   9.051
 2608WAT      O 8065   4.374   0.028   7.720
 2608WAT     H1 8066   4.414  -0.020   7.797
 2608WAT     H2 8067   4.296   0.083   7.751
 2609WAT      O 8068   2.307   8.586   6.385
 2609WAT     H1 8069   2.232   8.575   6.319
 2609WAT     H2 8070   2.377   8.646   6.347
 2610WAT      O 8071   1.069   9.684   3.413
 2610WAT     H1 8072   1.167   9.699   3.426
 2610WAT     H2 8073   1.030   9.761   3.363
 2611WAT      O 8074   1.778   0.640   9.824
 2611WAT     H1 8075   1.745   0.666   9.915
 2611WAT     H2 8076   1.701   0.621   9.764
 2612WAT      O 8077   1.818   7.601   0.139
 2612WAT     H1 8078   1.912   7.604   0.105
 2612WAT     H2 8079   1.758   7.650   0.076
 2613WAT      O 8080   8.692   6.189   9.164
 2613WAT     H1 8081   8.643   6.243   9.095
 2613WAT     H2 8082   8.774   6.150   9.124
 2614WAT      O 8083   2.274   5.035   5.436
 2614WAT     H1 8084   2.200   5.034   5.369
 2614WAT     H2 8085   2.244   4.990   5.520
 2615WAT      O 8086   4.340   1.927   1.712
 2615WAT     H1 8087   4.382   1.865   1.778
 2615WAT     H2 8088   4.348   1.889   1.620
 2616WAT      O 8089   8.325   5.283   1.980
 2616WAT     H1 8090   8.268   5.258   1.901
 2616WAT     H2 8091   8.394   5.349   1.951
 2617WAT      O 8092   1.491   4.736   6.349
 2617WAT     H1 8093   1.547   4.694   6.277
 2617WAT     H2 8094   1.426   4.800   6.308
 2618WAT      O 8095   3.202   6.332   6.244
 2618WAT     H1 8096   3.113   6.325   6.290
 2618WAT     H2 8097   3.188   6.358   6.148
 2619WAT      O 8098   1.436   4.547   9.852
 2619WAT     H1 8099   1.512   4.608   9.830
 2619WAT     H2 8100   1.372   4.545   9.775
 2620WAT      O 8101   2.138   6.025   7.063
 2620WAT     H1 8102   2.104   5.981   7.146
 2620WAT     H2 8103   2.234   6.002   7.050
 2621WAT      O 8104   1.911   2.946   8.143
 2621WAT     H1 8105   1.916   2.945   8.243
 2621WAT     H2 8106   1.852   3.021   8.114
 2622WAT      O 8107   5.284   0.253   6.208
 2622WAT     H1 8108   5.337   0.183   6.257
 2622WAT     H2 8109   5.209   0.209   6.157
 2623WAT      O 8110   2.863   7.151   5.441
 2623WAT     H1 8111   2.950   7.106   5.420
 2623WAT     H2 8112   2.860   7.173   5.539
 2624WAT      O 8113   8.922   8.743   3.977
 2624WAT     H1 8114   8.944   8.837   4.003
 2624WAT     H2 8115   9.007   8.691   3.963
 2625WAT      O 8116   5.154   4.338   7.494
 2625WAT     H1 8117   5.111   4.413   7.544
 2625WAT     H2 8118   5.180   4.266   7.559
 2626WAT      O 8119   9.646   3.843   8.303
 2626WAT     H1 8120   9.557   3.884   8.283
 2626WAT     H2 8121   9.707   3.857   8.225
 2627WAT      O 8122   6.658   8.786   2.304
 2627WAT     H1 8123   6.657   8.772   2.403
 2627WAT     H2 8124   6.565   8.802   2.272
 2628WAT      O 8125   7.161   7.960   4.428
 2628WAT     H1 8126   7.250   7.937   4.388
 2628WAT     H2 8127   7.170   7.970   4.527
 2629WAT      O 8128   0.027   0.647   5.323
 2629WAT     H1 8129   0.047   0.710   5.398
 2629WAT     H2 8130   0.087   0.567   5.329
 2630WAT      O 8131   8.495   4.976   1.082
 2630WAT     H1 8132   8.504   4.878   1.099
 2630WAT     H2 8133   8.585   5.017   1.075
 2631WAT      O 8134   7.894   4.600   5.420
 2631WAT     H1 8135   7.932   4.653   5.495
 2631WAT     H2 8136   7.967   4.574   5.357
 2632WAT      O 8137   8.359   5.542   8.385
 2632WAT     H1 8138   8.351   5.575   8.479
 2632WAT     H2 8139   8.328   5.612   8.321
 2633WAT      O 8140   3.087   2.717   8.865
 2633WAT     H1 8141   3.184   2.693   8.862
 2633WAT     H2 8142   3.075   2.812   8.837
 2634WAT      O 8143   5.988   8.232   3.077
 2634WAT     H1 8144   5.993   8.260   2.982
 2634WAT     H2 8145   6.057   8.281   3.131
 2635WAT      O 8146   2.610   0.395   6.211
 2635WAT     H1 8147   2.687   0.457   6.193
 2635WAT     H2 8148   2.527   0.433   6.171
 2636WAT      O 8149   7.257   4.231   3.945
 2636WAT     H1 8150   7.320   4.308   3.934
 2636WAT     H2 8151   7.296   4.150   3.903
 2637WAT      O 8152   2.794   8.658   6.103
 2637WAT     H1 8153   2.873   8.669   6.042
 2637WAT     H2 8154   2.800   8.570   6.149
 2638WAT      O 8155   6.652   6.920   8.956
 2638WAT     H1 8156   6.702   7.000   8.922
 2638WAT     H2 8157   6.620   6.865   8.879
 2639WAT      O 8158   3.457   7.379   8.373
 2639WAT     H1 8159   3.456   7.448   8.301
 2639WAT     H2 8160   3.364   7.347   8.391
 2640WAT      O 8161   7.971   9.552   4.008
 2640WAT     H1 8162   7.965   9.458   3.975
 2640WAT     H2 8163   7.934   9.614   3.939
 2641WAT      O 8164   4.052   4.892   7.373
 2641WAT     H1 8165   4.092   4.800   7.370
 2641WAT     H2 8166   4.125   4.960   7.386
 2642WAT      O 8167   9.055   4.324   4.973
 2642WAT     H1 8168   9.017   4.292   5.059
 2642WAT     H2 8169   9.152   4.302   4.969
 2643WAT      O 8170   6.924   7.046   7.495
 2643WAT     H1 8171   6.885   7.033   7.404
 2643WAT     H2 8172   6.876   6.988   7.561
 2644WAT      O 8173   6.774   2.494   7.579
 2644WAT     H1 8174   6.726   2.440   7.648
 2644WAT     H2 8175   6.747   2.590   7.586
 2645WAT      O 8176   7.706   7.221   2.372
 2645WAT     H1 8177   7.721   7.315   2.403
 2645WAT     H2 8178   7.749   7.157   2.436
 2646WAT      O 8179   7.827   4.858   3.551
 2646WAT     H1 8180   7.856   4.830   3.459
 2646WAT     H2 8181   7.763   4.789   3.587
 2647WAT      O 8182   8.548   6.555   4.853
 2647WAT     H1 8183   8.609   6.563   4.932
 2647WAT     H2 8184   8.515   6.461   4.847
 2648WAT      O 8185   5.207   6.752   7.908
 2648WAT     H1 8186   5.263   6.797   7.977
 2648WAT     H2 8187   5.125   6.806   7.889
 2649WAT      O 8188   2.984   6.552   2.003
 2649WAT     H1 8189   2.964   6.456   1.986
 2649WAT     H2 8190   2.967   6.606   1.920
 2650WAT      O 8191   2.564   4.440   2.420
 2650WAT     H1 8192   2.584   4.520   2.364
 2650WAT     H2 8193   2.640   4.376   2.414
 2651WAT      O 8194   4.657   7.333   6.902
 2651WAT     H1 8195   4.635   7.235   6.899
 2651WAT     H2 8196   4.690   7.362   6.812
 2652WAT      O 8197   6.713   9.416   1.212
 2652WAT     H1 8198   6.628   9.426   1.264
 2652WAT     H2 8199   6.736   9.319   1.202
 2653WAT      O 8200   2.160   2.994   2.276
 2653WAT     H1 8201   2.260   3.003   2.273
 2653WAT     H2 8202   2.134   2.944   2.359
 2654WAT      O 8203   9.361   0.783   8.384
 2654WAT     H1 8204   9.274   0.750   8.349
 2654WAT     H2 8205   9.431   0.772   8.313
 2655WAT      O 8206   4.706   7.621   7.718
 2655WAT     H1 8207   4.784   7.607   7.780
 2655WAT     H2 8208   4.696   7.719   7.699
 2656WAT      O 8209   6.626   9.691   2.200
 2656WAT     H1 8210   6.642   9.737   2.112
 2656WAT     H2 8211   6.645   9.755   2.274
 2657WAT      O 8212   8.128   7.658   9.125
 2657WAT     H1 8213   8.185   7.653   9.206
 2657WAT     H2 8214   8.180   7.627   9.045
 2658WAT      O 8215   5.400   4.463   8.074
 2658WAT     H1 8216   5.460   4.389   8.043
 2658WAT     H2 8217   5.454   4.542   8.101
 2659WAT      O 8218   4.566   7.088   5.570
 2659WAT     H1 8219   4.619   7.050   5.646
 2659WAT     H2 8220   4.520   7.171   5.600
 2660WAT      O 8221   5.800   6.429   7.227
 2660WAT     H1 8222   5.898   6.424   7.207
 2660WAT     H2 8223   5.785   6.486   7.307
 2661WAT      O 8224   8.232   7.116   5.368
 2661WAT     H1 8225   8.301   7.110   5.296
 2661WAT     H2 8226   8.141   7.123   5.326
 2662WAT      O 8227   7.594   2.009   8.366
 2662WAT     H1 8228   7.657   2.058   8.305
 2662WAT     H2 8229   7.501   2.043   8.351
 2663WAT      O 8230   3.988   1.806   2.328
 2663WAT     H1 8231   3.948   1.855   2.406
 2663WAT     H2 8232   4.035   1.871   2.269
 2664WAT      O 8233   3.300   6.069   2.458
 2664WAT     H1 8234   3.288   6.020   2.372
 2664WAT     H2 8235   3.211   6.102   2.490
 2665WAT      O 8236   8.800   4.509   3.020
 2665WAT     H1 8237   8.753   4.502   3.109
 2665WAT     H2 8238   8.740   4.474   2.948
 2666WAT      O 8239   2.159   7.180   6.188
 2666WAT     H1 8240   2.154   7.083   6.162
 2666WAT     H2 8241   2.190   7.187   6.282
 2667WAT      O 8242   0.573   6.027   4.579
 2667WAT     H1 8243   0.531   6.058   4.494
 2667WAT     H2 8244   0.522   6.063   4.657
 2668WAT      O 8245   8.408   8.145   4.295
 2668WAT     H1 8246   8.385   8.237   4.263
 2668WAT     H2 8247   8.475   8.151   4.369
 2669WAT      O 8248   4.975   6.465   3.214
 2669WAT     H1 8249   4.918   6.387   3.240
 2669WAT     H2 8250   5.038   6.437   3.141
 2670WAT      O 8251   7.541   1.399   0.884
 2670WAT     H1 8252   7.502   1.309   0.902
 2670WAT     H2 8253   7.637   1.400   0.914
 2671WAT      O 8254   8.571   8.390   0.584
 2671WAT     H1 8255   8.620   8.304   0.567
 2671WAT     H2 8256   8.482   8.371   0.626
 2672WAT      O 8257   3.690   4.779   8.907
 2672WAT     H1 8258   3.767   4.815   8.854
 2672WAT     H2 8259   3.664   4.844   8.978
 2673WAT      O 8260   5.438   8.630   7.301
 2673WAT     H1 8261   5.416   8.640   7.398
 2673WAT     H2 8262   5.506   8.557   7.290
 2674WAT      O 8263   7.683   2.765   5.977
 2674WAT     H1 8264   7.670   2.711   6.060
 2674WAT     H2 8265   7.594   2.795   5.942
 2675WAT      O 8266   8.364   2.163   3.752
 2675WAT     H1 8267   8.359   2.186   3.655
 2675WAT     H2 8268   8.413   2.077   3.764
 2676WAT      O 8269   0.333   0.400   5.093
 2676WAT     H1 8270   0.313   0.317   5.042
 2676WAT     H2 8271   0.423   0.392   5.136
 2677WAT      O 8272   0.296   0.908   7.904
 2677WAT     H1 8273   0.303   0.895   7.805
 2677WAT     H2 8274   0.387   0.916   7.943
 2678WAT      O 8275   8.284   5.017   0.832
 2678WAT     H1 8276   8.343   5.070   0.892
 2678WAT     H2 8277   8.258   5.072   0.753
 2679WAT      O 8278   6.594   2.647   0.507
 2679WAT     H1 8279   6.642   2.640   0.594
 2679WAT     H2 8280   6.655   2.617   0.433
 2680WAT      O 8281   7.446   9.253   4.255
 2680WAT     H1 8282   7.386   9.196   4.311
 2680WAT     H2 8283   7.504   9.194   4.199
 2681WAT      O 8284   6.311   4.108   2.430
 2681WAT     H1 8285   6.307   4.009   2.429
 2681WAT     H2 8286   6.240   4.146   2.370
 2682WAT      O 8287   1.635   8.922   3.151
 2682WAT     H1 8288   1.611   8.989   3.081
 2682WAT     H2 8289   1.694   8.852   3.111
 2683WAT      O 8290   3.030   4.523   6.549
 2683WAT     H1 8291   2.976   4.545   6.467
 2683WAT     H2 8292   2.975   4.542   6.631
 2684WAT      O 8293   4.239   8.159   8.674
 2684WAT     H1 8294   4.175   8.225   8.633
 2684WAT     H2 8295   4.231   8.072   8.625
 2685WAT      O 8296   6.143   9.699   5.983
 2685WAT     H1 8297   6.166   9.626   6.049
 2685WAT     H2 8298   6.200   9.688   5.901
 2686WAT      O 8299   2.837   4.934   4.540
 2686WAT     H1 8300   2.875   4.851   4.498
 2686WAT     H2 8301   2.827   5.005   4.470
 2687WAT      O 8302   2.397   9.541   7.891
 2687WAT     H1 8303   2.444   9.579   7.971
 2687WAT     H2 8304   2.431   9.586   7.808
 2688WAT      O 8305   1.692   4.784   2.335
 2688WAT     H1 8306   1.696   4.685   2.335
 2688WAT     H2 8307   1.694   4.818   2.429
 2689WAT      O 8308   6.168   7.453   7.506
 2689WAT     H1 8309   6.109   7.386   7.550
 2689WAT     H2 8310   6.113   7.531   7.475
 2690WAT      O 8311   5.978   5.388   1.379
 2690WAT     H1 8312   6.033   5.331   1.440
 2690WAT     H2 8313   6.005   5.372   1.284
 2691WAT      O 8314   3.368   5.377   4.418
 2691WAT     H1 8315   3.320   5.463   4.401
 2691WAT     H2 8316   3.388   5.368   4.515
 2692WAT      O 8317   2.253   1.992   5.541
 2692WAT     H1 8318   2.203   2.046   5.473
 2692WAT     H2 8319   2.259   2.042   5.627
 2693WAT      O 8320   1.911   2.291   4.065
 2693WAT     H1 8321   1.814   2.292   4.087
 2693WAT     H2 8322   1.965   2.306   4.148
 2694WAT      O 8323   9.238   5.783   2.900
 2694WAT     H1 8324   9.278   5.819   2.984
 2694WAT     H2 8325   9.139   5.798   2.901
 2695WAT      O 8326   5.069   2.270   1.370
 2695WAT     H1 8327   5.168   2.273   1.380
 2695WAT     H2 8328   5.026   2.306   1.452
 2696WAT      O 8329   0.433   2.302   4.069
 2696WAT     H1 8330   0.509   2.268   4.125
 2696WAT     H2 8331   0.371   2.355   4.127
 2697WAT      O 8332   2.852   5.866   9.063
 2697WAT     H1 8333   2.912   5.836   8.989
 2697WAT     H2 8334   2.788   5.792   9.085
 2698WAT      O 8335   7.633   8.654   8.731
 2698WAT     H1 8336   7.678   8.611   8.652
 2698WAT     H2 8337   7.697   8.713   8.778
 2699WAT      O 8338   8.658   2.180   6.099
 2699WAT     H1 8339   8.733   2.147   6.042
 2699WAT     H2 8340   8.694   2.233   6.175
 2700WAT      O 8341   6.682   9.468   8.265
 2700WAT     H1 8342   6.668   9.520   8.349
 2700WAT     H2 8343   6.771   9.490   8.226
 2701WAT      O 8344   7.471   4.919   5.523
 2701WAT     H1 8345   7.559   4.966   5.511
 2701WAT     H2 8346   7.398   4.987   5.528
 2702WAT      O 8347   9.263   5.355   6.886
 2702WAT     H1 8348   9.241   5.376   6.982
 2702WAT     H2 8349   9.357   5.385   6.867
 2703WAT      O 8350   6.176   3.380   3.790
 2703WAT     H1 8351   6.080   3.381   3.818
 2703WAT     H2 8352   6.188   3.438   3.710
 2704WAT      O 8353   0.391   7.415   0.662
 2704WAT     H1 8354   0.350   7.364   0.737
 2704WAT     H2 8355   0.367   7.371   0.575
 2705WAT      O 8356   8.957   6.069   6.999
 2705WAT     H1 8357   8.907   6.050   7.084
 2705WAT     H2 8358   8.903   6.036   6.921
 2706WAT      O 8359   7.027   1.537   0.467
 2706WAT     H1 8360   6.948   1.597   0.454
 2706WAT     H2 8361   7.006   1.468   0.536
 2707WAT      O 8362   8.496   4.914   6.179
 2707WAT     H1 8363   8.503   4.816   6.198
 2707WAT     H2 8364   8.505   4.930   6.081
 2708WAT      O 8365   1.564   8.189   6.039
 2708WAT     H1 8366   1.509   8.270   6.060
 2708WAT     H2 8367   1.660   8.207   6.059
 2709WAT      O 8368   0.942   6.187   3.478
 2709WAT     H1 8369   0.933   6.237   3.564
 2709WAT     H2 8370   0.873   6.220   3.413
 2710WAT      O 8371   4.433   5.056   4.972
 2710WAT     H1 8372   4.526   5.022   4.959
 2710WAT     H2 8373   4.436   5.153   4.995
 2711WAT      O 8374   0.132   2.371   1.372
 2711WAT     H1 8375   0.100   2.455   1.326
 2711WAT     H2 8376   0.107   2.292   1.317
 2712WAT      O 8377   6.199   5.253   3.353
 2712WAT     H1 8378   6.108   5.215   3.335
 2712WAT     H2 8379   6.254   5.185   3.401
 2713WAT      O 8380   1.113   3.811   8.015
 2713WAT     H1 8381   1.212   3.812   8.028
 2713WAT     H2 8382   1.088   3.730   7.962
 2714WAT      O 8383   5.824   1.084   5.225
 2714WAT     H1 8384   5.765   1.150   5.272
 2714WAT     H2 8385   5.878   1.133   5.156
 2715WAT      O 8386   3.833   8.042   1.065
 2715WAT     H1 8387   3.766   8.111   1.092
 2715WAT     H2 8388   3.857   8.055   0.969
 2716WAT      O 8389   3.329   5.630   9.467
 2716WAT     H1 8390   3.395   5.701   9.444
 2716WAT     H2 8391   3.238   5.659   9.437
 2717WAT      O 8392   3.104   0.845   3.600
 2717WAT     H1 8393   3.112   0.919   3.666
 2717WAT     H2 8394   3.184   0.845   3.540
 2718WAT      O 8395   2.534   8.496   1.430
 2718WAT     H1 8396   2.563   8.410   1.473
 2718WAT     H2 8397   2.614   8.548   1.401
 2719WAT      O 8398   5.170   9.542   1.755
 2719WAT     H1 8399   5.170   9.443   1.765
 2719WAT     H2 8400   5.170   9.566   1.658
 2720WAT      O 8401   6.308   3.065   3.526
 2720WAT     H1 8402   6.217   3.049   3.488
 2720WAT     H2 8403   6.299   3.089   3.623
 2721WAT      O 8404   1.000   1.178   2.422
 2721WAT     H1 8405   1.086   1.145   2.382
 2721WAT     H2 8406   0.995   1.149   2.518
 2722WAT      O 8407   7.215   6.123   7.121
 2722WAT     H1 8408   7.197   6.181   7.201
 2722WAT     H2 8409   7.312   6.130   7.097
 2723WAT      O 8410   0.910   6.080   7.607
 2723WAT     H1 8411   0.826   6.124   7.639
 2723WAT     H2 8412   0.890   6.028   7.524
 2724WAT      O 8413   8.878   6.389   8.895
 2724WAT     H1 8414   8.966   6.369   8.851
 2724WAT     H2 8415   8.806   6.336   8.852
 2725WAT      O 8416   7.932   8.030   4.424
 2725WAT     H1 8417   8.029   8.016   4.405
 2725WAT     H2 8418   7.891   8.088   4.354
 2726WAT      O 8419   8.241   7.819   3.181
 2726WAT     H1 8420   8.153   7.865   3.177
 2726WAT     H2 8421   8.282   7.815   3.090
 2727WAT      O 8422   5.264   7.337   6.229
 2727WAT     H1 8423   5.233   7.352   6.323
 2727WAT     H2 8424   5.358   7.304   6.230
 2728WAT      O 8425   8.189   2.258   8.258
 2728WAT     H1 8426   8.172   2.357   8.267
 2728WAT     H2 8427   8.116   2.208   8.306
 2729WAT      O 8428   4.297   6.300   4.068
 2729WAT     H1 8429   4.237   6.373   4.034
 2729WAT     H2 8430   4.250   6.251   4.142
 2730WAT      O 8431   9.002   2.666   8.270
 2730WAT     H1 8432   8.996   2.606   8.350
 2730WAT     H2 8433   9.096   2.665   8.235
 2731WAT      O 8434   3.537   5.599   7.837
 2731WAT     H1 8435   3.454   5.555   7.803
 2731WAT     H2 8436   3.589   5.533   7.892
 2732WAT      O 8437   3.628   3.185   8.040
 2732WAT     H1 8438   3.724   3.207   8.027
 2732WAT     H2 8439   3.619   3.119   8.114
 2733WAT      O 8440   8.962   9.833   1.672
 2733WAT     H1 8441   8.947   9.909   1.735
 2733WAT     H2 8442   9.057   9.804   1.676
 2734WAT      O 8443   5.529   6.504   0.008
 2734WAT     H1 8444   5.463   6.472   0.076
 2734WAT     H2 8445   5.613   6.533   0.054
 2735WAT      O 8446   3.708   5.079   6.252
 2735WAT     H1 8447   3.666   5.150   6.308
 2735WAT     H2 8448   3.781   5.119   6.196
 2736WAT      O 8449   2.296   2.012   2.522
 2736WAT     H1 8450   2.239   2.030   2.602
 2736WAT     H2 8451   2.265   1.928   2.478
 2737WAT      O 8452   1.112   4.191   9.480
 2737WAT     H1 8453   1.205   4.200   9.445
 2737WAT     H2 8454   1.091   4.268   9.539
 2738WAT      O 8455   1.523   9.617   8.505
 2738WAT     H1 8456   1.581   9.575   8.435
 2738WAT     H2 8457   1.427   9.602   8.481
 2739WAT      O 8458   3.355   3.201   7.539
 2739WAT     H1 8459   3.373   3.178   7.444
 2739WAT     H2 8460   3.284   3.141   7.576
 2740WAT      O 8461   8.499   2.827   3.726
 2740WAT     H1 8462   8.574   2.774   3.688
 2740WAT     H2 8463   8.444   2.769   3.786
 2741WAT      O 8464   9.694   0.530   2.334
 2741WAT     H1 8465   9.712   0.477   2.416
 2741WAT     H2 8466   9.612   0.493   2.288
 2742WAT      O 8467   5.285   7.261   3.204
 2742WAT     H1 8468   5.328   7.345   3.169
 2742WAT     H2 8469   5.335   7.230   3.285
 2743WAT      O 8470   1.926   3.077   7.261
 2743WAT     H1 8471   1.951   3.162   7.215
 2743WAT     H2 8472   1.966   3.076   7.353
 2744WAT      O 8473   4.472   8.993   6.921
 2744WAT     H1 8474   4.484   8.894   6.925
 2744WAT     H2 8475   4.512   9.028   6.837
 2745WAT      O 8476   4.469   8.901   7.557
 2745WAT     H1 8477   4.489   8.804   7.539
 2745WAT     H2 8478   4.370   8.915   7.556
 2746WAT      O 8479   7.411   3.151   5.612
 2746WAT     H1 8480   7.438   3.134   5.707
 2746WAT     H2 8481   7.464   3.229   5.577
 2747WAT      O 8482   7.887   5.307   2.302
 2747WAT     H1 8483   7.903   5.232   2.239
 2747WAT     H2 8484   7.862   5.270   2.392
 2748WAT      O 8485   2.007   7.713   8.217
 2748WAT     H1 8486   1.933   7.653   8.246
 2748WAT     H2 8487   2.011   7.715   8.117
 2749WAT      O 8488   1.039   7.966   4.775
 2749WAT     H1 8489   0.960   7.937   4.829
 2749WAT     H2 8490   1.063   8.060   4.800
 2750WAT      O 8491   4.151   9.682   0.881
 2750WAT     H1 8492   4.238   9.669   0.930
 2750WAT     H2 8493   4.080   9.627   0.925
 2751WAT      O 8494   8.837   1.286   6.956
 2751WAT     H1 8495   8.884   1.372   6.978
 2751WAT     H2 8496   8.795   1.249   7.039
 2752WAT      O 8497   6.040   3.783   1.618
 2752WAT     H1 8498   6.042   3.733   1.531
 2752WAT     H2 8499   5.946   3.790   1.651
 2753WAT      O 8500   1.957   8.197   2.196
 2753WAT     H1 8501   2.032   8.135   2.221
 2753WAT     H2 8502   1.977   8.239   2.107
 2754WAT      O 8503   0.996   9.609   4.509
 2754WAT     H1 8504   0.927   9.628   4.438
 2754WAT     H2 8505   1.049   9.691   4.526
 2755WAT      O 8506   4.929   1.980   3.045
 2755WAT     H1 8507   4.979   1.911   3.097
 2755WAT     H2 8508   4.833   1.952   3.037
 2756WAT      O 8509   2.087   2.777   1.687
 2756WAT     H1 8510   2.157   2.710   1.712
 2756WAT     H2 8511   2.129   2.867   1.675
 2757WAT      O 8512   2.555   5.068   5.801
 2757WAT     H1 8513   2.455   5.072   5.807
 2757WAT     H2 8514   2.585   4.974   5.817
 2758WAT      O 8515   9.863   8.481   9.597
 2758WAT     H1 8516   9.899   8.402   9.548
 2758WAT     H2 8517   9.870   8.465   9.696
 2759WAT      O 8518   3.508   3.840   3.578
 2759WAT     H1 8519   3.556   3.869   3.661
 2759WAT     H2 8520   3.415   3.876   3.579
 2760WAT      O 8521   9.317   0.691   9.622
 2760WAT     H1 8522   9.357   0.774   9.584
 2760WAT     H2 8523   9.258   0.648   9.554
 2761WAT      O 8524   6.926   2.317   8.529
 2761WAT     H1 8525   7.025   2.305   8.524
 2761WAT     H2 8526   6.897   2.392   8.470
 2762WAT      O 8527   9.763   7.855   5.447
 2762WAT     H1 8528   9.854   7.897   5.455
 2762WAT     H2 8529   9.704   7.915   5.393
 2763WAT      O 8530   6.411   1.516   8.766
 2763WAT     H1 8531   6.443   1.517   8.861
 2763WAT     H2 8532   6.378   1.425   8.742
 2764WAT      O 8533   7.558   8.597   5.187
 2764WAT     H1 8534   7.601   8.592   5.097
 2764WAT     H2 8535   7.490   8.670   5.188
 2765WAT      O 8536   8.807   4.590   7.502
 2765WAT     H1 8537   8.813   4.492   7.521
 2765WAT     H2 8538   8.712   4.620   7.514
 2766WAT      O 8539   2.699   7.752   4.800
 2766WAT     H1 8540   2.747   7.685   4.744
 2766WAT     H2 8541   2.761   7.788   4.870
 2767WAT      O 8542   2.856   5.420   7.999
 2767WAT     H1 8543   2.869   5.499   8.059
 2767WAT     H2 8544   2.916   5.346   8.028
 2768WAT      O 8545   6.959   2.069   5.200
 2768WAT     H1 8546   7.046   2.044   5.243
 2768WAT     H2 8547   6.977   2.118   5.115
 2769WAT      O 8548   2.647   7.241   5.748
 2769WAT     H1 8549   2.628   7.244   5.650
 2769WAT     H2 8550   2.739   7.203   5.763
 2770WAT      O 8551   6.583   1.490   5.578
 2770WAT     H1 8552   6.517   1.489   5.654
 2770WAT     H2 8553   6.619   1.398   5.564
 2771WAT      O 8554   6.721   8.954   9.240
 2771WAT     H1 8555   6.670   8.938   9.325
 2771WAT     H2 8556   6.710   9.049   9.212
 2772WAT      O 8557   0.860   5.896   6.894
 2772WAT     H1 8558   0.793   5.967   6.915
 2772WAT     H2 8559   0.851   5.821   6.960
 2773WAT      O 8560   2.907   5.530   6.172
 2773WAT     H1 8561   2.924   5.529   6.271
 2773WAT     H2 8562   2.863   5.617   6.148
 2774WAT      O 8563   7.863   2.916   0.338
 2774WAT     H1 8564   7.808   2.835   0.319
 2774WAT     H2 8565   7.826   2.963   0.419
 2775WAT      O 8566   9.379   8.195   0.780
 2775WAT     H1 8567   9.309   8.200   0.709
 2775WAT     H2 8568   9.465   8.231   0.744
 2776WAT      O 8569   6.075   1.840   2.135
 2776WAT     H1 8570   6.103   1.877   2.047
 2776WAT     H2 8571   6.068   1.740   2.129
 2777WAT      O 8572   8.687   7.551   0.286
 2777WAT     H1 8573   8.731   7.525   0.200
 2777WAT     H2 8574   8.728   7.636   0.320
 2778WAT      O 8575   5.474   1.178   3.462
 2778WAT     H1 8576   5.405   1.131   3.517
 2778WAT     H2 8577   5.493   1.268   3.503
 2779WAT      O 8578   6.923   3.158   8.136
 2779WAT     H1 8579   6.959   3.173   8.228
 2779WAT     H2 8580   6.858   3.082   8.137
 2780WAT      O 8581   5.317   7.483   7.196
 2780WAT     H1 8582   5.385   7.430   7.146
 2780WAT     H2 8583   5.316   7.453   7.292
 2781WAT      O 8584   6.394   9.186   9.790
 2781WAT     H1 8585   6.464   9.115   9.783
 2781WAT     H2 8586   6.304   9.146   9.770
 2782WAT      O 8587   9.799   5.803   7.548
 2782WAT     H1 8588   9.855   5.721   7.556
 2782WAT     H2 8589   9.823   5.867   7.621
 2783WAT      O 8590   1.562   3.189   7.086
 2783WAT     H1 8591   1.631   3.248   7.045
 2783WAT     H2 8592   1.485   3.244   7.117
 2784WAT      O 8593   9.250   6.368   9.039
 2784WAT     H1 8594   9.179   6.372   8.969
 2784WAT     H2 8595   9.285   6.274   9.046
 2785WAT      O 8596   1.774   8.555   5.434
 2785WAT     H1 8597   1.865   8.518   5.453
 2785WAT     H2 8598   1.705   8.498   5.477
 2786WAT      O 8599   5.683   0.362   6.199
 2786WAT     H1 8600   5.642   0.426   6.135
 2786WAT     H2 8601   5.749   0.304   6.150
 2787WAT      O 8602   9.428   6.444   6.059
 2787WAT     H1 8603   9.518   6.485   6.074
 2787WAT     H2 8604   9.388   6.417   6.147
 2788WAT      O 8605   4.302   9.476   2.252
 2788WAT     H1 8606   4.253   9.395   2.219
 2788WAT     H2 8607   4.338   9.527   2.174
 2789WAT      O 8608   4.582   6.275   8.740
 2789WAT     H1 8609   4.667   6.226   8.721
 2789WAT     H2 8610   4.595   6.338   8.817
 2790WAT      O 8611   9.549   6.892   3.365
 2790WAT     H1 8612   9.566   6.972   3.422
 2790WAT     H2 8613   9.601   6.900   3.280
 2791WAT      O 8614   6.319   7.682   7.756
 2791WAT     H1 8615   6.364   7.624   7.687
 2791WAT     H2 8616   6.342   7.778   7.739
 2792WAT      O 8617   1.170   9.286   0.336
 2792WAT     H1 8618   1.216   9.331   0.412
 2792WAT     H2 8619   1.116   9.209   0.371
 2793WAT      O 8620   7.045   3.641   3.196
 2793WAT     H1 8621   7.137   3.615   3.165
 2793WAT     H2 8622   7.039   3.741   3.201
 2794WAT      O 8623   0.575   3.767   0.301
 2794WAT     H1 8624   0.505   3.769   0.372
 2794WAT     H2 8625   0.600   3.861   0.277
 2795WAT      O 8626   7.231   0.532   1.603
 2795WAT     H1 8627   7.179   0.454   1.568
 2795WAT     H2 8628   7.316   0.542   1.550
 2796WAT      O 8629   3.329   1.592   7.931
 2796WAT     H1 8630   3.276   1.673   7.957
 2796WAT     H2 8631   3.287   1.549   7.851
 2797WAT      O 8632   6.197   1.507   0.116
 2797WAT     H1 8633   6.226   1.445   0.189
 2797WAT     H2 8634   6.100   1.494   0.096
 2798WAT      O 8635   4.295   3.293   3.309
 2798WAT     H1 8636   4.231   3.370   3.302
 2798WAT     H2 8637   4.264   3.218   3.251
 2799WAT      O 8638   7.920   3.457   0.499
 2799WAT     H1 8639   7.947   3.518   0.424
 2799WAT     H2 8640   7.972   3.481   0.581
 2800WAT      O 8641   6.501   4.397   3.977
 2800WAT     H1 8642   6.463   4.309   4.008
 2800WAT     H2 8643   6.437   4.438   3.912
 2801WAT      O 8644   0.111   3.050   2.854
 2801WAT     H1 8645   0.078   3.086   2.767
 2801WAT     H2 8646   0.135   2.954   2.843
 2802WAT      O 8647   3.401   6.196   1.232
 2802WAT     H1 8648   3.353   6.209   1.146
 2802WAT     H2 8649   3.369   6.111   1.275
 2803WAT      O 8650   8.501   8.746   7.129
 2803WAT     H1 8651   8.582   8.764   7.185
 2803WAT     H2 8652   8.531   8.706   7.042
 2804WAT      O 8653   1.247   5.073   3.559
 2804WAT     H1 8654   1.186   5.045   3.485
 2804WAT     H2 8655   1.203   5.056   3.647
 2805WAT      O 8656   0.238   4.607   2.776
 2805WAT     H1 8657   0.185   4.595   2.692
 2805WAT     H2 8658   0.175   4.613   2.854
 2806WAT      O 8659   9.553   8.776   3.282
 2806WAT     H1 8660   9.516   8.866   3.259
 2806WAT     H2 8661   9.478   8.710   3.289
 2807WAT      O 8662   4.542   5.982   6.928
 2807WAT     H1 8663   4.449   5.971   6.892
 2807WAT     H2 8664   4.569   6.078   6.918
 2808WAT      O 8665   4.933   7.158   8.502
 2808WAT     H1 8666   4.977   7.247   8.501
 2808WAT     H2 8667   4.946   7.114   8.413
 2809WAT      O 8668   7.723   2.023   1.944
 2809WAT     H1 8669   7.784   2.060   1.874
 2809WAT     H2 8670   7.648   2.088   1.960
 2810WAT      O 8671   8.391   6.079   0.168
 2810WAT     H1 8672   8.323   6.142   0.204
 2810WAT     H2 8673   8.346   5.995   0.137
 2811WAT      O 8674   5.936   6.690   5.826
 2811WAT     H1 8675   5.901   6.775   5.786
 2811WAT     H2 8676   5.884   6.668   5.909
 2812WAT      O 8677   4.136   1.842   7.522
 2812WAT     H1 8678   4.085   1.916   7.478
 2812WAT     H2 8679   4.143   1.765   7.459
 2813WAT      O 8680   4.778   1.638   1.468
 2813WAT     H1 8681   4.725   1.692   1.534
 2813WAT     H2 8682   4.823   1.562   1.516
 2814WAT      O 8683   1.920   6.259   9.277
 2814WAT     H1 8684   1.876   6.211   9.353
 2814WAT     H2 8685   1.987   6.325   9.312
 2815WAT      O 8686   2.604   3.189   4.141
 2815WAT     H1 8687   2.587   3.092   4.158
 2815WAT     H2 8688   2.579   3.211   4.046
 2816WAT      O 8689   7.842   1.866   6.291
 2816WAT     H1 8690   7.750   1.887   6.324
 2816WAT     H2 8691   7.893   1.952   6.279
 2817WAT      O 8692   8.656   2.844   0.561
 2817WAT     H1 8693   8.663   2.778   0.636
 2817WAT     H2 8694   8.698   2.805   0.479
 2818WAT      O 8695   1.432   0.712   2.887
 2818WAT     H1 8696   1.504   0.775   2.918
 2818WAT     H2 8697   1.346   0.734   2.934
 2819WAT      O 8698   5.631   7.123   5.555
 2819WAT     H1 8699   5.550   7.162   5.598
 2819WAT     H2 8700   5.617   7.119   5.456
 2820WAT      O 8701   0.638   5.204   7.242
 2820WAT     H1 8702   0.631   5.301   7.219
 2820WAT     H2 8703   0.561   5.155   7.202
 2821WAT      O 8704   9.835   3.287   8.429
 2821WAT     H1 8705   9.790   3.357   8.485
 2821WAT     H2 8706   9.889   3.227   8.488
 2822WAT      O 8707   1.332   0.726   0.907
 2822WAT     H1 8708   1.403   0.780   0.951
 2822WAT     H2 8709   1.312   0.645   0.963
 2823WAT      O 8710   1.158   0.216   4.873
 2823WAT     H1 8711   1.206   0.298   4.843
 2823WAT     H2 8712   1.176   0.200   4.970
 2824WAT      O 8713   3.841   0.426   1.750
 2824WAT     H1 8714   3.762   0.399   1.696
 2824WAT     H2 8715   3.900   0.485   1.695
 2825WAT      O 8716   7.589   8.871   1.515
 2825WAT     H1 8717   7.564   8.888   1.420
 2825WAT     H2 8718   7.639   8.950   1.551
 2826WAT      O 8719   7.056   7.280   8.542
 2826WAT     H1 8720   7.082   7.200   8.596
 2826WAT     H2 8721   7.094   7.362   8.585
 2827WAT      O 8722   0.056   3.802   7.244
 2827WAT     H1 8723   0.043   3.798   7.344
 2827WAT     H2 8724   0.027   3.715   7.204
 2828WAT      O 8725   2.854   8.015   0.763
 2828WAT     H1 8726   2.758   8.000   0.785
 2828WAT     H2 8727   2.907   8.019   0.848
 2829WAT      O 8728   4.402   5.071   8.533
 2829WAT     H1 8729   4.463   4.993   8.549
 2829WAT     H2 8730   4.394   5.087   8.435
 2830WAT      O 8731   5.650   3.977   8.927
 2830WAT     H1 8732   5.601   3.890   8.934
 2830WAT     H2 8733   5.617   4.039   8.998
 2831WAT      O 8734   6.806   7.586   2.973
 2831WAT     H1 8735   6.845   7.633   2.894
 2831WAT     H2 8736   6.836   7.632   3.057
 2832WAT      O 8737   3.623   1.201   0.352
 2832WAT     H1 8738   3.564   1.214   0.432
 2832WAT     H2 8739   3.695   1.270   0.352
 2833WAT      O 8740   6.621   2.946   1.682
 2833WAT     H1 8741   6.594   3.041   1.661
 2833WAT     H2 8742   6.594   2.924   1.776
 2834WAT      O 8743   0.383   6.900   8.872
 2834WAT     H1 8744   0.295   6.860   8.897
 2834WAT     H2 8745   0.449   6.828   8.852
 2835WAT      O 8746   5.580   0.932   5.333
 2835WAT     H1 8747   5.658   0.987   5.303
 2835WAT     H2 8748   5.559   0.954   5.429
 2836WAT      O 8749   1.523   7.371   9.675
 2836WAT     H1 8750   1.593   7.414   9.618
 2836WAT     H2 8751   1.559   7.359   9.768
 2837WAT      O 8752   6.883   8.281   4.413
 2837WAT     H1 8753   6.965   8.273   4.356
 2837WAT     H2 8754   6.822   8.204   4.394
 2838WAT      O 8755   7.758   1.190   8.395
 2838WAT     H1 8756   7.675   1.185   8.450
 2838WAT     H2 8757   7.742   1.147   8.306
 2839WAT      O 8758   8.209   6.977   3.678
 2839WAT     H1 8759   8.110   6.983   3.681
 2839WAT     H2 8760   8.248   7.018   3.761
 2840WAT      O 8761   7.073   8.800   2.763
 2840WAT     H1 8762   7.092   8.829   2.670
 2840WAT     H2 8763   7.011   8.722   2.762
 2841WAT      O 8764   4.429   0.509   3.143
 2841WAT     H1 8765   4.444   0.608   3.139
 2841WAT     H2 8766   4.373   0.481   3.065
 2842WAT      O 8767   8.569   6.673   1.391
 2842WAT     H1 8768   8.577   6.654   1.489
 2842WAT     H2 8769   8.475   6.701   1.370
 2843WAT      O 8770   2.959   4.122   2.647
 2843WAT     H1 8771   2.907   4.129   2.732
 2843WAT     H2 8772   3.022   4.045   2.652
 2844WAT      O 8773   1.880   7.125   2.738
 2844WAT     H1 8774   1.918   7.102   2.827
 2844WAT     H2 8775   1.793   7.077   2.725
 2845WAT      O 8776   9.228   1.000   6.487
 2845WAT     H1 8777   9.267   0.935   6.421
 2845WAT     H2 8778   9.293   1.016   6.561
 2846WAT      O 8779   2.961   6.564   3.549
 2846WAT     H1 8780   3.015   6.647   3.537
 2846WAT     H2 8781   2.942   6.551   3.646
 2847WAT      O 8782   3.740   7.056   7.808
 2847WAT     H1 8783   3.766   6.975   7.860
 2847WAT     H2 8784   3.641   7.057   7.795
 2848WAT      O 8785   7.096   1.202   7.138
 2848WAT     H1 8786   7.141   1.123   7.097
 2848WAT     H2 8787   7.130   1.286   7.095
 2849WAT      O 8788   9.894   6.058   7.774
 2849WAT     H1 8789   9.828   5.992   7.809
 2849WAT     H2 8790   9.847   6.127   7.720
 2850WAT      O 8791   6.135   3.241   7.968
 2850WAT     H1 8792   6.179   3.331   7.979
 2850WAT     H2 8793   6.161   3.182   8.045
 2851WAT      O 8794   9.168   4.800   6.768
 2851WAT     H1 8795   9.190   4.897   6.777
 2851WAT     H2 8796   9.221   4.760   6.694
 2852WAT      O 8797   5.931   4.430   1.107
 2852WAT     H1 8798   5.897   4.511   1.058
 2852WAT     H2 8799   5.952   4.455   1.201
 2853WAT      O 8800   7.711   4.113   2.062
 2853WAT     H1 8801   7.745   4.056   1.987
 2853WAT     H2 8802   7.619   4.083   2.088
 2854WAT      O 8803   3.154   6.407   5.238
 2854WAT     H1 8804   3.159   6.487   5.177
 2854WAT     H2 8805   3.236   6.404   5.295
 2855WAT      O 8806   5.766   0.407   2.778
 2855WAT     H1 8807   5.822   0.327   2.762
 2855WAT     H2 8808   5.820   0.490   2.764
 2856WAT      O 8809   5.824   5.469   0.720
 2856WAT     H1 8810   5.872   5.505   0.801
 2856WAT     H2 8811   5.739   5.520   0.707
 2857WAT      O 8812   8.111   0.505   5.376
 2857WAT     H1 8813   8.128   0.462   5.465
 2857WAT     H2 8814   8.018   0.540   5.372
 2858WAT      O 8815   8.612   7.544   3.482
 2858WAT     H1 8816   8.585   7.602   3.558
 2858WAT     H2 8817   8.645   7.601   3.406
 2859WAT      O 8818   1.903   7.846   3.609
 2859WAT     H1 8819   1.831   7.913   3.625
 2859WAT     H2 8820   1.891   7.804   3.519
 2860WAT      O 8821   3.984   0.129   5.030
 2860WAT     H1 8822   4.023   0.132   5.123
 2860WAT     H2 8823   3.908   0.065   5.028
 2861WAT      O 8824   2.908   4.693   5.338
 2861WAT     H1 8825   2.863   4.634   5.270
 2861WAT     H2 8826   2.875   4.787   5.327
 2862WAT      O 8827   3.139   2.460   0.765
 2862WAT     H1 8828   3.203   2.384   0.779
 2862WAT     H2 8829   3.116   2.502   0.853
 2863WAT      O 8830   5.952   0.693   6.274
 2863WAT     H1 8831   6.047   0.705   6.303
 2863WAT     H2 8832   5.950   0.643   6.187
 2864WAT      O 8833   6.636   8.491   9.822
 2864WAT     H1 8834   6.666   8.584   9.844
 2864WAT     H2 8835   6.674   8.427   9.889
 2865WAT      O 8836   8.092   9.084   5.517
 2865WAT     H1 8837   8.148   9.167   5.515
 2865WAT     H2 8838   8.012   9.098   5.459
 2866WAT      O 8839   0.944   2.165   4.309
 2866WAT     H1 8840   0.975   2.149   4.215
 2866WAT     H2 8841   0.845   2.175   4.310
 2867WAT      O 8842   0.130   7.184   3.740
 2867WAT     H1 8843   0.212   7.176   3.797
 2867WAT     H2 8844   0.145   7.254   3.670
 2868WAT      O 8845   1.709   2.204   9.791
 2868WAT     H1 8846   1.775   2.257   9.739
 2868WAT     H2 8847   1.641   2.265   9.832
 2869WAT      O 8848   7.013   7.527   3.756
 2869WAT     H1 8849   6.990   7.559   3.664
 2869WAT     H2 8850   7.096   7.471   3.752
 2870WAT      O 8851   8.549   0.599   5.550
 2870WAT     H1 8852   8.555   0.514   5.498
 2870WAT     H2 8853   8.488   0.585   5.628
 2871WAT      O 8854   7.966   1.749   1.006
 2871WAT     H1 8855   7.960   1.836   0.957
 2871WAT     H2 8856   7.968   1.674   0.940
 2872WAT      O 8857   2.757   0.380   9.279
 2872WAT     H1 8858   2.700   0.462   9.272
 2872WAT     H2 8859   2.712   0.312   9.338
 2873WAT      O 8860   4.596   2.217   6.568
 2873WAT     H1 8861   4.691   2.229   6.598
 2873WAT     H2 8862   4.534   2.239   6.643
 2874WAT      O 8863   4.727   6.161   0.757
 2874WAT     H1 8864   4.808   6.134   0.705
 2874WAT     H2 8865   4.651   6.176   0.695
 2875WAT      O 8866   4.528   0.687   0.234
 2875WAT     H1 8867   4.611   0.634   0.216
 2875WAT     H2 8868   4.449   0.641   0.192
 2876WAT      O 8869   1.176   7.303   0.461
 2876WAT     H1 8870   1.108   7.377   0.464
 2876WAT     H2 8871   1.256   7.330   0.515
 2877WAT      O 8872   8.626   8.259   1.682
 2877WAT     H1 8873   8.568   8.183   1.711
 2877WAT     H2 8874   8.652   8.246   1.586
 2878WAT      O 8875   1.609   4.811   8.240
 2878WAT     H1 8876   1.652   4.732   8.284
 2878WAT     H2 8877   1.680   4.877   8.214
 2879WAT      O 8878   7.691   7.994   5.255
 2879WAT     H1 8879   7.613   7.950   5.299
 2879WAT     H2 8880   7.711   7.950   5.168
 2880WAT      O 8881   9.553   9.838   2.714
 2880WAT     H1 8882   9.620   9.768   2.737
 2880WAT     H2 8883   9.461   9.799   2.720
 2881WAT      O 8884   8.887   8.136   3.684
 2881WAT     H1 8885   8.966   8.196   3.695
 2881WAT     H2 8886   8.875   8.113   3.587
 2882WAT      O 8887   9.435   7.862   2.954
 2882WAT     H1 8888   9.438   7.770   2.993
 2882WAT     H2 8889   9.400   7.858   2.860
 2883WAT      O 8890   0.275   9.690   7.201
 2883WAT     H1 8891   0.302   9.650   7.289
 2883WAT     H2 8892   0.266   9.789   7.212
 2884WAT      O 8893   4.789   2.200   5.380
 2884WAT     H1 8894   4.840   2.140   5.319
 2884WAT     H2 8895   4.782   2.157   5.470
 2885WAT      O 8896   5.548   2.271   6.463
 2885WAT     H1 8897   5.619   2.338   6.486
 2885WAT     H2 8898   5.534   2.270   6.364
 2886WAT      O 8899   1.153   8.708   8.598
 2886WAT     H1 8900   1.205   8.783   8.559
 2886WAT     H2 8901   1.059   8.738   8.615
 2887WAT      O 8902   9.622   4.342   2.266
 2887WAT     H1 8903   9.626   4.372   2.171
 2887WAT     H2 8904   9.694   4.274   2.283
 2888WAT      O 8905   1.087   4.179   3.900
 2888WAT     H1 8906   1.034   4.226   3.970
 2888WAT     H2 8907   1.032   4.169   3.817
 2889WAT      O 8908   3.232   7.966   9.090
 2889WAT     H1 8909   3.251   8.055   9.049
 2889WAT     H2 8910   3.268   7.893   9.032
 2890WAT      O 8911   9.034   8.583   0.121
 2890WAT     H1 8912   9.085   8.667   0.108
 2890WAT     H2 8913   9.097   8.506   0.129
 2891WAT      O 8914   1.238   1.552   3.113
 2891WAT     H1 8915   1.181   1.577   3.191
 2891WAT     H2 8916   1.310   1.620   3.100
 2892WAT      O 8917   0.798   4.299   5.817
 2892WAT     H1 8918   0.788   4.279   5.915
 2892WAT     H2 8919   0.879   4.356   5.803
 2893WAT      O 8920   7.006   1.327   2.468
 2893WAT     H1 8921   6.992   1.312   2.565
 2893WAT     H2 8922   6.920   1.349   2.424
 2894WAT      O 8923   1.317   2.225   5.398
 2894WAT     H1 8924   1.379   2.218   5.320
 2894WAT     H2 8925   1.236   2.168   5.380
 2895WAT      O 8926   1.552   7.489   3.109
 2895WAT     H1 8927   1.571   7.430   3.188
 2895WAT     H2 8928   1.460   7.527   3.119
 2896WAT      O 8929   9.095   3.504   5.806
 2896WAT     H1 8930   9.068   3.416   5.845
 2896WAT     H2 8931   9.014   3.552   5.772
 2897WAT      O 8932   0.725   1.927   8.780
 2897WAT     H1 8933   0.655   1.980   8.826
 2897WAT     H2 8934   0.756   1.975   8.698
 2898WAT      O 8935   1.309   5.986   6.517
 2898WAT     H1 8936   1.345   6.077   6.536
 2898WAT     H2 8937   1.268   5.948   6.600
 2899WAT      O 8938   0.610   1.801   4.427
 2899WAT     H1 8939   0.567   1.817   4.338
 2899WAT     H2 8940   0.639   1.888   4.466
 2900WAT      O 8941   0.747   9.064   1.957
 2900WAT     H1 8942   0.816   9.036   1.891
 2900WAT     H2 8943   0.684   9.129   1.915
 2901WAT      O 8944   8.504   5.896   0.415
 2901WAT     H1 8945   8.405   5.905   0.425
 2901WAT     H2 8946   8.539   5.971   0.359
 2902WAT      O 8947   5.495   9.785   7.696
 2902WAT     H1 8948   5.418   9.842   7.723
 2902WAT     H2 8949   5.559   9.839   7.642
 2903WAT      O 8950   1.806   0.851   8.308
 2903WAT     H1 8951   1.735   0.895   8.253
 2903WAT     H2 8952   1.891   0.904   8.300
 2904WAT      O 8953   0.211   1.623   2.589
 2904WAT     H1 8954   0.290   1.657   2.537
 2904WAT     H2 8955   0.160   1.701   2.626
 2905WAT      O 8956   6.891   8.048   1.029
 2905WAT     H1 8957   6.952   7.968   1.037
 2905WAT     H2 8958   6.798   8.017   1.009
 2906WAT      O 8959   6.291   1.617   0.824
 2906WAT     H1 8960   6.216   1.678   0.849
 2906WAT     H2 8961   6.375   1.671   0.812
 2907WAT      O 8962   8.958   1.831   0.599
 2907WAT     H1 8963   8.998   1.751   0.644
 2907WAT     H2 8964   8.903   1.883   0.665
 2908WAT      O 8965   9.341   8.318   9.224
 2908WAT     H1 8966   9.397   8.295   9.304
 2908WAT     H2 8967   9.308   8.412   9.233
 2909WAT      O 8968   3.211   4.362   5.295
 2909WAT     H1 8969   3.169   4.433   5.351
 2909WAT     H2 8970   3.187   4.272   5.333
 2910WAT      O 8971   3.266   3.708   9.424
 2910WAT     H1 8972   3.177   3.662   9.421
 2910WAT     H2 8973   3.338   3.642   9.443
 2911WAT      O 8974   5.221   4.294   9.070
 2911WAT     H1 8975   5.143   4.322   9.014
 2911WAT     H2 8976   5.218   4.341   9.158
 2912WAT      O 8977   4.586   9.222   0.034
 2912WAT     H1 8978   4.558   9.129   0.058
 2912WAT     H2 8979   4.685   9.229   0.036
 2913WAT      O 8980   1.284   3.137   2.745
 2913WAT     H1 8981   1.201   3.089   2.772
 2913WAT     H2 8982   1.271   3.179   2.655
 2914WAT      O 8983   1.033   7.847   5.244
 2914WAT     H1 8984   1.011   7.784   5.318
 2914WAT     H2 8985   0.981   7.932   5.256
 2915WAT      O 8986   3.374   6.792   0.833
 2915WAT     H1 8987   3.283   6.804   0.873
 2915WAT     H2 8988   3.438   6.855   0.878
 2916WAT      O 8989   7.245   3.153   9.430
 2916WAT     H1 8990   7.231   3.137   9.332
 2916WAT     H2 8991   7.184   3.226   9.461
 2917WAT      O 8992   3.102   5.390   7.454
 2917WAT     H1 8993   3.150   5.470   7.488
 2917WAT     H2 8994   3.048   5.349   7.528
 2918WAT      O 8995   1.199   2.243   1.701
 2918WAT     H1 8996   1.111   2.245   1.654
 2918WAT     H2 8997   1.212   2.155   1.745
 2919WAT      O 8998   4.439   3.230   8.506
 2919WAT     H1 8999   4.368   3.221   8.577
 2919WAT     H2 9000   4.518   3.278   8.544
 2920WAT      O 9001   4.554   1.904   8.525
 2920WAT     H1 9002   4.483   1.968   8.554
 2920WAT     H2 9003   4.560   1.904   8.425
 2921WAT      O 9004   8.196   6.172   0.418
 2921WAT     H1 9005   8.196   6.077   0.447
 2921WAT     H2 9006   8.136   6.225   0.478
 2922WAT      O 9007   7.891   7.517   4.971
 2922WAT     H1 9008   7.832   7.510   5.051
 2922WAT     H2 9009   7.978   7.559   4.996
 2923WAT      O 9010   3.792   6.548   1.927
 2923WAT     H1 9011   3.816   6.470   1.869
 2923WAT     H2 9012   3.875   6.582   1.972
 2924WAT      O 9013   8.695   0.196   7.809
 2924WAT     H1 9014   8.739   0.179   7.721
 2924WAT     H2 9015   8.751   0.157   7.883
 2925WAT      O 9016   0.004   3.817   4.672
 2925WAT     H1 9017   0.009   3.891   4.739
 2925WAT     H2 9018  -0.063   3.839   4.602
 2926WAT      O 9019   5.350   5.058   9.342
 2926WAT     H1 9020   5.376   5.145   9.301
 2926WAT     H2 9021   5.432   5.004   9.360
 2927WAT      O 9022   9.152   7.071   0.608
 2927WAT     H1 9023   9.165   7.023   0.521
 2927WAT     H2 9024   9.145   7.169   0.591
 2928WAT      O 9025   7.583   6.440   2.259
 2928WAT     H1 9026   7.498   6.412   2.213
 2928WAT     H2 9027   7.627   6.513   2.206
 2929WAT      O 9028   9.827   8.954   5.596
 2929WAT     H1 9029   9.868   8.995   5.678
 2929WAT     H2 9030   9.776   8.872   5.622
 2930WAT      O 9031   7.285   0.284   3.565
 2930WAT     H1 9032   7.240   0.261   3.651
 2930WAT     H2 9033   7.376   0.241   3.562
 2931WAT      O 9034   7.596   0.927   6.771
 2931WAT     H1 9035   7.617   1.025   6.768
 2931WAT     H2 9036   7.570   0.901   6.864
 2932WAT      O 9037   3.501   5.812   5.645
 2932WAT     H1 9038   3.473   5.824   5.740
 2932WAT     H2 9039   3.590   5.856   5.631
 2933WAT      O 9040   8.707   4.964   0.415
 2933WAT     H1 9041   8.621   4.979   0.464
 2933WAT     H2 9042   8.725   5.042   0.355
 2934WAT      O 9043   8.080   2.017   7.070
 2934WAT     H1 9044   8.159   1.984   7.018
 2934WAT     H2 9045   8.032   1.938   7.109
 2935WAT      O 9046   4.573   2.748   4.251
 2935WAT     H1 9047   4.604   2.706   4.165
 2935WAT     H2 9048   4.569   2.847   4.240
 2936WAT      O 9049   0.374   8.344   8.337
 2936WAT     H1 9050   0.449   8.406   8.361
 2936WAT     H2 9051   0.339   8.367   8.247
 2937WAT      O 9052   3.309   6.751   7.986
 2937WAT     H1 9053   3.332   6.717   7.895
 2937WAT     H2 9054   3.389   6.746   8.045
 2938WAT      O 9055   4.033   5.478   2.060
 2938WAT     H1 9056   4.103   5.416   2.024
 2938WAT     H2 9057   4.077   5.553   2.108
 2939WAT      O 9058   3.549   3.543   2.474
 2939WAT     H1 9059   3.468   3.599   2.459
 2939WAT     H2 9060   3.630   3.602   2.479
 2940WAT      O 9061   8.377   2.451   3.872
 2940WAT     H1 9062   8.385   2.451   3.972
 2940WAT     H2 9063   8.362   2.358   3.840
 2941WAT      O 9064   9.498   5.168   8.072
 2941WAT     H1 9065   9.437   5.247   8.084
 2941WAT     H2 9066   9.462   5.110   7.998
 2942WAT      O 9067   6.034   9.407   6.412
 2942WAT     H1 9068   6.108   9.473   6.430
 2942WAT     H2 9069   5.955   9.455   6.374
 2943WAT      O 9070   0.725   3.575   2.368
 2943WAT     H1 9071   0.703   3.508   2.438
 2943WAT     H2 9072   0.652   3.576   2.299
 2944WAT      O 9073   2.378   9.222   5.862
 2944WAT     H1 9074   2.285   9.259   5.865
 2944WAT     H2 9075   2.409   9.202   5.955
 2945WAT      O 9076   4.130   9.596   7.120
 2945WAT     H1 9077   4.066   9.596   7.043
 2945WAT     H2 9078   4.220   9.623   7.088
 2946WAT      O 9079   2.711   3.404   2.565
 2946WAT     H1 9080   2.755   3.342   2.500
 2946WAT     H2 9081   2.670   3.481   2.515
 2947WAT      O 9082   3.095   6.694   9.275
 2947WAT     H1 9083   3.084   6.601   9.310
 2947WAT     H2 9084   3.191   6.720   9.278
 2948WAT      O 9085   8.461   4.737   8.920
 2948WAT     H1 9086   8.498   4.829   8.928
 2948WAT     H2 9087   8.428   4.722   8.827
 2949WAT      O 9088   9.270   1.743   3.625
 2949WAT     H1 9089   9.340   1.679   3.593
 2949WAT     H2 9090   9.272   1.747   3.725
 2950WAT      O 9091   3.132   9.436   2.552
 2950WAT     H1 9092   3.112   9.532   2.536
 2950WAT     H2 9093   3.220   9.413   2.512
 2951WAT      O 9094   6.798   5.851   7.400
 2951WAT     H1 9095   6.888   5.816   7.373
 2951WAT     H2 9096   6.728   5.783   7.379
 2952WAT      O 9097   7.639   2.839   4.080
 2952WAT     H1 9098   7.576   2.848   4.003
 2952WAT     H2 9099   7.708   2.912   4.076
 2953WAT      O 9100   0.417   6.590   9.369
 2953WAT     H1 9101   0.515   6.584   9.386
 2953WAT     H2 9102   0.394   6.538   9.286
 2954WAT      O 9103   1.182   6.372   4.814
 2954WAT     H1 9104   1.252   6.443   4.808
 2954WAT     H2 9105   1.111   6.401   4.879
 2955WAT      O 9106   1.196   1.587   4.371
 2955WAT     H1 9107   1.165   1.494   4.390
 2955WAT     H2 9108   1.151   1.621   4.289
 2956WAT      O 9109   3.356   3.637   4.190
 2956WAT     H1 9110   3.302   3.557   4.164
 2956WAT     H2 9111   3.302   3.720   4.177
 2957WAT      O 9112   4.819   1.942   4.643
 2957WAT     H1 9113   4.768   1.879   4.701
 2957WAT     H2 9114   4.840   1.897   4.556
 2958WAT      O 9115   9.465   9.667   8.420
 2958WAT     H1 9116   9.442   9.666   8.518
 2958WAT     H2 9117   9.487   9.574   8.391
 2959WAT      O 9118   4.910   5.662   8.643
 2959WAT     H1 9119   4.823   5.637   8.686
 2959WAT     H2 9120   4.984   5.608   8.682
 2960WAT      O 9121   9.367   4.625   6.034
 2960WAT     H1 9122   9.424   4.653   5.956
 2960WAT     H2 9123   9.293   4.691   6.046
 2961WAT      O 9124   0.698   4.004   2.433
 2961WAT     H1 9125   0.603   3.972   2.429
 2961WAT     H2 9126   0.719   4.059   2.352
 2962WAT      O 9127   8.817   1.767   1.569
 2962WAT     H1 9128   8.889   1.798   1.631
 2962WAT     H2 9129   8.858   1.735   1.484
 2963WAT      O 9130   4.280   5.178   6.217
 2963WAT     H1 9131   4.331   5.200   6.301
 2963WAT     H2 9132   4.331   5.211   6.138
 2964WAT      O 9133   6.503   5.429   9.517
 2964WAT     H1 9134   6.592   5.399   9.484
 2964WAT     H2 9135   6.435   5.359   9.499
 2965WAT      O 9136   0.411   4.870   1.249
 2965WAT     H1 9137   0.415   4.876   1.349
 2965WAT     H2 9138   0.491   4.915   1.210
 2966WAT      O 9139   1.429   5.808   4.346
 2966WAT     H1 9140   1.513   5.820   4.294
 2966WAT     H2 9141   1.351   5.804   4.283
 2967WAT      O 9142   3.339   2.534   8.225
 2967WAT     H1 9143   3.422   2.491   8.261
 2967WAT     H2 9144   3.259   2.481   8.255
 2968WAT      O 9145   9.225   6.275   6.271
 2968WAT     H1 9146   9.323   6.283   6.291
 2968WAT     H2 9147   9.172   6.320   6.343
 2969WAT      O 9148   9.108   2.806   3.264
 2969WAT     H1 9149   9.041   2.847   3.327
 2969WAT     H2 9150   9.156   2.732   3.310
 2970WAT      O 9151   5.213   1.557   4.957
 2970WAT     H1 9152   5.180   1.534   5.048
 2970WAT     H2 9153   5.146   1.615   4.911
 2971WAT      O 9154   5.071   3.121   8.555
 2971WAT     H1 9155   5.121   3.201   8.521
 2971WAT     H2 9156   5.076   3.047   8.488
 2972WAT      O 9157   8.434   6.560   8.116
 2972WAT     H1 9158   8.449   6.657   8.136
 2972WAT     H2 9159   8.430   6.546   8.017
 2973WAT      O 9160   7.952   2.564   6.206
 2973WAT     H1 9161   7.908   2.556   6.117
 2973WAT     H2 9162   8.025   2.632   6.202
 2974WAT      O 9163   4.972   1.446   4.209
 2974WAT     H1 9164   4.988   1.496   4.124
 2974WAT     H2 9165   4.968   1.348   4.191
 2975WAT      O 9166   9.013   8.259   6.891
 2975WAT     H1 9167   8.921   8.291   6.869
 2975WAT     H2 9168   9.042   8.192   6.823
 2976WAT      O 9169   1.414   0.262   3.739
 2976WAT     H1 9170   1.477   0.339   3.741
 2976WAT     H2 9171   1.464   0.178   3.761
 2977WAT      O 9172   0.608   0.127   4.374
 2977WAT     H1 9173   0.588   0.042   4.326
 2977WAT     H2 9174   0.659   0.188   4.313
 2978WAT      O 9175   2.982   2.015   3.118
 2978WAT     H1 9176   2.978   2.012   3.018
 2978WAT     H2 9177   2.985   2.111   3.148
 2979WAT      O 9178   4.566   2.412   2.125
 2979WAT     H1 9179   4.473   2.377   2.117
 2979WAT     H2 9180   4.563   2.508   2.153
 2980WAT      O 9181   6.569   7.354   7.977
 2980WAT     H1 9182   6.601   7.448   7.990
 2980WAT     H2 9183   6.636   7.290   8.015
 2981WAT      O 9184   1.138   8.907   5.352
 2981WAT     H1 9185   1.106   8.903   5.447
 2981WAT     H2 9186   1.063   8.934   5.292
 2982WAT      O 9187   4.112   6.316   3.541
 2982WAT     H1 9188   4.024   6.301   3.587
 2982WAT     H2 9189   4.167   6.380   3.595
 2983WAT      O 9190   6.512   0.241   5.754
 2983WAT     H1 9191   6.611   0.231   5.753
 2983WAT     H2 9192   6.484   0.310   5.687
 2984WAT      O 9193   5.320   7.237   1.344
 2984WAT     H1 9194   5.406   7.282   1.319
 2984WAT     H2 9195   5.248   7.306   1.353
 2985WAT      O 9196   5.450   6.187   5.725
 2985WAT     H1 9197   5.358   6.188   5.684
 2985WAT     H2 9198   5.458   6.264   5.789
 2986WAT      O 9199   4.725   2.814   6.305
 2986WAT     H1 9200   4.741   2.876   6.229
 2986WAT     H2 9201   4.695   2.866   6.385
 2987WAT      O 9202   5.409   1.493   8.931
 2987WAT     H1 9203   5.405   1.566   8.863
 2987WAT     H2 9204   5.505   1.476   8.956
 2988WAT      O 9205   1.226   1.123   3.153
 2988WAT     H1 9206   1.268   1.209   3.123
 2988WAT     H2 9207   1.263   1.097   3.242
 2989WAT      O 9208   2.983   2.651   7.489
 2989WAT     H1 9209   3.037   2.576   7.527
 2989WAT     H2 9210   3.042   2.709   7.433
 2990WAT      O 9211   0.725   2.177   7.648
 2990WAT     H1 9212   0.811   2.159   7.600
 2990WAT     H2 9213   0.734   2.148   7.743
 2991WAT      O 9214   9.841   1.374   8.293
 2991WAT     H1 9215   9.764   1.375   8.356
 2991WAT     H2 9216   9.885   1.464   8.293
 2992WAT      O 9217   1.450   7.301   8.046
 2992WAT     H1 9218   1.509   7.383   8.045
 2992WAT     H2 9219   1.359   7.326   8.078
 2993WAT      O 9220   9.045   3.960   3.966
 2993WAT     H1 9221   8.948   3.978   3.947
 2993WAT     H2 9222   9.071   4.006   4.050
 2994WAT      O 9223   5.069   7.110   9.713
 2994WAT     H1 9224   5.040   7.176   9.643
 2994WAT     H2 9225   4.991   7.088   9.772
 2995WAT      O 9226   0.953   2.554   7.856
 2995WAT     H1 9227   0.855   2.566   7.836
 2995WAT     H2 9228   0.966   2.548   7.955
 2996WAT      O 9229   0.231   0.576   6.773
 2996WAT     H1 9230   0.146   0.537   6.808
 2996WAT     H2 9231   0.307   0.550   6.832
 2997WAT      O 9232   2.067   3.776   4.238
 2997WAT     H1 9233   2.086   3.874   4.232
 2997WAT     H2 9234   2.150   3.724   4.220
 2998WAT      O 9235   2.250   9.393   8.058
 2998WAT     H1 9236   2.228   9.296   8.058
 2998WAT     H2 9237   2.291   9.419   7.971
 2999WAT      O 9238   0.865   6.806   7.678
 2999WAT     H1 9239   0.850   6.822   7.580
 2999WAT     H2 9240   0.959   6.833   7.702
 3000WAT      O 9241   2.231   8.426   0.419
 3000WAT     H1 9242   2.205   8.500   0.482
 3000WAT     H2 9243   2.152   8.365   0.406
 3001WAT      O 9244   9.777   5.745   3.434
 3001WAT     H1 9245   9.730   5.731   3.521
 3001WAT     H2 9246   9.769   5.663   3.378
 3002WAT      O 9247   8.398   2.187   2.475
 3002WAT     H1 9248   8.358   2.270   2.514
 3002WAT     H2 9249   8.360   2.173   2.383
 3003WAT      O 9250   7.252   8.057   2.636
 3003WAT     H1 9251   7.346   8.072   2.665
 3003WAT     H2 9252   7.250   7.989   2.563
 3004WAT      O 9253   2.430   3.042   2.338
 3004WAT     H1 9254   2.425   3.132   2.382
 3004WAT     H2 9255   2.501   3.044   2.268
 3005WAT      O 9256   7.312   3.052   6.189
 3005WAT     H1 9257   7.280   3.071   6.282
 3005WAT     H2 9258   7.249   3.094   6.124
 3006WAT      O 9259   8.912   7.540   9.455
 3006WAT     H1 9260   8.887   7.551   9.551
 3006WAT     H2 9261   8.830   7.532   9.399
 3007WAT      O 9262   9.469   6.451   3.391
 3007WAT     H1 9263   9.506   6.415   3.305
 3007WAT     H2 9264   9.435   6.375   3.447
 3008WAT      O 9265   1.536   8.740   1.105
 3008WAT     H1 9266   1.489   8.725   1.192
 3008WAT     H2 9267   1.527   8.658   1.048
 3009WAT      O 9268   2.286   2.422   6.050
 3009WAT     H1 9269   2.278   2.395   5.954
 3009WAT     H2 9270   2.226   2.363   6.105
 3010WAT      O 9271   2.710   0.781   9.854
 3010WAT     H1 9272   2.748   0.733   9.933
 3010WAT     H2 9273   2.618   0.746   9.836
 3011WAT      O 9274   2.915   0.823   4.641
 3011WAT     H1 9275   2.936   0.846   4.546
 3011WAT     H2 9276   2.960   0.737   4.665
 3012WAT      O 9277   1.897   9.327   1.575
 3012WAT     H1 9278   1.858   9.237   1.553
 3012WAT     H2 9279   1.963   9.317   1.649
 3013WAT      O 9280   7.641   5.172   2.858
 3013WAT     H1 9281   7.726   5.206   2.899
 3013WAT     H2 9282   7.658   5.084   2.814
 3014WAT      O 9283   1.850   6.688   2.641
 3014WAT     H1 9284   1.806   6.598   2.636
 3014WAT     H2 9285   1.874   6.719   2.550
 3015WAT      O 9286   1.044   5.623   9.796
 3015WAT     H1 9287   1.027   5.553   9.727
 3015WAT     H2 9288   1.111   5.689   9.762
 3016WAT      O 9289   0.746   5.264   2.274
 3016WAT     H1 9290   0.658   5.309   2.288
 3016WAT     H2 9291   0.812   5.295   2.343
 3017WAT      O 9292   5.480   2.336   4.741
 3017WAT     H1 9293   5.488   2.362   4.645
 3017WAT     H2 9294   5.555   2.378   4.793
 3018WAT      O 9295   8.624   2.317   0.574
 3018WAT     H1 9296   8.631   2.389   0.642
 3018WAT     H2 9297   8.703   2.321   0.513
 3019WAT      O 9298   1.781   9.290   3.515
 3019WAT     H1 9299   1.768   9.195   3.542
 3019WAT     H2 9300   1.742   9.350   3.584
 3020WAT      O 9301   9.392   0.871   6.315
 3020WAT     H1 9302   9.476   0.918   6.343
 3020WAT     H2 9303   9.414   0.800   6.249
 3021WAT      O 9304   7.887   2.969   3.308
 3021WAT     H1 9305   7.822   2.942   3.380
 3021WAT     H2 9306   7.972   3.000   3.350
 3022WAT      O 9307   6.008   2.764   7.768
 3022WAT     H1 9308   5.962   2.770   7.857
 3022WAT     H2 9309   5.948   2.720   7.702
 3023WAT      O 9310   3.292   2.235   5.073
 3023WAT     H1 9311   3.318   2.248   5.169
 3023WAT     H2 9312   3.206   2.284   5.055
 3024WAT      O 9313   6.159   1.635   9.268
 3024WAT     H1 9314   6.180   1.614   9.363
 3024WAT     H2 9315   6.073   1.685   9.263
 3025WAT      O 9316   5.932   2.596   5.924
 3025WAT     H1 9317   5.917   2.688   5.888
 3025WAT     H2 9318   5.880   2.584   6.008
 3026WAT      O 9319   2.875   4.886   2.020
 3026WAT     H1 9320   2.958   4.837   1.991
 3026WAT     H2 9321   2.889   4.925   2.111
 3027WAT      O 9322   1.462   4.076   6.253
 3027WAT     H1 9323   1.504   3.987   6.235
 3027WAT     H2 9324   1.380   4.087   6.197
 3028WAT      O 9325   2.845   8.427   0.555
 3028WAT     H1 9326   2.830   8.478   0.471
 3028WAT     H2 9327   2.881   8.336   0.533
 3029WAT      O 9328   4.690   8.121   1.173
 3029WAT     H1 9329   4.761   8.075   1.227
 3029WAT     H2 9330   4.701   8.220   1.182
 3030WAT      O 9331   5.710   1.888   2.553
 3030WAT     H1 9332   5.781   1.905   2.485
 3030WAT     H2 9333   5.620   1.906   2.513
 3031WAT      O 9334   0.322   6.412   6.774
 3031WAT     H1 9335   0.292   6.326   6.735
 3031WAT     H2 9336   0.255   6.484   6.754
 3032WAT      O 9337   2.342   7.150   0.717
 3032WAT     H1 9338   2.300   7.116   0.801
 3032WAT     H2 9339   2.322   7.087   0.642
 3033WAT      O 9340   5.343   0.009   5.958
 3033WAT     H1 9341   5.437   0.039   5.945
 3033WAT     H2 9342   5.290   0.084   5.999
 3034WAT      O 9343   9.107   7.548   7.136
 3034WAT     H1 9344   9.070   7.531   7.045
 3034WAT     H2 9345   9.131   7.644   7.146
 3035WAT      O 9346   9.756   5.687   8.163
 3035WAT     H1 9347   9.774   5.646   8.074
 3035WAT     H2 9348   9.799   5.631   8.234
 3036WAT      O 9349   4.454   2.412   6.360
 3036WAT     H1 9350   4.473   2.510   6.352
 3036WAT     H2 9351   4.531   2.361   6.322
 3037WAT      O 9352   3.321   2.946   7.932
 3037WAT     H1 9353   3.376   2.989   8.004
 3037WAT     H2 9354   3.229   2.930   7.965
 3038WAT      O 9355   7.104   6.795   1.436
 3038WAT     H1 9356   7.101   6.877   1.494
 3038WAT     H2 9357   7.067   6.816   1.346
 3039WAT      O 9358   1.401   8.979   9.867
 3039WAT     H1 9359   1.384   8.883   9.889
 3039WAT     H2 9360   1.373   8.996   9.772
 3040WAT      O 9361   3.402   9.661   4.298
 3040WAT     H1 9362   3.394   9.579   4.241
 3040WAT     H2 9363   3.424   9.740   4.241
 3041WAT      O 9364   5.400   9.600   1.984
 3041WAT     H1 9365   5.307   9.579   1.954
 3041WAT     H2 9366   5.444   9.661   1.917
 3042WAT      O 9367   9.369   4.142   7.126
 3042WAT     H1 9368   9.432   4.084   7.075
 3042WAT     H2 9369   9.408   4.233   7.137
 3043WAT      O 9370   8.428   9.660   1.068
 3043WAT     H1 9371   8.429   9.688   1.164
 3043WAT     H2 9372   8.424   9.561   1.062
 3044WAT      O 9373   1.366   9.121   3.950
 3044WAT     H1 9374   1.384   9.082   4.041
 3044WAT     H2 9375   1.300   9.196   3.959
 3045WAT      O 9376   1.052   3.047   9.118
 3045WAT     H1 9377   1.014   3.110   9.049
 3045WAT     H2 9378   0.978   2.991   9.156
 3046WAT      O 9379   4.248   2.612   6.802
 3046WAT     H1 9380   4.176   2.544   6.789
 3046WAT     H2 9381   4.294   2.630   6.714
 3047WAT      O 9382   0.755   6.542   1.060
 3047WAT     H1 9383   0.801   6.631   1.057
 3047WAT     H2 9384   0.823   6.469   1.048
 3048WAT      O 9385   8.662   9.576   3.542
 3048WAT     H1 9386   8.667   9.504   3.611
 3048WAT     H2 9387   8.594   9.551   3.473
 3049WAT      O 9388   8.773   2.100   7.160
 3049WAT     H1 9389   8.683   2.065   7.187
 3049WAT     H2 9390   8.842   2.029   7.176
 3050WAT      O 9391   4.029   5.410   5.759
 3050WAT     H1 9392   4.027   5.469   5.679
 3050WAT     H2 9393   4.049   5.316   5.732
 3051WAT      O 9394   9.407   9.195   3.232
 3051WAT     H1 9395   9.360   9.207   3.319
 3051WAT     H2 9396   9.444   9.102   3.226
 3052WAT      O 9397   1.435   1.038   4.047
 3052WAT     H1 9398   1.348   1.073   4.010
 3052WAT     H2 9399   1.487   0.995   3.973
 3053WAT      O 9400   3.118   4.689   9.795
 3053WAT     H1 9401   3.152   4.748   9.722
 3053WAT     H2 9402   3.180   4.693   9.874
 3054WAT      O 9403   9.131   8.196   0.598
 3054WAT     H1 9404   9.064   8.217   0.527
 3054WAT     H2 9405   9.135   8.097   0.611
 3055WAT      O 9406   1.555   4.043   7.888
 3055WAT     H1 9407   1.479   4.078   7.833
 3055WAT     H2 9408   1.642   4.075   7.849
 3056WAT      O 9409   6.211   3.134   6.790
 3056WAT     H1 9410   6.129   3.182   6.760
 3056WAT     H2 9411   6.229   3.057   6.728
 3057WAT      O 9412   5.348   5.405   1.198
 3057WAT     H1 9413   5.291   5.487   1.208
 3057WAT     H2 9414   5.443   5.433   1.185
 3058WAT      O 9415   9.355   8.099   8.670
 3058WAT     H1 9416   9.392   8.108   8.577
 3058WAT     H2 9417   9.298   8.178   8.691
 3059WAT      O 9418   5.371   7.529   1.611
 3059WAT     H1 9419   5.381   7.515   1.513
 3059WAT     H2 9420   5.290   7.586   1.629
 3060WAT      O 9421   4.042   8.291   7.083
 3060WAT     H1 9422   4.131   8.280   7.127
 3060WAT     H2 9423   3.973   8.315   7.151
 3061WAT      O 9424   2.567   5.165   8.602
 3061WAT     H1 9425   2.552   5.178   8.504
 3061WAT     H2 9426   2.484   5.192   8.651
 3062WAT      O 9427   5.214   1.121   5.562
 3062WAT     H1 9428   5.259   1.148   5.476
 3062WAT     H2 9429   5.270   1.052   5.608
 3063WAT      O 9430   2.289   9.789   2.240
 3063WAT     H1 9431   2.197   9.795   2.201
 3063WAT     H2 9432   2.337   9.711   2.201
 3064WAT      O 9433   8.014   0.796   5.671
 3064WAT     H1 9434   7.951   0.729   5.709
 3064WAT     H2 9435   7.977   0.832   5.585
 3065WAT      O 9436   7.740   1.577   8.025
 3065WAT     H1 9437   7.727   1.655   8.086
 3065WAT     H2 9438   7.688   1.591   7.941
 3066WAT      O 9439   2.526   2.180   6.104
 3066WAT     H1 9440   2.584   2.234   6.166
 3066WAT     H2 9441   2.577   2.163   6.020
 3067WAT      O 9442   1.317   8.376   7.516
 3067WAT     H1 9443   1.311   8.335   7.425
 3067WAT     H2 9444   1.349   8.308   7.582
 3068WAT      O 9445   0.142   6.557   1.347
 3068WAT     H1 9446   0.144   6.598   1.439
 3068WAT     H2 9447   0.047   6.537   1.323
 3069WAT      O 9448   2.134   7.140   5.062
 3069WAT     H1 9449   2.095   7.131   5.153
 3069WAT     H2 9450   2.122   7.054   5.012
 3070WAT      O 9451   6.617   6.919   1.647
 3070WAT     H1 9452   6.530   6.928   1.695
 3070WAT     H2 9453   6.648   6.824   1.650
 3071WAT      O 9454   5.338   7.708   1.375
 3071WAT     H1 9455   5.300   7.740   1.462
 3071WAT     H2 9456   5.354   7.787   1.316
 3072WAT      O 9457   8.940   1.021   3.560
 3072WAT     H1 9458   8.911   0.927   3.542
 3072WAT     H2 9459   8.981   1.026   3.651
 3073WAT      O 9460   6.356   4.021   8.516
 3073WAT     H1 9461   6.258   4.013   8.498
 3073WAT     H2 9462   6.371   4.028   8.615
 3074WAT      O 9463   8.186   3.482   5.570
 3074WAT     H1 9464   8.193   3.580   5.551
 3074WAT     H2 9465   8.275   3.439   5.558
 3075WAT      O 9466   1.158   6.850   6.730
 3075WAT     H1 9467   1.158   6.764   6.679
 3075WAT     H2 9468   1.201   6.836   6.819
 3076WAT      O 9469   4.498   6.307   2.018
 3076WAT     H1 9470   4.469   6.295   2.113
 3076WAT     H2 9471   4.500   6.219   1.972
 3077WAT      O 9472   9.862   0.946   8.955
 3077WAT     H1 9473   9.913   0.973   9.036
 3077WAT     H2 9474   9.924   0.942   8.876
 3078WAT      O 9475   1.217   0.729   3.006
 3078WAT     H1 9476   1.219   0.629   3.000
 3078WAT     H2 9477   1.160   0.756   3.084
 3079WAT      O 9478   7.498   5.646   2.911
 3079WAT     H1 9479   7.457   5.616   2.824
 3079WAT     H2 9480   7.499   5.570   2.975
 3080WAT      O 9481   6.969   6.499   7.057
 3080WAT     H1 9482   6.882   6.510   7.007
 3080WAT     H2 9483   6.980   6.404   7.083
 3081WAT      O 9484   0.041   2.604   7.688
 3081WAT     H1 9485  -0.049   2.628   7.650
 3081WAT     H2 9486   0.085   2.687   7.724
 3082WAT      O 9487   4.911   7.446   5.001
 3082WAT     H1 9488   4.829   7.478   4.953
 3082WAT     H2 9489   4.933   7.511   5.073
 3083WAT      O 9490   0.154   2.456   7.503
 3083WAT     H1 9491   0.128   2.515   7.427
 3083WAT     H2 9492   0.109   2.488   7.586
 3084WAT      O 9493   6.977   3.716   2.516
 3084WAT     H1 9494   7.064   3.761   2.495
 3084WAT     H2 9495   6.902   3.779   2.501
 3085WAT      O 9496   5.352   1.197   3.221
 3085WAT     H1 9497   5.288   1.268   3.250
 3085WAT     H2 9498   5.430   1.195   3.283
 3086WAT      O 9499   0.690   9.511   4.733
 3086WAT     H1 9500   0.722   9.472   4.819
 3086WAT     H2 9501   0.665   9.607   4.748
 3087WAT      O 9502   7.509   7.218   0.548
 3087WAT     H1 9503   7.539   7.207   0.453
 3087WAT     H2 9504   7.411   7.240   0.549
 3088WAT      O 9505   1.085   6.766   9.440
 3088WAT     H1 9506   1.092   6.680   9.389
 3088WAT     H2 9507   1.000   6.768   9.491
 3089WAT      O 9508   2.373   7.063   3.558
 3089WAT     H1 9509   2.415   7.079   3.647
 3089WAT     H2 9510   2.406   7.131   3.493
 3090WAT      O 9511   4.145   7.711   6.721
 3090WAT     H1 9512   4.245   7.709   6.724
 3090WAT     H2 9513   4.114   7.790   6.668
 3091WAT      O 9514   4.692   7.037   5.827
 3091WAT     H1 9515   4.786   7.008   5.807
 3091WAT     H2 9516   4.690   7.082   5.916
 3092WAT      O 9517   8.025   9.735   5.167
 3092WAT     H1 9518   8.109   9.758   5.216
 3092WAT     H2 9519   7.950   9.724   5.233
 3093WAT      O 9520   0.154   8.321   8.524
 3093WAT     H1 9521   0.104   8.235   8.531
 3093WAT     H2 9522   0.250   8.303   8.503
 3094WAT      O 9523   7.164   9.687   2.540
 3094WAT     H1 9524   7.123   9.775   2.562
 3094WAT     H2 9525   7.160   9.627   2.620
 3095WAT      O 9526   9.779   1.877   5.532
 3095WAT     H1 9527   9.726   1.812   5.478
 3095WAT     H2 9528   9.835   1.932   5.470
 3096WAT      O 9529   0.506   4.399   2.502
 3096WAT     H1 9530   0.485   4.332   2.573
 3096WAT     H2 9531   0.567   4.470   2.539
 3097WAT      O 9532   2.838   8.080   8.602
 3097WAT     H1 9533   2.887   8.104   8.518
 3097WAT     H2 9534   2.900   8.035   8.666
 3098WAT      O 9535   1.490   9.472   4.445
 3098WAT     H1 9536   1.470   9.570   4.439
 3098WAT     H2 9537   1.412   9.425   4.486
 3099WAT      O 9538   7.593   3.374   7.987
 3099WAT     H1 9539   7.612   3.464   7.949
 3099WAT     H2 9540   7.511   3.379   8.045
 3100WAT      O 9541   0.671   2.254   1.947
 3100WAT     H1 9542   0.709   2.167   1.917
 3100WAT     H2 9543   0.574   2.241   1.971
 3101WAT      O 9544   1.246   2.018   7.996
 3101WAT     H1 9545   1.188   1.976   7.927
 3101WAT     H2 9546   1.205   2.007   8.086
 3102WAT      O 9547   4.420   8.673   4.282
 3102WAT     H1 9548   4.352   8.717   4.341
 3102WAT     H2 9549   4.410   8.707   4.189
 3103WAT      O 9550   5.668   4.822   2.938
 3103WAT     H1 9551   5.744   4.843   2.999
 3103WAT     H2 9552   5.589   4.792   2.992
 3104WAT      O 9553   8.954   4.418   8.078
 3104WAT     H1 9554   8.988   4.373   7.995
 3104WAT     H2 9555   8.975   4.516   8.074
 3105WAT      O 9556   9.807   6.058   1.997
 3105WAT     H1 9557   9.759   6.099   1.920
 3105WAT     H2 9558   9.863   6.128   2.042
 3106WAT      O 9559   2.126   7.553   3.009
 3106WAT     H1 9560   2.031   7.574   3.032
 3106WAT     H2 9561   2.183   7.562   3.090
 3107WAT      O 9562   7.136   6.726   5.540
 3107WAT     H1 9563   7.173   6.635   5.562
 3107WAT     H2 9564   7.139   6.783   5.622
 3108WAT      O 9565   4.166   5.451   3.016
 3108WAT     H1 9566   4.108   5.416   2.943
 3108WAT     H2 9567   4.220   5.528   2.983
 3109WAT      O 9568   6.831   3.248   2.007
 3109WAT     H1 9569   6.778   3.180   1.956
 3109WAT     H2 9570   6.834   3.334   1.955
 3110WAT      O 9571   9.050   2.444   0.458
 3110WAT     H1 9572   9.087   2.443   0.365
 3110WAT     H2 9573   9.109   2.500   0.517
 3111WAT      O 9574   1.653   0.212   8.424
 3111WAT     H1 9575   1.687   0.127   8.466
 3111WAT     H2 9576   1.709   0.289   8.456
 3112WAT      O 9577   2.774   9.386   5.894
 3112WAT     H1 9578   2.745   9.421   5.984
 3112WAT     H2 9579   2.845   9.446   5.857
 3113WAT      O 9580   1.511   9.775   3.012
 3113WAT     H1 9581   1.526   9.730   2.924
 3113WAT     H2 9582   1.599   9.786   3.059
 3114WAT      O 9583   0.791   5.780   9.599
 3114WAT     H1 9584   0.735   5.802   9.519
 3114WAT     H2 9585   0.793   5.680   9.612
 3115WAT      O 9586   5.577   2.408   2.813
 3115WAT     H1 9587   5.567   2.388   2.911
 3115WAT     H2 9588   5.583   2.322   2.763
 3116WAT      O 9589   0.027   8.294   3.026
 3116WAT     H1 9590   0.041   8.389   2.998
 3116WAT     H2 9591  -0.070   8.278   3.044
 3117WAT      O 9592   2.551   7.931   1.164
 3117WAT     H1 9593   2.598   8.000   1.219
 3117WAT     H2 9594   2.480   7.974   1.109
 3118WAT      O 9595   6.819   3.817   8.021
 3118WAT     H1 9596   6.880   3.839   7.945
 3118WAT     H2 9597   6.811   3.897   8.082
 3119WAT      O 9598   2.261   5.385   4.401
 3119WAT     H1 9599   2.273   5.350   4.494
 3119WAT     H2 9600   2.284   5.483   4.400
 3120WAT      O 9601   7.976   4.798   2.050
 3120WAT     H1 9602   8.061   4.847   2.032
 3120WAT     H2 9603   7.898   4.856   2.024
 3121WAT      O 9604   6.723   8.397   1.811
 3121WAT     H1 9605   6.758   8.453   1.736
 3121WAT     H2 9606   6.790   8.325   1.832
 3122WAT      O 9607   5.332   3.320   4.793
 3122WAT     H1 9608   5.428   3.294   4.778
 3122WAT     H2 9609   5.306   3.300   4.887
 3123WAT      O 9610   7.361   5.999   1.925
 3123WAT     H1 9611   7.273   6.000   1.877
 3123WAT     H2 9612   7.427   5.945   1.873
 3124WAT      O 9613   9.508   7.767   9.624
 3124WAT     H1 9614   9.426   7.785   9.568
 3124WAT     H2 9615   9.504   7.673   9.659
 3125WAT      O 9616   4.332   8.978   4.812
 3125WAT     H1 9617   4.350   8.880   4.824
 3125WAT     H2 9618   4.409   9.030   4.847
 3126WAT      O 9619   7.776   4.168   4.507
 3126WAT     H1 9620   7.723   4.101   4.560
 3126WAT     H2 9621   7.873   4.160   4.531
 3127WAT      O 9622   8.744   8.646   4.127
 3127WAT     H1 9623   8.814   8.672   4.061
 3127WAT     H2 9624   8.655   8.640   4.081
 3128WAT      O 9625   0.391   6.805   5.845
 3128WAT     H1 9626   0.367   6.899   5.869
 3128WAT     H2 9627   0.332   6.741   5.896
 3129WAT      O 9628   3.776   9.250   3.887
 3129WAT     H1 9629   3.775   9.230   3.789
 3129WAT     H2 9630   3.705   9.196   3.933
 3130WAT      O 9631   6.553   7.507   1.549
 3130WAT     H1 9632   6.583   7.513   1.453
 3130WAT     H2 9633   6.493   7.584   1.570
 3131WAT      O 9634   7.116   7.664   8.249
 3131WAT     H1 9635   7.045   7.704   8.306
 3131WAT     H2 9636   7.105   7.564   8.248
 3132WAT      O 9637   0.982   8.520   6.633
 3132WAT     H1 9638   0.970   8.583   6.709
 3132WAT     H2 9639   0.896   8.514   6.581
 3133WAT      O 9640   1.423   2.048   4.413
 3133WAT     H1 9641   1.496   2.019   4.351
 3133WAT     H2 9642   1.337   2.004   4.387
 3134WAT      O 9643   2.390   6.211   2.631
 3134WAT     H1 9644   2.356   6.280   2.695
 3134WAT     H2 9645   2.339   6.218   2.545
 3135WAT      O 9646   1.163   0.004   4.513
 3135WAT     H1 9647   1.220  -0.003   4.431
 3135WAT     H2 9648   1.218   0.041   4.588
 3136WAT      O 9649   4.518   7.202   8.248
 3136WAT     H1 9650   4.432   7.225   8.203
 3136WAT     H2 9651   4.500   7.168   8.340
 3137WAT      O 9652   1.973   5.173   2.550
 3137WAT     H1 9653   2.011   5.155   2.459
 3137WAT     H2 9654   2.028   5.128   2.619
 3138WAT      O 9655   2.348   1.761   7.204
 3138WAT     H1 9656   2.405   1.712   7.138
 3138WAT     H2 9657   2.254   1.765   7.172
 3139WAT      O 9658   0.786   9.668   5.443
 3139WAT     H1 9659   0.763   9.729   5.367
 3139WAT     H2 9660   0.831   9.586   5.407
 3140WAT      O 9661   0.283   5.908   8.283
 3140WAT     H1 9662   0.250   5.822   8.245
 3140WAT     H2 9663   0.355   5.945   8.225
 3141WAT      O 9664   9.057   5.139   6.541
 3141WAT     H1 9665   9.091   5.218   6.490
 3141WAT     H2 9666   9.121   5.063   6.531
 3142WAT      O 9667   7.154   6.249   7.343
 3142WAT     H1 9668   7.216   6.328   7.334
 3142WAT     H2 9669   7.061   6.282   7.358
 3143WAT      O 9670   0.012   7.858   5.133
 3143WAT     H1 9671   0.059   7.920   5.195
 3143WAT     H2 9672  -0.061   7.907   5.085
 3144WAT      O 9673   3.057   1.923   8.262
 3144WAT     H1 9674   3.031   2.006   8.213
 3144WAT     H2 9675   2.975   1.881   8.302
 3145WAT      O 9676   7.744   1.646   9.202
 3145WAT     H1 9677   7.748   1.709   9.125
 3145WAT     H2 9678   7.808   1.571   9.187
 3146WAT      O 9679   6.663   9.164   6.522
 3146WAT     H1 9680   6.650   9.113   6.437
 3146WAT     H2 9681   6.719   9.110   6.585
 3147WAT      O 9682   2.209   6.082   8.371
 3147WAT     H1 9683   2.168   6.164   8.410
 3147WAT     H2 9684   2.218   6.012   8.442
 3148WAT      O 9685   4.529   8.238   7.733
 3148WAT     H1 9686   4.481   8.168   7.681
 3148WAT     H2 9687   4.467   8.278   7.801
 3149WAT      O 9688   9.589   2.824   1.424
 3149WAT     H1 9689   9.553   2.731   1.434
 3149WAT     H2 9690   9.678   2.830   1.470
 3150WAT      O 9691   1.802   9.249   6.109
 3150WAT     H1 9692   1.773   9.197   6.190
 3150WAT     H2 9693   1.787   9.193   6.027
 3151WAT      O 9694   6.171   1.075   7.716
 3151WAT     H1 9695   6.140   1.104   7.626
 3151WAT     H2 9696   6.108   1.109   7.786
 3152WAT      O 9697   3.934   9.819   3.886
 3152WAT     H1 9698   3.943   9.720   3.871
 3152WAT     H2 9699   3.973   9.868   3.808
 3153WAT      O 9700   6.787   5.984   6.195
 3153WAT     H1 9701   6.804   6.045   6.118
 3153WAT     H2 9702   6.742   6.035   6.269
 3154WAT      O 9703   6.523   8.611   9.031
 3154WAT     H1 9704   6.438   8.664   9.029
 3154WAT     H2 9705   6.502   8.513   9.031
 3155WAT      O 9706   3.793   1.005   2.997
 3155WAT     H1 9707   3.696   0.991   3.021
 3155WAT     H2 9708   3.832   1.076   3.056
 3156WAT      O 9709   4.083   2.403   6.779
 3156WAT     H1 9710   4.117   2.353   6.858
 3156WAT     H2 9711   4.046   2.338   6.712
 3157WAT      O 9712   9.154   6.502   2.296
 3157WAT     H1 9713   9.106   6.512   2.383
 3157WAT     H2 9714   9.140   6.410   2.261
 3158WAT      O 9715   2.855   6.802   8.561
 3158WAT     H1 9716   2.867   6.803   8.461
 3158WAT     H2 9717   2.918   6.867   8.603
 3159WAT      O 9718   8.397   0.624   7.528
 3159WAT     H1 9719   8.469   0.566   7.566
 3159WAT     H2 9720   8.323   0.566   7.493
 3160WAT      O 9721   5.951   8.314   9.646
 3160WAT     H1 9722   5.895   8.387   9.608
 3160WAT     H2 9723   5.997   8.264   9.573
 3161WAT      O 9724   1.595   3.571   9.135
 3161WAT     H1 9725   1.499   3.559   9.107
 3161WAT     H2 9726   1.611   3.667   9.158
 3162WAT      O 9727   1.722   4.959   6.246
 3162WAT     H1 9728   1.652   4.943   6.177
 3162WAT     H2 9729   1.679   4.988   6.332
 3163WAT      O 9730   4.431   8.444   5.106
 3163WAT     H1 9731   4.342   8.478   5.138
 3163WAT     H2 9732   4.445   8.351   5.140
 3164WAT      O 9733   9.481   7.034   5.641
 3164WAT     H1 9734   9.570   7.079   5.632
 3164WAT     H2 9735   9.444   7.016   5.550
 3165WAT      O 9736   0.436   1.027   6.541
 3165WAT     H1 9737   0.504   1.099   6.526
 3165WAT     H2 9738   0.382   1.049   6.623
 3166WAT      O 9739   8.334   6.264   9.426
 3166WAT     H1 9740   8.320   6.346   9.371
 3166WAT     H2 9741   8.246   6.232   9.461
 3167WAT      O 9742   8.372   5.668   9.491
 3167WAT     H1 9743   8.439   5.594   9.486
 3167WAT     H2 9744   8.381   5.717   9.578
 3168WAT      O 9745   8.516   1.468   2.707
 3168WAT     H1 9746   8.429   1.471   2.658
 3168WAT     H2 9747   8.552   1.375   2.707
 3169WAT      O 9748   4.295   5.787   3.581
 3169WAT     H1 9749   4.252   5.877   3.582
 3169WAT     H2 9750   4.302   5.752   3.674
 3170WAT      O 9751   9.118   0.182   6.677
 3170WAT     H1 9752   9.124   0.279   6.656
 3170WAT     H2 9753   9.040   0.166   6.737
 3171WAT      O 9754   1.022   2.683   4.107
 3171WAT     H1 9755   1.099   2.625   4.081
 3171WAT     H2 9756   1.042   2.726   4.195
 3172WAT      O 9757   5.640   1.318   0.126
 3172WAT     H1 9758   5.654   1.407   0.169
 3172WAT     H2 9759   5.659   1.324   0.028
 3173WAT      O 9760   4.406   2.495   5.813
 3173WAT     H1 9761   4.438   2.409   5.853
 3173WAT     H2 9762   4.459   2.515   5.730
 3174WAT      O 9763   3.638   4.619   9.677
 3174WAT     H1 9764   3.595   4.645   9.591
 3174WAT     H2 9765   3.729   4.660   9.683
 3175WAT      O 9766   5.248   6.533   0.126
 3175WAT     H1 9767   5.301   6.614   0.150
 3175WAT     H2 9768   5.227   6.481   0.208
 3176WAT      O 9769   0.700   4.166   5.177
 3176WAT     H1 9770   0.768   4.226   5.219
 3176WAT     H2 9771   0.708   4.170   5.077
 3177WAT      O 9772   7.354   5.604   9.585
 3177WAT     H1 9773   7.435   5.634   9.536
 3177WAT     H2 9774   7.355   5.641   9.678
 3178WAT      O 9775   0.136   2.630   5.507
 3178WAT     H1 9776   0.153   2.719   5.465
 3178WAT     H2 9777   0.039   2.624   5.534
 3179WAT      O 9778   0.834   7.875   7.569
 3179WAT     H1 9779   0.875   7.929   7.495
 3179WAT     H2 9780   0.896   7.874   7.647
 3180WAT      O 9781   6.327   8.797   5.268
 3180WAT     H1 9782   6.271   8.716   5.285
 3180WAT     H2 9783   6.270   8.879   5.278
 3181WAT      O 9784   6.668   3.328   2.228
 3181WAT     H1 9785   6.698   3.398   2.293
 3181WAT     H2 9786   6.738   3.317   2.157
 3182WAT      O 9787   3.811   0.286   1.140
 3182WAT     H1 9788   3.833   0.346   1.063
 3182WAT     H2 9789   3.889   0.227   1.160
 3183WAT      O 9790   8.812   4.852   9.587
 3183WAT     H1 9791   8.741   4.781   9.588
 3183WAT     H2 9792   8.781   4.930   9.640
 3184WAT      O 9793   7.092   1.833   0.894
 3184WAT     H1 9794   7.070   1.788   0.807
 3184WAT     H2 9795   7.191   1.849   0.898
 3185WAT      O 9796   3.143   4.678   4.650
 3185WAT     H1 9797   3.171   4.753   4.709
 3185WAT     H2 9798   3.121   4.598   4.706
 3186WAT      O 9799   1.054   5.464   1.949
 3186WAT     H1 9800   1.127   5.505   1.894
 3186WAT     H2 9801   1.091   5.387   2.001
 3187WAT      O 9802   2.240   8.595   3.040
 3187WAT     H1 9803   2.281   8.674   3.087
 3187WAT     H2 9804   2.185   8.543   3.106
 3188WAT      O 9805   4.962   7.332   9.509
 3188WAT     H1 9806   4.868   7.314   9.539
 3188WAT     H2 9807   4.985   7.270   9.434
 3189WAT      O 9808   3.134   4.086   4.315
 3189WAT     H1 9809   3.041   4.064   4.284
 3189WAT     H2 9810   3.130   4.150   4.392
 3190WAT      O 9811   6.418   6.746   2.959
 3190WAT     H1 9812   6.398   6.799   3.042
 3190WAT     H2 9813   6.355   6.772   2.886
 3191WAT      O 9814   7.208   3.104   7.982
 3191WAT     H1 9815   7.208   3.183   7.920
 3191WAT     H2 9816   7.190   3.135   8.075
 3192WAT      O 9817   4.736   8.865   7.313
 3192WAT     H1 9818   4.718   8.807   7.234
 3192WAT     H2 9819   4.667   8.937   7.319
 3193WAT      O 9820   0.454   0.758   2.609
 3193WAT     H1 9821   0.373   0.759   2.667
 3193WAT     H2 9822   0.536   0.754   2.667
 3194WAT      O 9823   2.419   1.046   2.973
 3194WAT     H1 9824   2.486   1.097   3.028
 3194WAT     H2 9825   2.411   1.087   2.883
 3195WAT      O 9826   5.276   4.983   2.263
 3195WAT     H1 9827   5.345   5.003   2.194
 3195WAT     H2 9828   5.201   4.932   2.221
 3196WAT      O 9829   5.394   8.499   1.081
 3196WAT     H1 9830   5.336   8.419   1.065
 3196WAT     H2 9831   5.387   8.561   1.003
 3197WAT      O 9832   3.896   4.496   7.722
 3197WAT     H1 9833   3.886   4.590   7.688
 3197WAT     H2 9834   3.837   4.483   7.801
 3198WAT      O 9835   5.204   0.847   7.174
 3198WAT     H1 9836   5.302   0.829   7.169
 3198WAT     H2 9837   5.181   0.924   7.115
 3199WAT      O 9838   8.022   5.238   7.974
 3199WAT     H1 9839   8.032   5.213   7.878
 3199WAT     H2 9840   7.946   5.186   8.014
 3200WAT      O 9841   1.791   5.713   3.129
 3200WAT     H1 9842   1.824   5.803   3.100
 3200WAT     H2 9843   1.827   5.691   3.219
 3201WAT      O 9844   2.514   5.057   5.036
 3201WAT     H1 9845   2.533   5.110   4.953
 3201WAT     H2 9846   2.585   4.989   5.049
 3202WAT      O 9847   4.436   5.984   7.336
 3202WAT     H1 9848   4.439   6.050   7.411
 3202WAT     H2 9849   4.349   5.993   7.287
 3203WAT      O 9850   8.043   0.023   1.178
 3203WAT     H1 9851   7.967  -0.030   1.216
 3203WAT     H2 9852   8.006   0.103   1.131
 3204WAT      O 9853   7.732   3.577   0.804
 3204WAT     H1 9854   7.649   3.533   0.771
 3204WAT     H2 9855   7.729   3.586   0.903
 3205WAT      O 9856   7.470   7.718   9.224
 3205WAT     H1 9857   7.505   7.810   9.242
 3205WAT     H2 9858   7.433   7.680   9.309
 3206WAT      O 9859   6.601   3.873   7.121
 3206WAT     H1 9860   6.607   3.897   7.024
 3206WAT     H2 9861   6.554   3.785   7.131
 3207WAT      O 9862   5.292   3.626   4.910
 3207WAT     H1 9863   5.303   3.541   4.857
 3207WAT     H2 9864   5.200   3.662   4.895
 3208WAT      O 9865   0.003   2.373   7.845
 3208WAT     H1 9866  -0.071   2.392   7.909
 3208WAT     H2 9867   0.021   2.454   7.788
 3209WAT      O 9868   6.296   9.651   2.971
 3209WAT     H1 9869   6.310   9.570   3.027
 3209WAT     H2 9870   6.259   9.625   2.882
 3210WAT      O 9871   6.333   5.014   2.460
 3210WAT     H1 9872   6.339   5.094   2.518
 3210WAT     H2 9873   6.373   4.935   2.507
 3211WAT      O 9874   2.355   2.042   1.200
 3211WAT     H1 9875   2.417   1.965   1.211
 3211WAT     H2 9876   2.406   2.122   1.168
 3212WAT      O 9877   9.871   0.863   6.105
 3212WAT     H1 9878   9.931   0.798   6.058
 3212WAT     H2 9879   9.926   0.931   6.152
 3213WAT      O 9880   2.329   5.306   6.472
 3213WAT     H1 9881   2.385   5.228   6.499
 3213WAT     H2 9882   2.235   5.291   6.501
 3214WAT      O 9883   7.936   1.878   0.468
 3214WAT     H1 9884   7.991   1.796   0.449
 3214WAT     H2 9885   7.997   1.956   0.481
 3215WAT      O 9886   1.545   3.348   1.994
 3215WAT     H1 9887   1.498   3.307   1.915
 3215WAT     H2 9888   1.495   3.429   2.024
 3216WAT      O 9889   6.614   6.335   6.160
 3216WAT     H1 9890   6.580   6.278   6.086
 3216WAT     H2 9891   6.680   6.401   6.123
 3217WAT      O 9892   8.599   7.623   8.005
 3217WAT     H1 9893   8.554   7.536   7.983
 3217WAT     H2 9894   8.534   7.685   8.047
 3218WAT      O 9895   4.757   8.997   4.174
 3218WAT     H1 9896   4.753   8.988   4.075
 3218WAT     H2 9897   4.665   8.994   4.212
 3219WAT      O 9898   1.758   1.431   7.916
 3219WAT     H1 9899   1.721   1.365   7.982
 3219WAT     H2 9900   1.705   1.426   7.831
 3220WAT      O 9901   6.295   7.531   6.118
 3220WAT     H1 9902   6.253   7.599   6.057
 3220WAT     H2 9903   6.303   7.569   6.210
 3221WAT      O 9904   2.380   4.584   7.442
 3221WAT     H1 9905   2.463   4.592   7.497
 3221WAT     H2 9906   2.395   4.518   7.369
 3222WAT      O 9907   7.736   4.951   8.673
 3222WAT     H1 9908   7.761   4.991   8.584
 3222WAT     H2 9909   7.640   4.925   8.672
 3223WAT      O 9910   6.054   2.366   4.576
 3223WAT     H1 9911   6.003   2.337   4.495
 3223WAT     H2 9912   6.142   2.319   4.579
 3224WAT      O 9913   2.574   2.910   1.278
 3224WAT     H1 9914   2.501   2.881   1.216
 3224WAT     H2 9915   2.662   2.903   1.232
 3225WAT      O 9916   9.845   9.232   7.395
 3225WAT     H1 9917   9.790   9.165   7.345
 3225WAT     H2 9918   9.904   9.281   7.330
 3226WAT      O 9919   2.542   6.193   7.599
 3226WAT     H1 9920   2.503   6.124   7.539
 3226WAT     H2 9921   2.618   6.239   7.551
 3227WAT      O 9922   8.425   6.761   0.465
 3227WAT     H1 9923   8.521   6.789   0.463
 3227WAT     H2 9924   8.416   6.667   0.434
 3228WAT      O 9925   9.681   0.463   3.186
 3228WAT     H1 9926   9.651   0.545   3.137
 3228WAT     H2 9927   9.778   0.471   3.209
 3229WAT      O 9928   4.421   5.931   8.951
 3229WAT     H1 9929   4.391   5.930   9.047
 3229WAT     H2 9930   4.369   5.863   8.899
 3230WAT      O 9931   2.930   1.802   2.371
 3230WAT     H1 9932   2.838   1.805   2.331
 3230WAT     H2 9933   2.935   1.728   2.438
 3231WAT      O 9934   9.042   0.289   9.346
 3231WAT     H1 9935   9.008   0.307   9.438
 3231WAT     H2 9936   8.991   0.345   9.280
 3232WAT      O 9937   2.316   4.325   3.989
 3232WAT     H1 9938   2.280   4.368   3.906
 3232WAT     H2 9939   2.369   4.392   4.041
 3233WAT      O 9940   0.030   6.991   4.044
 3233WAT     H1 9941  -0.031   7.043   3.985
 3233WAT     H2 9942   0.108   7.048   4.070
 3234WAT      O 9943   4.687   9.596   2.031
 3234WAT     H1 9944   4.695   9.506   2.074
 3234WAT     H2 9945   4.689   9.585   1.931
 3235WAT      O 9946   1.512   2.914   7.937
 3235WAT     H1 9947   1.573   2.904   7.859
 3235WAT     H2 9948   1.481   2.824   7.968
 3236WAT      O 9949   8.242   2.349   1.551
 3236WAT     H1 9950   8.301   2.346   1.470
 3236WAT     H2 9951   8.200   2.440   1.558
 3237WAT      O 9952   5.051   4.245   5.638
 3237WAT     H1 9953   5.116   4.182   5.680
 3237WAT     H2 9954   5.070   4.338   5.670
 3238WAT      O 9955   8.812   8.529   9.560
 3238WAT     H1 9956   8.909   8.547   9.540
 3238WAT     H2 9957   8.798   8.532   9.659
 3239WAT      O 9958   0.057   7.881   9.569
 3239WAT     H1 9959   0.016   7.911   9.483
 3239WAT     H2 9960  -0.015   7.847   9.630
 3240WAT      O 9961   2.789   5.027   6.916
 3240WAT     H1 9962   2.843   5.109   6.897
 3240WAT     H2 9963   2.730   5.044   6.996
 3241WAT      O 9964   5.107   1.568   7.867
 3241WAT     H1 9965   5.055   1.650   7.844
 3241WAT     H2 9966   5.045   1.500   7.907
 3242WAT      O 9967   9.595   3.543   5.044
 3242WAT     H1 9968   9.613   3.611   5.115
 3242WAT     H2 9969   9.642   3.457   5.067
 3243WAT      O 9970   9.673   6.695   1.328
 3243WAT     H1 9971   9.722   6.734   1.250
 3243WAT     H2 9972   9.574   6.708   1.315
 3244WAT      O 9973   2.158   1.716   2.706
 3244WAT     H1 9974   2.080   1.777   2.706
 3244WAT     H2 9975   2.190   1.703   2.612
 3245WAT      O 9976   5.103   5.381   4.432
 3245WAT     H1 9977   5.031   5.315   4.457
 3245WAT     H2 9978   5.137   5.426   4.515
 3246WAT      O 9979   7.344   5.786   6.377
 3246WAT     H1 9980   7.428   5.812   6.425
 3246WAT     H2 9981   7.265   5.818   6.430
 3247WAT      O 9982   0.862   0.852   6.905
 3247WAT     H1 9983   0.940   0.907   6.875
 3247WAT     H2 9984   0.890   0.790   6.978
 3248WAT      O 9985   6.737   3.075   8.755
 3248WAT     H1 9986   6.805   3.069   8.681
 3248WAT     H2 9987   6.707   3.169   8.765
 3249WAT      O 9988   6.631   2.353   1.216
 3249WAT     H1 9989   6.548   2.296   1.206
 3249WAT     H2 9990   6.695   2.330   1.143
 3250WAT      O 9991   7.805   4.126   1.006
 3250WAT     H1 9992   7.845   4.208   0.965
 3250WAT     H2 9993   7.744   4.083   0.939
 3251WAT      O 9994   7.390   2.646   6.633
 3251WAT     H1 9995   7.414   2.551   6.651
 3251WAT     H2 9996   7.473   2.697   6.611
 3252WAT      O 9997   6.538   7.964   6.425
 3252WAT     H1 9998   6.514   8.061   6.419
 3252WAT     H2 9999   6.456   7.909   6.410
 3253WAT      O10000   8.520   5.087   9.568
 3253WAT     H110001   8.607   5.071   9.614
 3253WAT     H210002   8.474   4.999   9.552
 3254WAT      O10003   3.586   4.334   7.602
 3254WAT     H110004   3.519   4.371   7.537
 3254WAT     H210005   3.647   4.407   7.632
 3255WAT      O10006   5.081   8.185   3.050
 3255WAT     H110007   5.171   8.161   3.087
 3255WAT     H210008   5.026   8.228   3.122
 3256WAT      O10009   6.432   8.122   2.068
 3256WAT     H110010   6.457   8.078   2.154
 3256WAT     H210011   6.511   8.123   2.007
 3257WAT      O10012   2.844   0.707   2.121
 3257WAT     H110013   2.928   0.730   2.169
 3257WAT     H210014   2.858   0.624   2.067
 3258WAT      O10015   2.782   9.630   1.097
 3258WAT     H110016   2.726   9.711   1.110
 3258WAT     H210017   2.724   9.548   1.099
 3259WAT      O10018   0.169   8.155   4.732
 3259WAT     H110019   0.122   8.169   4.645
 3259WAT     H210020   0.168   8.057   4.754
 3260WAT      O10021   6.943   4.114   2.677
 3260WAT     H110022   6.850   4.148   2.663
 3260WAT     H210023   6.991   4.113   2.589
 3261WAT      O10024   2.450   9.519   5.306
 3261WAT     H110025   2.513   9.524   5.383
 3261WAT     H210026   2.443   9.425   5.274
 3262WAT      O10027   9.268   2.192   1.301
 3262WAT     H110028   9.214   2.179   1.384
 3262WAT     H210029   9.290   2.288   1.289
 3263WAT      O10030   5.072   3.984   4.084
 3263WAT     H110031   5.059   3.984   4.183
 3263WAT     H210032   5.048   3.895   4.047
 3264WAT      O10033   5.866   2.786   4.202
 3264WAT     H110034   5.842   2.752   4.293
 3264WAT     H210035   5.964   2.803   4.197
 3265WAT      O10036   6.408   1.935   7.873
 3265WAT     H110037   6.479   1.997   7.840
 3265WAT     H210038   6.451   1.860   7.923
 3266WAT      O10039   4.451   2.863   6.102
 3266WAT     H110040   4.416   2.797   6.036
 3266WAT     H210041   4.510   2.929   6.055
 3267WAT      O10042   1.114   3.629   4.734
 3267WAT     H110043   1.182   3.702   4.743
 3267WAT     H210044   1.066   3.617   4.820
 3268WAT      O10045   4.328   3.728   1.955
 3268WAT     H110046   4.288   3.636   1.949
 3268WAT     H210047   4.257   3.796   1.936
 3269WAT      O10048   4.668   5.695   6.542
 3269WAT     H110049   4.595   5.762   6.539
 3269WAT     H210050   4.710   5.695   6.633
 3270WAT      O10051   3.571   7.753   8.743
 3270WAT     H110052   3.503   7.786   8.678
 3270WAT     H210053   3.660   7.745   8.697
 3271WAT      O10054   3.404   2.197   2.185
 3271WAT     H110055   3.331   2.266   2.187
 3271WAT     H210056   3.363   2.105   2.192
 3272WAT      O10057   9.316   3.465   5.191
 3272WAT     H110058   9.297   3.559   5.163
 3272WAT     H210059   9.394   3.464   5.254
 3273WAT      O10060   5.887   6.602   5.481
 3273WAT     H110061   5.884   6.510   5.519
 3273WAT     H210062   5.838   6.665   5.542
 3274WAT      O10063   4.297   7.144   9.094
 3274WAT     H110064   4.209   7.100   9.077
 3274WAT     H210065   4.318   7.139   9.192
 3275WAT      O10066   4.086   7.476   0.739
 3275WAT     H110067   4.164   7.488   0.801
 3275WAT     H210068   4.104   7.526   0.654
 3276WAT      O10069   6.477   6.387   7.725
 3276WAT     H110070   6.390   6.341   7.742
 3276WAT     H210071   6.530   6.334   7.658
 3277WAT      O10072   4.052   5.922   0.207
 3277WAT     H110073   4.134   5.971   0.176
 3277WAT     H210074   4.068   5.823   0.201
 3278WAT      O10075   5.409   3.158   5.890
 3278WAT     H110076   5.354   3.106   5.957
 3278WAT     H210077   5.450   3.237   5.935
 3279WAT      O10078   8.204   3.775   7.716
 3279WAT     H110079   8.295   3.736   7.704
 3279WAT     H210080   8.204   3.870   7.684
 3280WAT      O10081   6.164   8.678   9.383
 3280WAT     H110082   6.163   8.765   9.432
 3280WAT     H210083   6.232   8.617   9.426
 3281WAT      O10084   6.361   1.006   2.520
 3281WAT     H110085   6.387   1.035   2.429
 3281WAT     H210086   6.262   1.016   2.531
 3282WAT      O10087   8.445   0.717   7.946
 3282WAT     H110088   8.465   0.698   8.042
 3282WAT     H210089   8.374   0.787   7.940
 3283WAT      O10090   1.508   2.476   6.161
 3283WAT     H110091   1.584   2.442   6.216
 3283WAT     H210092   1.441   2.403   6.147
 3284WAT      O10093   8.972   7.091   7.413
 3284WAT     H110094   8.880   7.129   7.422
 3284WAT     H210095   8.968   7.008   7.357
 3285WAT      O10096   5.989   1.568   8.863
 3285WAT     H110097   5.978   1.599   8.957
 3285WAT     H210098   6.065   1.617   8.820
 3286WAT      O10099   8.195   4.713   7.752
 3286WAT     H110100   8.264   4.781   7.776
 3286WAT     H210101   8.111   4.731   7.804
 3287WAT      O10102   1.979   0.008   1.466
 3287WAT     H110103   2.010  -0.087   1.471
 3287WAT     H210104   2.040   0.065   1.521
 3288WAT      O10105   7.925   1.511   5.363
 3288WAT     H110106   8.004   1.460   5.328
 3288WAT     H210107   7.860   1.448   5.404
 3289WAT      O10108   2.399   2.767   1.119
 3289WAT     H110109   2.465   2.769   1.044
 3289WAT     H210110   2.307   2.751   1.082
 3290WAT      O10111   9.008   8.240   2.511
 3290WAT     H110112   8.975   8.286   2.428
 3290WAT     H210113   8.971   8.147   2.514
 3291WAT      O10114   5.128   0.201   5.372
 3291WAT     H110115   5.145   0.202   5.274
 3291WAT     H210116   5.058   0.270   5.395
 3292WAT      O10117   5.409   6.200   0.277
 3292WAT     H110118   5.489   6.204   0.217
 3292WAT     H210119   5.351   6.123   0.251
 3293WAT      O10120   3.774   6.500   1.099
 3293WAT     H110121   3.867   6.472   1.121
 3293WAT     H210122   3.716   6.420   1.089
 3294WAT      O10123   9.192   5.419   8.769
 3294WAT     H110124   9.138   5.349   8.814
 3294WAT     H210125   9.289   5.394   8.774
 3295WAT      O10126   2.657   5.680   8.211
 3295WAT     H110127   2.582   5.701   8.148
 3295WAT     H210128   2.619   5.659   8.302
 3296WAT      O10129   1.222   5.032   2.431
 3296WAT     H110130   1.196   4.979   2.513
 3296WAT     H210131   1.236   5.127   2.456
 3297WAT      O10132   0.598   3.270   5.613
 3297WAT     H110133   0.607   3.183   5.565
 3297WAT     H210134   0.662   3.336   5.573
 3298WAT      O10135   2.318   1.848   4.560
 3298WAT     H110136   2.245   1.837   4.627
 3298WAT     H210137   2.279   1.846   4.468
 3299WAT      O10138   5.429   1.811   2.424
 3299WAT     H110139   5.441   1.747   2.500
 3299WAT     H210140   5.495   1.791   2.352
 3300WAT      O10141   0.013   1.945   3.201
 3300WAT     H110142  -0.035   1.907   3.281
 3300WAT     H210143   0.056   2.032   3.227
 3301WAT      O10144   6.691   4.035   8.630
 3301WAT     H110145   6.594   4.030   8.652
 3301WAT     H210146   6.702   4.050   8.532
 3302WAT      O10147   6.591   2.549   2.794
 3302WAT     H110148   6.673   2.584   2.748
 3302WAT     H210149   6.525   2.623   2.805
 3303WAT      O10150   0.882   1.591   5.177
 3303WAT     H110151   0.846   1.511   5.131
 3303WAT     H210152   0.979   1.600   5.157
 3304WAT      O10153   1.109   6.207   6.633
 3304WAT     H110154   1.082   6.120   6.675
 3304WAT     H210155   1.203   6.229   6.660
 3305WAT      O10156   3.741   5.566   4.674
 3305WAT     H110157   3.705   5.578   4.581
 3305WAT     H210158   3.825   5.512   4.671
 3306WAT      O10159   0.382   9.594   0.335
 3306WAT     H110160   0.338   9.536   0.404
 3306WAT     H210161   0.317   9.663   0.303
 3307WAT      O10162   8.701   7.542   8.472
 3307WAT     H110163   8.644   7.596   8.410
 3307WAT     H210164   8.644   7.473   8.517
 3308WAT      O10165   1.486   1.241   1.849
 3308WAT     H110166   1.415   1.260   1.917
 3308WAT     H210167   1.493   1.142   1.835
 3309WAT      O10168   2.620   2.597   8.484
 3309WAT     H110169   2.666   2.566   8.401
 3309WAT     H210170   2.541   2.539   8.502
 3310WAT      O10171   5.781   0.502   6.413
 3310WAT     H110172   5.808   0.590   6.373
 3310WAT     H210173   5.726   0.451   6.346
 3311WAT      O10174   0.376   8.632   4.465
 3311WAT     H110175   0.300   8.600   4.410
 3311WAT     H210176   0.358   8.612   4.562
 3312WAT      O10177   7.415   5.751   2.165
 3312WAT     H110178   7.367   5.813   2.104
 3312WAT     H210179   7.468   5.685   2.111
 3313WAT      O10180   6.859   1.984   9.731
 3313WAT     H110181   6.881   2.050   9.803
 3313WAT     H210182   6.787   1.923   9.763
 3314WAT      O10183   5.929   3.368   8.756
 3314WAT     H110184   5.976   3.306   8.819
 3314WAT     H210185   5.906   3.453   8.803
 3315WAT      O10186   4.723   3.243   1.774
 3315WAT     H110187   4.673   3.223   1.858
 3315WAT     H210188   4.751   3.339   1.773
 3316WAT      O10189   5.871   6.735   9.121
 3316WAT     H110190   5.914   6.820   9.151
 3316WAT     H210191   5.828   6.749   9.031
 3317WAT      O10192   5.408   3.443   6.320
 3317WAT     H110193   5.408   3.490   6.232
 3317WAT     H210194   5.383   3.506   6.393
 3318WAT      O10195   7.808   0.461   5.131
 3318WAT     H110196   7.762   0.392   5.075
 3318WAT     H210197   7.801   0.434   5.228
 3319WAT      O10198   0.381   3.749   3.593
 3319WAT     H110199   0.414   3.776   3.502
 3319WAT     H210200   0.444   3.782   3.663
 3320WAT      O10201   6.481   6.235   3.934
 3320WAT     H110202   6.548   6.163   3.916
 3320WAT     H210203   6.466   6.242   4.033
 3321WAT      O10204   4.336   0.148   0.769
 3321WAT     H110205   4.365   0.057   0.797
 3321WAT     H210206   4.405   0.215   0.795
 3322WAT      O10207   1.980   8.237   5.172
 3322WAT     H110208   1.968   8.321   5.120
 3322WAT     H210209   2.077   8.216   5.181
 3323WAT      O10210   8.871   1.647   6.857
 3323WAT     H110211   8.938   1.721   6.850
 3323WAT     H210212   8.906   1.576   6.917
 3324WAT      O10213   9.407   0.575   6.665
 3324WAT     H110214   9.424   0.549   6.570
 3324WAT     H210215   9.488   0.620   6.702
 3325WAT      O10216   7.991   9.804   3.531
 3325WAT     H110217   8.074   9.859   3.522
 3325WAT     H210218   7.930   9.824   3.454
 3326WAT      O10219   9.832   1.708   7.780
 3326WAT     H110220   9.740   1.742   7.798
 3326WAT     H210221   9.865   1.656   7.859
 3327WAT      O10222   6.361   7.649   0.241
 3327WAT     H110223   6.332   7.577   0.179
 3327WAT     H210224   6.283   7.709   0.261
 3328WAT      O10225   6.707   1.919   8.362
 3328WAT     H110226   6.716   2.007   8.410
 3328WAT     H210227   6.781   1.858   8.391
 3329WAT      O10228   3.707   8.283   9.188
 3329WAT     H110229   3.675   8.249   9.099
 3329WAT     H210230   3.765   8.213   9.231
 3330WAT      O10231   9.038   1.614   1.860
 3330WAT     H110232   9.107   1.562   1.809
 3330WAT     H210233   9.023   1.702   1.814
 3331WAT      O10234   4.223   5.446   8.884
 3331WAT     H110235   4.238   5.441   8.983
 3331WAT     H210236   4.271   5.371   8.839
 3332WAT      O10237   5.070   1.988   1.905
 3332WAT     H110238   4.991   1.939   1.943
 3332WAT     H210239   5.049   2.020   1.813
 3333WAT      O10240   5.411   9.795   9.168
 3333WAT     H110241   5.485   9.729   9.160
 3333WAT     H210242   5.418   9.862   9.093
 3334WAT      O10243   6.394   5.234   9.147
 3334WAT     H110244   6.486   5.207   9.117
 3334WAT     H210245   6.339   5.262   9.068
 3335WAT      O10246   3.481   4.742   1.980
 3335WAT     H110247   3.461   4.669   1.915
 3335WAT     H210248   3.519   4.703   2.064
 3336WAT      O10249   6.759   2.409   6.148
 3336WAT     H110250   6.732   2.504   6.160
 3336WAT     H210251   6.829   2.385   6.216
 3337WAT      O10252   8.320   3.575   3.634
 3337WAT     H110253   8.384   3.651   3.623
 3337WAT     H210254   8.244   3.586   3.570
 3338WAT      O10255   5.286   3.585   8.138
 3338WAT     H110256   5.351   3.532   8.191
 3338WAT     H210257   5.290   3.556   8.042
 3339WAT      O10258   6.591   5.412   9.240
 3339WAT     H110259   6.508   5.357   9.244
 3339WAT     H210260   6.569   5.507   9.262
 3340WAT      O10261   7.374   9.474   9.653
 3340WAT     H110262   7.439   9.474   9.577
 3340WAT     H210263   7.352   9.380   9.678
 3341WAT      O10264   6.850   0.088   2.761
 3341WAT     H110265   6.775   0.114   2.702
 3341WAT     H210266   6.937   0.103   2.714
 3342WAT      O10267   0.721   7.945   1.406
 3342WAT     H110268   0.757   8.029   1.447
 3342WAT     H210269   0.684   7.886   1.478
 3343WAT      O10270   2.962   1.982   7.389
 3343WAT     H110271   2.988   1.890   7.419
 3343WAT     H210272   2.866   1.998   7.410
 3344WAT      O10273   0.892   0.055   6.904
 3344WAT     H110274   0.957   0.092   6.971
 3344WAT     H210275   0.876  -0.042   6.924
 3345WAT      O10276   3.283   4.892   0.331
 3345WAT     H110277   3.208   4.932   0.278
 3345WAT     H210278   3.252   4.876   0.425
 3346WAT      O10279   5.215   2.043   2.136
 3346WAT     H110280   5.302   1.994   2.138
 3346WAT     H210281   5.165   2.017   2.053
 3347WAT      O10282   8.298   2.815   8.043
 3347WAT     H110283   8.249   2.823   7.956
 3347WAT     H210284   8.395   2.801   8.024
 3348WAT      O10285   1.620   5.030   6.484
 3348WAT     H110286   1.589   4.961   6.548
 3348WAT     H210287   1.679   5.095   6.531
 3349WAT      O10288   8.470   7.002   9.275
 3349WAT     H110289   8.454   7.038   9.182
 3349WAT     H210290   8.498   7.077   9.334
 3350WAT      O10291   7.187   7.547   7.339
 3350WAT     H110292   7.190   7.608   7.417
 3350WAT     H210293   7.125   7.471   7.358
 3351WAT      O10294   0.427   3.397   8.399
 3351WAT     H110295   0.480   3.480   8.412
 3351WAT     H210296   0.376   3.402   8.314
 3352WAT      O10297   6.984   9.231   6.787
 3352WAT     H110298   6.930   9.287   6.850
 3352WAT     H210299   6.923   9.171   6.736
 3353WAT      O10300   3.400   0.264   1.335
 3353WAT     H110301   3.438   0.292   1.247
 3353WAT     H210302   3.408   0.164   1.344
 3354WAT      O10303   1.950   9.358   7.918
 3354WAT     H110304   1.934   9.335   8.014
 3354WAT     H210305   2.023   9.301   7.882
 3355WAT      O10306   8.562   2.539   8.391
 3355WAT     H110307   8.518   2.454   8.421
 3355WAT     H210308   8.493   2.610   8.380
 3356WAT      O10309   9.853   2.854   1.521
 3356WAT     H110310   9.824   2.950   1.521
 3356WAT     H210311   9.953   2.850   1.526
 3357WAT      O10312   1.092   8.530   5.434
 3357WAT     H110313   1.057   8.599   5.371
 3357WAT     H210314   1.161   8.475   5.389
 3358WAT      O10315   2.429   9.178   6.127
 3358WAT     H110316   2.392   9.271   6.133
 3358WAT     H210317   2.447   9.142   6.218
 3359WAT      O10318   8.279   0.406   2.292
 3359WAT     H110319   8.328   0.340   2.349
 3359WAT     H210320   8.202   0.444   2.344
 3360WAT      O10321   3.664   4.486   3.023
 3360WAT     H110322   3.764   4.483   3.031
 3360WAT     H210323   3.623   4.488   3.114
 3361WAT      O10324   5.792   0.024   4.371
 3361WAT     H110325   5.815   0.024   4.274
 3361WAT     H210326   5.697  -0.005   4.383
 3362WAT      O10327   4.915   3.776   8.448
 3362WAT     H110328   4.890   3.850   8.511
 3362WAT     H210329   5.015   3.767   8.445
 3363WAT      O10330   9.456   0.657   3.711
 3363WAT     H110331   9.521   0.582   3.700
 3363WAT     H210332   9.467   0.722   3.636
 3364WAT      O10333   4.033   8.225   2.082
 3364WAT     H110334   3.997   8.138   2.046
 3364WAT     H210335   3.958   8.291   2.091
 3365WAT      O10336   5.771   0.047   6.285
 3365WAT     H110337   5.864   0.023   6.257
 3365WAT     H210338   5.723  -0.036   6.315
 3366WAT      O10339   2.498   2.774   1.958
 3366WAT     H110340   2.477   2.799   1.864
 3366WAT     H210341   2.414   2.765   2.010
 3367WAT      O10342   7.929   2.868   5.973
 3367WAT     H110343   7.997   2.814   6.024
 3367WAT     H210344   7.849   2.812   5.955
 3368WAT      O10345   2.729   1.529   1.541
 3368WAT     H110346   2.793   1.536   1.464
 3368WAT     H210347   2.741   1.608   1.601
 3369WAT      O10348   8.956   6.101   0.862
 3369WAT     H110349   8.865   6.072   0.834
 3369WAT     H210350   8.954   6.131   0.957
 3370WAT      O10351   9.878   5.619   4.641
 3370WAT     H110352   9.866   5.521   4.658
 3370WAT     H210353   9.971   5.646   4.667
 3371WAT      O10354   7.734   7.255   6.434
 3371WAT     H110355   7.686   7.322   6.491
 3371WAT     H210356   7.796   7.201   6.491
 3372WAT      O10357   0.191   0.834   1.910
 3372WAT     H110358   0.209   0.771   1.985
 3372WAT     H210359   0.274   0.888   1.892
 3373WAT      O10360   0.376   8.759   2.769
 3373WAT     H110361   0.302   8.824   2.787
 3373WAT     H210362   0.450   8.773   2.835
 3374WAT      O10363   2.241   1.591   5.211
 3374WAT     H110364   2.270   1.642   5.293
 3374WAT     H210365   2.180   1.648   5.156
 3375WAT      O10366   9.393   2.657   3.784
 3375WAT     H110367   9.436   2.704   3.861
 3375WAT     H210368   9.294   2.665   3.791
 3376WAT      O10369   8.177   6.577   7.343
 3376WAT     H110370   8.172   6.477   7.338
 3376WAT     H210371   8.106   6.617   7.285
 3377WAT      O10372   1.030   7.491   9.751
 3377WAT     H110373   0.955   7.452   9.698
 3377WAT     H210374   1.113   7.439   9.735
 3378WAT      O10375   4.635   6.492   3.627
 3378WAT     H110376   4.670   6.524   3.539
 3378WAT     H210377   4.675   6.404   3.650
 3379WAT      O10378   4.617   4.894   0.990
 3379WAT     H110379   4.616   4.946   0.905
 3379WAT     H210380   4.638   4.955   1.066
 3380WAT      O10381   6.295   0.376   4.118
 3380WAT     H110382   6.276   0.407   4.210
 3380WAT     H210383   6.393   0.356   4.109
 3381WAT      O10384   7.569   7.450   0.696
 3381WAT     H110385   7.596   7.534   0.649
 3381WAT     H210386   7.558   7.376   0.630
 3382WAT      O10387   7.479   1.068   2.314
 3382WAT     H110388   7.549   1.048   2.382
 3382WAT     H210389   7.388   1.059   2.356
 3383WAT      O10390   9.640   1.092   4.065
 3383WAT     H110391   9.566   1.027   4.048
 3383WAT     H210392   9.713   1.079   3.998
 3384WAT      O10393   2.594   5.880   6.470
 3384WAT     H110394   2.498   5.893   6.444
 3384WAT     H210395   2.653   5.903   6.393
 3385WAT      O10396   2.541   9.547   4.525
 3385WAT     H110397   2.443   9.539   4.504
 3385WAT     H210398   2.593   9.485   4.466
 3386WAT      O10399   1.311   3.020   0.720
 3386WAT     H110400   1.292   3.118   0.729
 3386WAT     H210401   1.234   2.975   0.675
 3387WAT      O10402   6.926   5.551   0.386
 3387WAT     H110403   6.862   5.628   0.383
 3387WAT     H210404   6.996   5.568   0.455
 3388WAT      O10405   7.134   7.425   6.157
 3388WAT     H110406   7.154   7.500   6.094
 3388WAT     H210407   7.068   7.456   6.226
 3389WAT      O10408   0.506   5.851   7.874
 3389WAT     H110409   0.436   5.795   7.829
 3389WAT     H210410   0.594   5.839   7.828
 3390WAT      O10411   8.819   2.150   5.481
 3390WAT     H110412   8.893   2.120   5.541
 3390WAT     H210413   8.754   2.075   5.469
 3391WAT      O10414   5.665   8.671   1.446
 3391WAT     H110415   5.574   8.642   1.417
 3391WAT     H210416   5.727   8.670   1.368
 3392WAT      O10417   2.449   6.778   9.588
 3392WAT     H110418   2.418   6.705   9.649
 3392WAT     H210419   2.431   6.752   9.493
 3393WAT      O10420   2.425   6.400   9.350
 3393WAT     H110421   2.471   6.424   9.436
 3393WAT     H210422   2.456   6.309   9.321
 3394WAT      O10423   6.989   9.601   5.604
 3394WAT     H110424   6.901   9.643   5.579
 3394WAT     H210425   6.975   9.504   5.623
 3395WAT      O10426   2.180   3.612   5.450
 3395WAT     H110427   2.199   3.518   5.424
 3395WAT     H210428   2.187   3.671   5.370
 3396WAT      O10429   9.316   0.246   1.945
 3396WAT     H110430   9.236   0.279   1.995
 3396WAT     H210431   9.385   0.318   1.941
 3397WAT      O10432   3.718   2.104   7.742
 3397WAT     H110433   3.756   2.183   7.791
 3397WAT     H210434   3.635   2.131   7.694
 3398WAT      O10435   2.676   3.519   8.643
 3398WAT     H110436   2.730   3.543   8.562
 3398WAT     H210437   2.655   3.422   8.641
 3399WAT      O10438   5.612   8.012   9.491
 3399WAT     H110439   5.584   8.073   9.564
 3399WAT     H210440   5.580   7.919   9.511
 3400WAT      O10441   2.457   7.028   4.782
 3400WAT     H110442   2.420   7.120   4.767
 3400WAT     H210443   2.393   6.961   4.745
 3401WAT      O10444   4.963   5.200   7.807
 3401WAT     H110445   4.938   5.228   7.900
 3401WAT     H210446   4.886   5.217   7.746
 3402WAT      O10447   6.468   1.183   5.515
 3402WAT     H110448   6.558   1.214   5.486
 3402WAT     H210449   6.439   1.106   5.457
 3403WAT      O10450   1.229   3.317   1.537
 3403WAT     H110451   1.209   3.225   1.503
 3403WAT     H210452   1.327   3.324   1.555
 3404WAT      O10453   8.087   8.729   8.784
 3404WAT     H110454   8.000   8.776   8.765
 3404WAT     H210455   8.079   8.633   8.756
 3405WAT      O10456   1.304   5.960   6.244
 3405WAT     H110457   1.308   5.972   6.344
 3405WAT     H210458   1.380   6.010   6.202
 3406WAT      O10459   8.266   2.508   5.384
 3406WAT     H110460   8.248   2.521   5.287
 3406WAT     H210461   8.269   2.598   5.429
 3407WAT      O10462   1.887   9.153   0.977
 3407WAT     H110463   1.866   9.251   0.974
 3407WAT     H210464   1.879   9.120   1.071
 3408WAT      O10465   9.674   2.581   8.234
 3408WAT     H110466   9.677   2.650   8.162
 3408WAT     H210467   9.639   2.495   8.196
 3409WAT      O10468   4.465   3.239   2.777
 3409WAT     H110469   4.508   3.222   2.688
 3409WAT     H210470   4.488   3.165   2.839
 3410WAT      O10471   6.472   1.139   8.837
 3410WAT     H110472   6.380   1.166   8.863
 3410WAT     H210473   6.483   1.040   8.850
 3411WAT      O10474   2.845   1.410   4.821
 3411WAT     H110475   2.775   1.352   4.864
 3411WAT     H210476   2.842   1.501   4.861
 3412WAT      O10477   0.275   9.035   8.153
 3412WAT     H110478   0.339   8.987   8.214
 3412WAT     H210479   0.215   9.093   8.207
 3413WAT      O10480   2.719   2.812   2.628
 3413WAT     H110481   2.677   2.840   2.714
 3413WAT     H210482   2.744   2.894   2.575
 3414WAT      O10483   0.835   9.143   7.340
 3414WAT     H110484   0.864   9.194   7.259
 3414WAT     H210485   0.837   9.203   7.420
 3415WAT      O10486   8.752   0.015   6.012
 3415WAT     H110487   8.762   0.048   5.918
 3415WAT     H210488   8.655   0.008   6.035
 3416WAT      O10489   0.426   0.011   7.543
 3416WAT     H110490   0.354  -0.054   7.521
 3416WAT     H210491   0.388   0.086   7.599
 3417WAT      O10492   8.651   3.897   7.081
 3417WAT     H110493   8.724   3.869   7.018
 3417WAT     H210494   8.689   3.911   7.172
 3418WAT      O10495   1.343   8.283   6.670
 3418WAT     H110496   1.350   8.226   6.753
 3418WAT     H210497   1.364   8.378   6.693
 3419WAT      O10498   5.533   0.109   8.721
 3419WAT     H110499   5.466   0.145   8.787
 3419WAT     H210500   5.602   0.179   8.704
 3420WAT      O10501   2.555   8.779   6.402
 3420WAT     H110502   2.590   8.699   6.450
 3420WAT     H210503   2.557   8.762   6.303
 3421WAT      O10504   3.143   1.636   3.288
 3421WAT     H110505   3.157   1.734   3.300
 3421WAT     H210506   3.155   1.589   3.376
 3422WAT      O10507   3.615   9.523   9.232
 3422WAT     H110508   3.610   9.589   9.157
 3422WAT     H210509   3.683   9.454   9.211
 3423WAT      O10510   3.702   3.676   0.791
 3423WAT     H110511   3.620   3.644   0.745
 3423WAT     H210512   3.730   3.611   0.861
 3424WAT      O10513   2.778   8.452   9.587
 3424WAT     H110514   2.710   8.425   9.656
 3424WAT     H210515   2.858   8.393   9.596
 3425WAT      O10516   1.307   1.338   5.718
 3425WAT     H110517   1.215   1.303   5.737
 3425WAT     H210518   1.314   1.433   5.748
 3426WAT      O10519   6.531   6.965   9.425
 3426WAT     H110520   6.594   7.040   9.409
 3426WAT     H210521   6.527   6.906   9.344
 3427WAT      O10522   5.188   6.288   2.407
 3427WAT     H110523   5.256   6.341   2.356
 3427WAT     H210524   5.122   6.248   2.343
 3428WAT      O10525   4.849   1.472   7.849
 3428WAT     H110526   4.857   1.454   7.751
 3428WAT     H210527   4.760   1.513   7.868
 3429WAT      O10528   1.077   1.808   7.590
 3429WAT     H110529   1.095   1.861   7.673
 3429WAT     H210530   1.158   1.755   7.565
 3430WAT      O10531   9.747   2.633   9.171
 3430WAT     H110532   9.716   2.580   9.092
 3430WAT     H210533   9.702   2.723   9.170
 3431WAT      O10534   1.318   7.587   5.243
 3431WAT     H110535   1.406   7.632   5.241
 3431WAT     H210536   1.288   7.566   5.150
 3432WAT      O10537   6.196   1.666   5.268
 3432WAT     H110538   6.269   1.687   5.333
 3432WAT     H210539   6.221   1.584   5.216
 3433WAT      O10540   8.134   4.040   7.439
 3433WAT     H110541   8.036   4.031   7.459
 3433WAT     H210542   8.185   4.043   7.525
 3434WAT      O10543   6.161   6.020   6.537
 3434WAT     H110544   6.069   6.029   6.576
 3434WAT     H210545   6.213   6.103   6.555
 3435WAT      O10546   1.915   9.775   3.430
 3435WAT     H110547   2.011   9.799   3.419
 3435WAT     H210548   1.881   9.813   3.516
 3436WAT      O10549   9.500   3.198   1.237
 3436WAT     H110550   9.516   3.237   1.328
 3436WAT     H210551   9.585   3.204   1.184
 3437WAT      O10552   7.363   1.949   2.684
 3437WAT     H110553   7.319   2.038   2.695
 3437WAT     H210554   7.448   1.960   2.631
 3438WAT      O10555   2.028   8.924   9.008
 3438WAT     H110556   2.111   8.972   8.983
 3438WAT     H210557   2.017   8.926   9.108
 3439WAT      O10558   9.688   7.869   0.135
 3439WAT     H110559   9.779   7.901   0.163
 3439WAT     H210560   9.629   7.864   0.215
 3440WAT      O10561   1.379   5.402   0.374
 3440WAT     H110562   1.397   5.499   0.388
 3440WAT     H210563   1.297   5.376   0.424
 3441WAT      O10564   1.849   8.299   6.032
 3441WAT     H110565   1.789   8.350   5.970
 3441WAT     H210566   1.892   8.362   6.096
 3442WAT      O10567   7.318   3.184   6.681
 3442WAT     H110568   7.291   3.087   6.682
 3442WAT     H210569   7.289   3.228   6.766
 3443WAT      O10570   5.627   5.615   7.621
 3443WAT     H110571   5.713   5.636   7.574
 3443WAT     H210572   5.646   5.570   7.708
 3444WAT      O10573   1.053   3.346   8.123
 3444WAT     H110574   1.072   3.353   8.221
 3444WAT     H210575   1.055   3.437   8.082
 3445WAT      O10576   8.245   3.787   4.348
 3445WAT     H110577   8.322   3.850   4.343
 3445WAT     H210578   8.164   3.836   4.379
 3446WAT      O10579   9.360   4.375   8.144
 3446WAT     H110580   9.284   4.426   8.184
 3446WAT     H210581   9.325   4.311   8.076
 3447WAT      O10582   7.694   9.427   0.522
 3447WAT     H110583   7.695   9.426   0.422
 3447WAT     H210584   7.682   9.334   0.557
 3448WAT      O10585   2.785   2.439   5.752
 3448WAT     H110586   2.794   2.533   5.719
 3448WAT     H210587   2.806   2.375   5.678
 3449WAT      O10588   0.517   1.858   9.473
 3449WAT     H110589   0.527   1.919   9.551
 3449WAT     H210590   0.607   1.833   9.438
 3450WAT      O10591   2.939   1.350   8.436
 3450WAT     H110592   2.986   1.401   8.508
 3450WAT     H210593   2.929   1.254   8.463
 3451WAT      O10594   4.004   0.121   1.210
 3451WAT     H110595   4.098   0.139   1.180
 3451WAT     H210596   3.992   0.022   1.224
 3452WAT      O10597   1.282   1.416   6.916
 3452WAT     H110598   1.375   1.442   6.890
 3452WAT     H210599   1.269   1.431   7.014
 3453WAT      O10600   4.086   6.507   0.254
 3453WAT     H110601   4.114   6.429   0.309
 3453WAT     H210602   3.988   6.502   0.235
 3454WAT      O10603   5.427   0.125   8.053
 3454WAT     H110604   5.472   0.212   8.034
 3454WAT     H210605   5.466   0.085   8.136
 3455WAT      O10606   7.204   4.215   3.320
 3455WAT     H110607   7.259   4.159   3.258
 3455WAT     H210608   7.113   4.226   3.281
 3456WAT      O10609   5.183   7.976   0.117
 3456WAT     H110610   5.188   7.950   0.020
 3456WAT     H210611   5.099   8.029   0.132
 3457WAT      O10612   6.648   9.548   5.131
 3457WAT     H110613   6.593   9.559   5.214
 3457WAT     H210614   6.689   9.635   5.106
 3458WAT      O10615   3.233   1.827   8.776
 3458WAT     H110616   3.222   1.748   8.715
 3458WAT     H210617   3.240   1.910   8.721
 3459WAT      O10618   8.937   7.478   5.896
 3459WAT     H110619   8.898   7.434   5.977
 3459WAT     H210620   8.978   7.565   5.921
 3460WAT      O10621   6.997   4.560   4.579
 3460WAT     H110622   6.979   4.648   4.534
 3460WAT     H210623   7.095   4.545   4.584
 3461WAT      O10624   5.628   1.512   4.095
 3461WAT     H110625   5.589   1.603   4.080
 3461WAT     H210626   5.554   1.445   4.106
 3462WAT      O10627   2.539   2.444   4.809
 3462WAT     H110628   2.569   2.351   4.788
 3462WAT     H210629   2.576   2.507   4.741
 3463WAT      O10630   3.480   2.110   7.250
 3463WAT     H110631   3.475   2.011   7.246
 3463WAT     H210632   3.410   2.150   7.191
 3464WAT      O10633   9.273   4.746   1.557
 3464WAT     H110634   9.312   4.829   1.518
 3464WAT     H210635   9.346   4.689   1.593
 3465WAT      O10636   0.251   4.116   8.627
 3465WAT     H110637   0.219   4.061   8.704
 3465WAT     H210638   0.347   4.139   8.640
 3466WAT      O10639   6.752   5.402   7.337
 3466WAT     H110640   6.834   5.389   7.393
 3466WAT     H210641   6.775   5.387   7.241
 3467WAT      O10642   3.454   8.176   3.753
 3467WAT     H110643   3.437   8.083   3.719
 3467WAT     H210644   3.525   8.173   3.824
 3468WAT      O10645   0.482   3.763   8.167
 3468WAT     H110646   0.561   3.787   8.223
 3468WAT     H210647   0.510   3.695   8.099
 3469WAT      O10648   8.708   1.562   0.325
 3469WAT     H110649   8.728   1.657   0.350
 3469WAT     H210650   8.713   1.552   0.225
 3470WAT      O10651   7.057   5.058   2.293
 3470WAT     H110652   7.091   4.964   2.278
 3470WAT     H210653   7.020   5.094   2.207
 3471WAT      O10654   3.819   5.334   1.951
 3471WAT     H110655   3.889   5.374   2.011
 3471WAT     H210656   3.733   5.327   2.001
 3472WAT      O10657   9.134   5.069   0.213
 3472WAT     H110658   9.226   5.037   0.236
 3472WAT     H210659   9.117   5.156   0.260
 3473WAT      O10660   8.540   2.790   2.492
 3473WAT     H110661   8.497   2.809   2.403
 3473WAT     H210662   8.625   2.741   2.477
 3474WAT      O10663   4.050   4.687   2.903
 3474WAT     H110664   4.102   4.759   2.949
 3474WAT     H210665   4.082   4.679   2.808
 3475WAT      O10666   3.258   2.164   6.349
 3475WAT     H110667   3.314   2.122   6.421
 3475WAT     H210668   3.191   2.098   6.316
 3476WAT      O10669   1.860   8.980   5.721
 3476WAT     H110670   1.874   9.044   5.646
 3476WAT     H210671   1.831   8.891   5.684
 3477WAT      O10672   0.967   2.767   0.252
 3477WAT     H110673   0.902   2.837   0.224
 3477WAT     H210674   0.990   2.710   0.173
 3478WAT      O10675   2.810   4.470   0.698
 3478WAT     H110676   2.816   4.443   0.794
 3478WAT     H210677   2.868   4.550   0.682
 3479WAT      O10678   5.339   9.103   6.850
 3479WAT     H110679   5.306   9.184   6.898
 3479WAT     H210680   5.279   9.025   6.870
 3480WAT      O10681   0.886   5.023   6.880
 3480WAT     H110682   0.947   5.024   6.800
 3480WAT     H210683   0.936   4.990   6.960
 3481WAT      O10684   6.660   9.325   9.821
 3481WAT     H110685   6.562   9.316   9.840
 3481WAT     H210686   6.708   9.244   9.853
 3482WAT      O10687   9.464   7.243   4.175
 3482WAT     H110688   9.484   7.178   4.102
 3482WAT     H210689   9.473   7.198   4.264
 3483WAT      O10690   5.992   5.376   7.035
 3483WAT     H110691   6.063   5.309   7.056
 3483WAT     H210692   6.028   5.468   7.045
 3484WAT      O10693   3.150   3.779   4.756
 3484WAT     H110694   3.082   3.823   4.814
 3484WAT     H210695   3.129   3.681   4.748
 3485WAT      O10696   5.670   6.807   1.818
 3485WAT     H110697   5.594   6.870   1.805
 3485WAT     H210698   5.691   6.762   1.731
 3486WAT      O10699   4.629   9.725   9.719
 3486WAT     H110700   4.636   9.676   9.806
 3486WAT     H210701   4.560   9.681   9.662
 3487WAT      O10702   4.786   9.536   9.412
 3487WAT     H110703   4.687   9.549   9.403
 3487WAT     H210704   4.829   9.548   9.323
 3488WAT      O10705   2.341   7.898   0.852
 3488WAT     H110706   2.317   7.818   0.906
 3488WAT     H210707   2.275   7.910   0.778
 3489WAT      O10708   8.513   5.201   8.140
 3489WAT     H110709   8.555   5.138   8.205
 3489WAT     H210710   8.436   5.157   8.095
 3490WAT      O10711   1.696   4.342   1.421
 3490WAT     H110712   1.727   4.426   1.465
 3490WAT     H210713   1.748   4.265   1.456
 3491WAT      O10714   3.534   4.305   4.413
 3491WAT     H110715   3.512   4.353   4.329
 3491WAT     H210716   3.452   4.294   4.469
 3492WAT      O10717   2.669   4.617   1.190
 3492WAT     H110718   2.634   4.676   1.118
 3492WAT     H210719   2.593   4.565   1.231
 3493WAT      O10720   4.981   5.473   1.475
 3493WAT     H110721   5.035   5.510   1.400
 3493WAT     H210722   4.983   5.373   1.472
 3494WAT      O10723   5.995   8.506   5.791
 3494WAT     H110724   5.941   8.531   5.871
 3494WAT     H210725   6.033   8.415   5.802
 3495WAT      O10726   4.243   6.218   5.900
 3495WAT     H110727   4.321   6.235   5.840
 3495WAT     H210728   4.270   6.153   5.971
 3496WAT      O10729   6.133   5.219   2.572
 3496WAT     H110730   6.169   5.258   2.487
 3496WAT     H210731   6.065   5.280   2.611
 3497WAT      O10732   8.744   5.143   5.399
 3497WAT     H110733   8.822   5.158   5.339
 3497WAT     H210734   8.774   5.149   5.495
 3498WAT      O10735   8.441   8.409   3.291
 3498WAT     H110736   8.477   8.370   3.207
 3498WAT     H210737   8.368   8.474   3.270
 3499WAT      O10738   5.799   9.718   0.010
 3499WAT     H110739   5.846   9.631  -0.005
 3499WAT     H210740   5.720   9.725  -0.051
 3500WAT      O10741   5.907   3.025   6.443
 3500WAT     H110742   5.830   3.006   6.504
 3500WAT     H210743   5.900   3.119   6.410
 3501WAT      O10744   2.746   3.816   0.222
 3501WAT     H110745   2.762   3.746   0.292
 3501WAT     H210746   2.686   3.779   0.151
 3502WAT      O10747   9.333   9.280   7.184
 3502WAT     H110748   9.303   9.347   7.252
 3502WAT     H210749   9.272   9.282   7.105
 3503WAT      O10750   9.325   9.713   3.299
 3503WAT     H110751   9.254   9.718   3.228
 3503WAT     H210752   9.285   9.732   3.388
 3504WAT      O10753   9.285   1.865   9.225
 3504WAT     H110754   9.265   1.768   9.214
 3504WAT     H210755   9.376   1.885   9.189
 3505WAT      O10756   0.227   0.281   2.172
 3505WAT     H110757   0.131   0.312   2.176
 3505WAT     H210758   0.287   0.358   2.193
 3506WAT      O10759   2.007   8.885   2.717
 3506WAT     H110760   2.061   8.969   2.729
 3506WAT     H210761   2.021   8.825   2.796
 3507WAT      O10762   9.744   2.012   6.675
 3507WAT     H110763   9.736   2.097   6.623
 3507WAT     H210764   9.661   1.998   6.729
 3508WAT      O10765   0.297   1.457   9.379
 3508WAT     H110766   0.284   1.487   9.473
 3508WAT     H210767   0.223   1.492   9.322
 3509WAT      O10768   9.176   7.940   5.663
 3509WAT     H110769   9.142   7.972   5.575
 3509WAT     H210770   9.230   7.857   5.649
 3510WAT      O10771   2.290   2.979   4.166
 3510WAT     H110772   2.293   3.026   4.254
 3510WAT     H210773   2.298   3.046   4.092
 3511WAT      O10774   4.968   1.959   0.993
 3511WAT     H110775   5.049   1.908   1.023
 3511WAT     H210776   4.990   2.009   0.909
 3512WAT      O10777   5.556   5.980   6.518
 3512WAT     H110778   5.471   5.982   6.466
 3512WAT     H210779   5.611   6.061   6.496
 3513WAT      O10780   7.710   6.254   3.239
 3513WAT     H110781   7.721   6.166   3.287
 3513WAT     H210782   7.757   6.326   3.290
 3514WAT      O10783   4.276   1.013   9.460
 3514WAT     H110784   4.176   1.006   9.457
 3514WAT     H210785   4.305   1.041   9.552
 3515WAT      O10786   9.672   2.216   7.676
 3515WAT     H110787   9.657   2.214   7.577
 3515WAT     H210788   9.717   2.302   7.701
 3516WAT      O10789   1.364   9.091   1.853
 3516WAT     H110790   1.448   9.049   1.888
 3516WAT     H210791   1.386   9.178   1.808
 3517WAT      O10792   6.159   4.145   1.832
 3517WAT     H110793   6.258   4.146   1.847
 3517WAT     H210794   6.119   4.226   1.875
 3518WAT      O10795   2.910   7.842   1.931
 3518WAT     H110796   2.818   7.879   1.919
 3518WAT     H210797   2.963   7.902   1.991
 3519WAT      O10798   8.883   4.694   4.076
 3519WAT     H110799   8.940   4.670   4.154
 3519WAT     H210800   8.926   4.768   4.024
 3520WAT      O10801   1.022   5.147   9.688
 3520WAT     H110802   0.936   5.100   9.711
 3520WAT     H210803   1.056   5.194   9.770
 3521WAT      O10804   8.755   6.962   6.168
 3521WAT     H110805   8.657   6.972   6.158
 3521WAT     H210806   8.802   7.038   6.123
 3522WAT      O10807   9.253   7.512   8.173
 3522WAT     H110808   9.314   7.591   8.184
 3522WAT     H210809   9.187   7.530   8.100
 3523WAT      O10810   9.622   6.205   0.760
 3523WAT     H110811   9.711   6.248   0.744
 3523WAT     H210812   9.583   6.175   0.673
 3524WAT      O10813   8.713   9.742   4.424
 3524WAT     H110814   8.781   9.668   4.426
 3524WAT     H210815   8.623   9.703   4.403
 3525WAT      O10816   6.422   5.069   1.696
 3525WAT     H110817   6.385   5.057   1.788
 3525WAT     H210818   6.483   4.992   1.674
 3526WAT      O10819   9.431   9.670   0.967
 3526WAT     H110820   9.503   9.603   0.955
 3526WAT     H210821   9.442   9.744   0.902
 3527WAT      O10822   2.471   1.925   3.721
 3527WAT     H110823   2.410   1.994   3.760
 3527WAT     H210824   2.425   1.880   3.644
 3528WAT      O10825   4.491   2.688   2.204
 3528WAT     H110826   4.414   2.691   2.269
 3528WAT     H210827   4.469   2.745   2.124
 3529WAT      O10828   8.453   4.859   9.308
 3529WAT     H110829   8.484   4.934   9.250
 3529WAT     H210830   8.469   4.772   9.261
 3530WAT      O10831   2.988   1.014   1.087
 3530WAT     H110832   2.970   0.941   1.153
 3530WAT     H210833   3.084   1.011   1.060
 3531WAT      O10834   3.727   7.237   4.037
 3531WAT     H110835   3.786   7.185   4.099
 3531WAT     H210836   3.755   7.222   3.943
 3532WAT      O10837   8.874   6.509   4.854
 3532WAT     H110838   8.956   6.452   4.860
 3532WAT     H210839   8.797   6.461   4.897
 3533WAT      O10840   7.570   3.095   0.211
 3533WAT     H110841   7.579   3.029   0.286
 3533WAT     H210842   7.610   3.182   0.239
 3534WAT      O10843   8.244   9.034   8.195
 3534WAT     H110844   8.199   8.959   8.243
 3534WAT     H210845   8.203   9.121   8.222
 3535WAT      O10846   4.447   0.944   6.236
 3535WAT     H110847   4.433   0.869   6.172
 3535WAT     H210848   4.515   1.008   6.199
 3536WAT      O10849   9.458   5.508   0.633
 3536WAT     H110850   9.553   5.507   0.663
 3536WAT     H210851   9.431   5.416   0.606
 3537WAT      O10852   4.890   2.022   8.518
 3537WAT     H110853   4.830   2.044   8.595
 3537WAT     H210854   4.905   2.105   8.463
 3538WAT      O10855   2.739   6.786   8.905
 3538WAT     H110856   2.699   6.733   8.830
 3538WAT     H210857   2.830   6.751   8.925
 3539WAT      O10858   4.636   8.782   3.901
 3539WAT     H110859   4.660   8.686   3.912
 3539WAT     H210860   4.563   8.806   3.964
 3540WAT      O10861   1.125   1.031   9.449
 3540WAT     H110862   1.224   1.022   9.433
 3540WAT     H210863   1.109   1.096   9.523
 3541WAT      O10864   2.099   0.718   9.203
 3541WAT     H110865   2.149   0.804   9.216
 3541WAT     H210866   2.071   0.682   9.292
 3542WAT      O10867   7.650   4.977   3.342
 3542WAT     H110868   7.613   4.968   3.250
 3542WAT     H210869   7.736   4.926   3.348
 3543WAT      O10870   8.883   6.806   5.622
 3543WAT     H110871   8.802   6.749   5.607
 3543WAT     H210872   8.912   6.799   5.717
 3544WAT      O10873   3.154   4.245   3.977
 3544WAT     H110874   3.119   4.306   4.048
 3544WAT     H210875   3.129   4.279   3.887
 3545WAT      O10876   2.405   5.494   6.819
 3545WAT     H110877   2.398   5.530   6.726
 3545WAT     H210878   2.324   5.441   6.841
 3546WAT      O10879   5.642   2.334   1.228
 3546WAT     H110880   5.594   2.421   1.218
 3546WAT     H210881   5.577   2.263   1.253
 3547WAT      O10882   5.482   5.545   0.903
 3547WAT     H110883   5.543   5.585   0.971
 3547WAT     H210884   5.525   5.464   0.862
 3548WAT      O10885   9.169   2.068   1.051
 3548WAT     H110886   9.180   2.136   1.124
 3548WAT     H210887   9.213   1.983   1.080
 3549WAT      O10888   7.394   1.300   3.810
 3549WAT     H110889   7.421   1.280   3.716
 3549WAT     H210890   7.304   1.344   3.809
 3550WAT      O10891   6.402   2.403   1.722
 3550WAT     H110892   6.397   2.412   1.623
 3550WAT     H210893   6.497   2.389   1.750
 3551WAT      O10894   7.995   3.639   4.531
 3551WAT     H110895   8.014   3.735   4.509
 3551WAT     H210896   7.977   3.630   4.629
 3552WAT      O10897   9.778   3.238   8.171
 3552WAT     H110898   9.858   3.258   8.115
 3552WAT     H210899   9.799   3.256   8.267
 3553WAT      O10900   8.565   6.741   4.680
 3553WAT     H110901   8.480   6.788   4.655
 3553WAT     H210902   8.543   6.662   4.737
 3554WAT      O10903   7.543   5.780   6.141
 3554WAT     H110904   7.632   5.765   6.185
 3554WAT     H210905   7.481   5.823   6.207
 3555WAT      O10906   3.337   5.665   1.190
 3555WAT     H110907   3.367   5.607   1.114
 3555WAT     H210908   3.357   5.620   1.277
 3556WAT      O10909   9.365   4.864   3.181
 3556WAT     H110910   9.363   4.964   3.182
 3556WAT     H210911   9.305   4.828   3.252
 3557WAT      O10912   2.876   3.580   5.170
 3557WAT     H110913   2.935   3.658   5.148
 3557WAT     H210914   2.867   3.521   5.090
 3558WAT      O10915   0.597   7.299   0.330
 3558WAT     H110916   0.526   7.340   0.388
 3558WAT     H210917   0.686   7.310   0.374
 3559WAT      O10918   1.297   8.108   0.806
 3559WAT     H110919   1.290   8.118   0.906
 3559WAT     H210920   1.313   8.197   0.765
 3560WAT      O10921   5.991   9.139   7.293
 3560WAT     H110922   6.015   9.046   7.264
 3560WAT     H210923   6.047   9.165   7.371
 3561WAT      O10924   5.658   4.859   3.663
 3561WAT     H110925   5.743   4.908   3.642
 3561WAT     H210926   5.676   4.761   3.664
 3562WAT      O10927   9.085   1.970   4.509
 3562WAT     H110928   9.125   1.910   4.440
 3562WAT     H210929   9.091   1.927   4.599
 3563WAT      O10930   1.597   2.697   0.470
 3563WAT     H110931   1.547   2.664   0.550
 3563WAT     H210932   1.663   2.767   0.498
 3564WAT      O10933   5.749   7.135   0.355
 3564WAT     H110934   5.684   7.085   0.413
 3564WAT     H210935   5.842   7.116   0.386
 3565WAT      O10936   7.260   2.741   6.184
 3565WAT     H110937   7.347   2.694   6.202
 3565WAT     H210938   7.278   2.833   6.149
 3566WAT      O10939   6.215   2.108   7.859
 3566WAT     H110940   6.297   2.051   7.864
 3566WAT     H210941   6.186   2.131   7.952
 3567WAT      O10942   5.875   4.962   1.593
 3567WAT     H110943   5.950   5.018   1.627
 3567WAT     H210944   5.844   4.901   1.666
 3568WAT      O10945   9.655   7.979   5.814
 3568WAT     H110946   9.718   8.006   5.888
 3568WAT     H210947   9.660   8.045   5.740
 3569WAT      O10948   7.215   5.764   8.931
 3569WAT     H110949   7.264   5.719   8.857
 3569WAT     H210950   7.267   5.756   9.016
 3570WAT      O10951   1.245   5.219   8.636
 3570WAT     H110952   1.224   5.164   8.555
 3570WAT     H210953   1.208   5.174   8.717
 3571WAT      O10954   7.109   3.405   4.177
 3571WAT     H110955   7.036   3.412   4.245
 3571WAT     H210956   7.084   3.337   4.107
 3572WAT      O10957   1.662   7.127   9.377
 3572WAT     H110958   1.751   7.130   9.331
 3572WAT     H210959   1.639   7.032   9.399
 3573WAT      O10960   4.790   8.131   9.043
 3573WAT     H110961   4.702   8.102   9.081
 3573WAT     H210962   4.858   8.060   9.059
 3574WAT      O10963   8.623   5.260   1.798
 3574WAT     H110964   8.574   5.264   1.711
 3574WAT     H210965   8.615   5.349   1.844
 3575WAT      O10966   8.997   8.958   4.785
 3575WAT     H110967   9.045   8.981   4.870
 3575WAT     H210968   8.976   8.861   4.784
 3576WAT      O10969   3.514   1.570   1.035
 3576WAT     H110970   3.569   1.618   1.103
 3576WAT     H210971   3.432   1.623   1.013
 3577WAT      O10972   2.185   9.060   1.706
 3577WAT     H110973   2.231   9.105   1.630
 3577WAT     H210974   2.110   9.003   1.671
 3578WAT      O10975   4.922   0.358   8.074
 3578WAT     H110976   4.850   0.374   8.006
 3578WAT     H210977   4.932   0.259   8.089
 3579WAT      O10978   7.213   6.154   3.259
 3579WAT     H110979   7.235   6.058   3.245
 3579WAT     H210980   7.134   6.178   3.202
 3580WAT      O10981   8.901   6.475   2.973
 3580WAT     H110982   8.886   6.458   3.071
 3580WAT     H210983   8.911   6.388   2.925
 3581WAT      O10984   1.621   4.724   9.851
 3581WAT     H110985   1.631   4.800   9.788
 3581WAT     H210986   1.690   4.731   9.924
 3582WAT      O10987   0.023   1.977   0.097
 3582WAT     H110988  -0.056   2.022   0.054
 3582WAT     H210989   0.069   1.919   0.030
 3583WAT      O10990   2.517   0.075   0.995
 3583WAT     H110991   2.423   0.110   0.991
 3583WAT     H210992   2.556   0.097   1.084
 3584WAT      O10993   3.878   0.537   7.322
 3584WAT     H110994   3.943   0.504   7.254
 3584WAT     H210995   3.923   0.542   7.411
 3585WAT      O10996   1.598   6.374   4.141
 3585WAT     H110997   1.629   6.461   4.104
 3585WAT     H210998   1.506   6.384   4.178
 3586WAT      O10999   7.819   5.620   3.436
 3586WAT     H111000   7.876   5.669   3.502
 3586WAT     H211001   7.822   5.669   3.348
 3587WAT      O11002   5.043   8.582   5.285
 3587WAT     H111003   5.121   8.596   5.346
 3587WAT     H211004   4.987   8.665   5.283
 3588WAT      O11005   0.200   9.760   0.219
 3588WAT     H111006   0.151   9.790   0.138
 3588WAT     H211007   0.157   9.799   0.300
 3589WAT      O11008   4.520   4.890   4.087
 3589WAT     H111009   4.469   4.817   4.133
 3589WAT     H211010   4.465   4.973   4.087
 3590WAT      O11011   8.144   8.035   4.070
 3590WAT     H111012   8.172   8.130   4.084
 3590WAT     H211013   8.120   8.021   3.974
 3591WAT      O11014   2.537   2.045   7.057
 3591WAT     H111015   2.581   2.000   6.980
 3591WAT     H211016   2.527   2.143   7.037
 3592WAT      O11017   6.788   1.317   7.094
 3592WAT     H111018   6.859   1.285   7.157
 3592WAT     H211019   6.830   1.358   7.013
 3593WAT      O11020   0.247   0.852   7.638
 3593WAT     H111021   0.307   0.885   7.566
 3593WAT     H211022   0.217   0.758   7.617
 3594WAT      O11023   2.030   7.181   2.467
 3594WAT     H111024   1.999   7.186   2.562
 3594WAT     H211025   1.981   7.249   2.412
 3595WAT      O11026   9.807   3.516   4.450
 3595WAT     H111027   9.867   3.534   4.528
 3595WAT     H211028   9.862   3.506   4.368
 3596WAT      O11029   7.729   4.084   5.315
 3596WAT     H111030   7.756   3.988   5.310
 3596WAT     H211031   7.784   4.137   5.250
 3597WAT      O11032   7.050   1.258   1.926
 3597WAT     H111033   7.019   1.298   1.840
 3597WAT     H211034   6.987   1.283   2.000
 3598WAT      O11035   2.470   5.427   1.417
 3598WAT     H111036   2.422   5.398   1.334
 3598WAT     H211037   2.464   5.356   1.486
 3599WAT      O11038   8.030   9.062   1.943
 3599WAT     H111039   8.020   9.064   2.042
 3599WAT     H211040   7.946   9.026   1.902
 3600WAT      O11041   2.910   3.067   9.041
 3600WAT     H111042   2.930   3.147   8.985
 3600WAT     H211043   2.982   3.054   9.110
 3601WAT      O11044   7.574   5.846   1.856
 3601WAT     H111045   7.536   5.785   1.925
 3601WAT     H211046   7.658   5.888   1.891
 3602WAT      O11047   5.700   2.561   5.748
 3602WAT     H111048   5.781   2.575   5.804
 3602WAT     H211049   5.701   2.626   5.671
 3603WAT      O11050   7.334   6.520   2.206
 3603WAT     H111051   7.266   6.553   2.272
 3603WAT     H211052   7.354   6.592   2.140
 3604WAT      O11053   3.018   0.626   7.779
 3604WAT     H111054   2.926   0.589   7.787
 3604WAT     H211055   3.015   0.726   7.783
 3605WAT      O11056   2.529   1.707   6.740
 3605WAT     H111057   2.537   1.649   6.659
 3605WAT     H211058   2.550   1.801   6.717
 3606WAT      O11059   6.977   2.344   2.603
 3606WAT     H111060   6.958   2.246   2.598
 3606WAT     H211061   7.046   2.361   2.672
 3607WAT      O11062   7.049   2.242   7.436
 3607WAT     H111063   6.994   2.159   7.428
 3607WAT     H211064   6.989   2.322   7.436
 3608WAT      O11065   0.570   5.393   7.060
 3608WAT     H111066   0.656   5.345   7.042
 3608WAT     H211067   0.493   5.339   7.025
 3609WAT      O11068   2.217   6.491   1.759
 3609WAT     H111069   2.259   6.490   1.850
 3609WAT     H211070   2.268   6.553   1.700
 3610WAT      O11071   1.656   6.115   8.964
 3610WAT     H111072   1.645   6.083   9.058
 3610WAT     H211073   1.615   6.048   8.901
 3611WAT      O11074   7.384   7.990   4.232
 3611WAT     H111075   7.443   8.025   4.305
 3611WAT     H211076   7.420   8.017   4.143
 3612WAT      O11077   1.256   2.320   2.070
 3612WAT     H111078   1.289   2.263   2.145
 3612WAT     H211079   1.326   2.325   1.999
 3613WAT      O11080   8.482   8.369   7.721
 3613WAT     H111081   8.535   8.447   7.754
 3613WAT     H211082   8.393   8.400   7.690
 3614WAT      O11083   4.849   5.932   1.942
 3614WAT     H111084   4.783   5.875   1.892
 3614WAT     H211085   4.866   6.015   1.890
 3615WAT      O11086   5.184   7.288   3.968
 3615WAT     H111087   5.241   7.233   3.907
 3615WAT     H211088   5.098   7.240   3.987
 3616WAT      O11089   6.483   2.795   2.838
 3616WAT     H111090   6.412   2.853   2.798
 3616WAT     H211091   6.538   2.848   2.903
 3617WAT      O11092   5.827   1.318   2.907
 3617WAT     H111093   5.761   1.335   2.981
 3617WAT     H211094   5.894   1.393   2.904
 3618WAT      O11095   2.140   5.299   3.635
 3618WAT     H111096   2.058   5.267   3.587
 3618WAT     H211097   2.203   5.223   3.648
 3619WAT      O11098   8.077   3.477   7.007
 3619WAT     H111099   8.005   3.451   6.943
 3619WAT     H211100   8.053   3.564   7.050
 3620WAT      O11101   0.632   9.223   2.719
 3620WAT     H111102   0.592   9.285   2.787
 3620WAT     H211103   0.730   9.242   2.711
 3621WAT      O11104   6.358   6.289   7.193
 3621WAT     H111105   6.412   6.212   7.159
 3621WAT     H211106   6.355   6.361   7.124
 3622WAT      O11107   6.944   6.140   1.608
 3622WAT     H111108   6.972   6.195   1.686
 3622WAT     H211109   7.021   6.129   1.545
 3623WAT      O11110   9.014   8.981   4.032
 3623WAT     H111111   9.104   8.958   3.996
 3623WAT     H211112   9.025   9.035   4.116
 3624WAT      O11113   7.892   5.131   3.615
 3624WAT     H111114   7.863   5.036   3.603
 3624WAT     H211115   7.841   5.190   3.552
 3625WAT      O11116   7.911   4.758   3.308
 3625WAT     H111117   8.004   4.784   3.334
 3625WAT     H211118   7.912   4.712   3.220
 3626WAT      O11119   7.775   0.355   1.603
 3626WAT     H111120   7.687   0.395   1.627
 3626WAT     H211121   7.814   0.405   1.525
 3627WAT      O11122   8.101   5.747   7.933
 3627WAT     H111123   8.077   5.839   7.965
 3627WAT     H211124   8.060   5.731   7.843
 3628WAT      O11125   0.578   2.152   6.694
 3628WAT     H111126   0.618   2.066   6.662
 3628WAT     H211127   0.648   2.205   6.741
 3629WAT      O11128   0.295   5.321   3.315
 3629WAT     H111129   0.311   5.315   3.217
 3629WAT     H211130   0.380   5.305   3.365
 3630WAT      O11131   0.207   9.007   0.605
 3630WAT     H111132   0.149   9.065   0.662
 3630WAT     H211133   0.153   8.933   0.564
 3631WAT      O11134   1.743   0.417   1.791
 3631WAT     H111135   1.841   0.434   1.788
 3631WAT     H211136   1.726   0.318   1.801
 3632WAT      O11137   7.671   8.772   9.693
 3632WAT     H111138   7.683   8.688   9.640
 3632WAT     H211139   7.751   8.830   9.682
 3633WAT      O11140   8.458   2.392   0.116
 3633WAT     H111141   8.407   2.471   0.083
 3633WAT     H211142   8.495   2.412   0.207
 3634WAT      O11143   5.054   8.455   7.471
 3634WAT     H111144   5.124   8.391   7.438
 3634WAT     H211145   5.051   8.535   7.411
 3635WAT      O11146   3.727   4.532   3.900
 3635WAT     H111147   3.765   4.622   3.923
 3635WAT     H211148   3.777   4.461   3.949
 3636WAT      O11149   8.035   4.924   1.531
 3636WAT     H111150   8.131   4.916   1.505
 3636WAT     H211151   8.004   4.837   1.571
 3637WAT      O11152   8.302   8.926   0.783
 3637WAT     H111153   8.290   8.973   0.870
 3637WAT     H211154   8.275   8.830   0.793
 3638WAT      O11155   4.196   7.085   4.432
 3638WAT     H111156   4.245   7.053   4.351
 3638WAT     H211157   4.225   7.033   4.512
 3639WAT      O11158   5.481   1.947   2.099
 3639WAT     H111159   5.532   1.869   2.136
 3639WAT     H211160   5.500   1.955   2.001
 3640WAT      O11161   2.263   5.593   3.294
 3640WAT     H111162   2.284   5.691   3.303
 3640WAT     H211163   2.263   5.551   3.385
 3641WAT      O11164   8.659   1.734   7.327
 3641WAT     H111165   8.615   1.652   7.291
 3641WAT     H211166   8.758   1.723   7.324
 3642WAT      O11167   9.290   8.721   5.737
 3642WAT     H111168   9.371   8.772   5.766
 3642WAT     H211169   9.265   8.655   5.807
 3643WAT      O11170   4.112   4.839   5.733
 3643WAT     H111171   4.087   4.742   5.732
 3643WAT     H211172   4.188   4.855   5.671
 3644WAT      O11173   0.494   9.274   0.121
 3644WAT     H111174   0.523   9.280   0.025
 3644WAT     H211175   0.438   9.353   0.144
 3645WAT      O11176   0.442   3.991   0.007
 3645WAT     H111177   0.385   4.073   0.019
 3645WAT     H211178   0.388   3.910   0.029
 3646WAT      O11179   7.646   2.985   7.207
 3646WAT     H111180   7.550   3.010   7.201
 3646WAT     H211181   7.671   2.968   7.303
 3647WAT      O11182   1.998   7.536   9.441
 3647WAT     H111183   1.957   7.603   9.503
 3647WAT     H211184   2.080   7.498   9.484
 3648WAT      O11185   8.932   7.269   9.744
 3648WAT     H111186   8.889   7.244   9.830
 3648WAT     H211187   8.873   7.243   9.668
 3649WAT      O11188   9.202   5.264   1.440
 3649WAT     H111189   9.252   5.292   1.358
 3649WAT     H211190   9.209   5.336   1.510
 3650WAT      O11191   3.973   6.137   4.546
 3650WAT     H111192   4.055   6.132   4.489
 3650WAT     H211193   3.937   6.230   4.545
 3651WAT      O11194   4.734   1.828   7.866
 3651WAT     H111195   4.826   1.814   7.828
 3651WAT     H211196   4.691   1.739   7.880
 3652WAT      O11197   6.994   2.231   0.768
 3652WAT     H111198   7.044   2.307   0.726
 3652WAT     H211199   6.941   2.183   0.698
 3653WAT      O11200   2.277   9.531   3.223
 3653WAT     H111201   2.213   9.507   3.296
 3653WAT     H211202   2.370   9.509   3.253
 3654WAT      O11203   5.450   3.367   8.663
 3654WAT     H111204   5.549   3.371   8.650
 3654WAT     H211205   5.429   3.332   8.755
 3655WAT      O11206   1.568   5.331   7.182
 3655WAT     H111207   1.492   5.309   7.121
 3655WAT     H211208   1.567   5.269   7.260
 3656WAT      O11209   8.678   1.181   5.060
 3656WAT     H111210   8.644   1.094   5.097
 3656WAT     H211211   8.740   1.223   5.125
 3657WAT      O11212   2.660   4.734   0.321
 3657WAT     H111213   2.688   4.733   0.417
 3657WAT     H211214   2.595   4.660   0.304
 3658WAT      O11215   0.853   3.236   2.300
 3658WAT     H111216   0.815   3.149   2.269
 3658WAT     H211217   0.841   3.305   2.229
 3659WAT      O11218   0.031   9.365   0.640
 3659WAT     H111219  -0.040   9.435   0.648
 3659WAT     H211220   0.119   9.409   0.620
 3660WAT      O11221   8.146   1.605   2.164
 3660WAT     H111222   8.069   1.582   2.105
 3660WAT     H211223   8.163   1.530   2.228
 3661WAT      O11224   3.180   7.333   4.797
 3661WAT     H111225   3.175   7.326   4.698
 3661WAT     H211226   3.168   7.242   4.837
 3662WAT      O11227   3.854   3.477   4.047
 3662WAT     H111228   3.898   3.566   4.055
 3662WAT     H211229   3.761   3.483   4.085
 3663WAT      O11230   2.522   8.562   0.249
 3663WAT     H111231   2.603   8.550   0.191
 3663WAT     H211232   2.532   8.506   0.332
 3664WAT      O11233   0.121   6.135   0.668
 3664WAT     H111234   0.070   6.078   0.604
 3664WAT     H211235   0.218   6.110   0.665
 3665WAT      O11236   4.996   2.730   8.047
 3665WAT     H111237   4.933   2.787   8.101
 3665WAT     H211238   4.944   2.680   7.978
 3666WAT      O11239   2.833   8.195   5.024
 3666WAT     H111240   2.893   8.165   5.098
 3666WAT     H211241   2.775   8.271   5.057
 3667WAT      O11242   8.210   0.855   1.641
 3667WAT     H111243   8.280   0.849   1.570
 3667WAT     H211244   8.143   0.926   1.616
 3668WAT      O11245   8.893   9.388   8.397
 3668WAT     H111246   8.943   9.304   8.416
 3668WAT     H211247   8.910   9.417   8.303
 3669WAT      O11248   5.699   2.731   5.539
 3669WAT     H111249   5.675   2.698   5.448
 3669WAT     H211250   5.775   2.796   5.533
 3670WAT      O11251   1.068   9.733   8.889
 3670WAT     H111252   1.073   9.685   8.977
 3670WAT     H211253   1.092   9.669   8.816
 3671WAT      O11254   1.884   4.810   7.388
 3671WAT     H111255   1.811   4.741   7.398
 3671WAT     H211256   1.942   4.809   7.469
 3672WAT      O11257   0.800   1.008   4.111
 3672WAT     H111258   0.823   1.046   4.022
 3672WAT     H211259   0.800   1.080   4.180
 3673WAT      O11260   1.258   1.295   8.836
 3673WAT     H111261   1.322   1.369   8.858
 3673WAT     H211262   1.246   1.237   8.917
 3674WAT      O11263   0.295   5.724   8.947
 3674WAT     H111264   0.282   5.739   8.849
 3674WAT     H211265   0.326   5.631   8.963
 3675WAT      O11266   5.036   1.074   7.443
 3675WAT     H111267   5.100   1.142   7.408
 3675WAT     H211268   5.087   0.999   7.485
 3676WAT      O11269   0.991   9.146   4.684
 3676WAT     H111270   1.072   9.097   4.718
 3676WAT     H211271   1.009   9.244   4.687
 3677WAT      O11272   3.556   0.158   5.142
 3677WAT     H111273   3.528   0.244   5.100
 3677WAT     H211274   3.477   0.096   5.148
 3678WAT      O11275   4.574   8.058   8.608
 3678WAT     H111276   4.611   8.077   8.517
 3678WAT     H211277   4.614   8.121   8.674
 3679WAT      O11278   7.344   1.129   5.589
 3679WAT     H111279   7.366   1.224   5.566
 3679WAT     H211280   7.323   1.122   5.686
 3680WAT      O11281   7.087   5.575   8.464
 3680WAT     H111282   7.109   5.497   8.522
 3680WAT     H211283   7.084   5.658   8.520
 3681WAT      O11284   3.913   9.766   6.061
 3681WAT     H111285   3.838   9.700   6.051
 3681WAT     H211286   3.905   9.837   5.992
 3682WAT      O11287   8.454   9.150   4.964
 3682WAT     H111288   8.548   9.182   4.976
 3682WAT     H211289   8.443   9.112   4.872
 3683WAT      O11290   3.396   8.891   7.145
 3683WAT     H111291   3.433   8.983   7.152
 3683WAT     H211292   3.393   8.863   7.048
 3684WAT      O11293   9.315   6.599   5.871
 3684WAT     H111294   9.376   6.663   5.825
 3684WAT     H211295   9.366   6.550   5.941
 3685WAT      O11296   8.425   7.379   5.765
 3685WAT     H111297   8.416   7.471   5.727
 3685WAT     H211298   8.522   7.352   5.765
 3686WAT      O11299   4.183   0.381   2.305
 3686WAT     H111300   4.241   0.429   2.239
 3686WAT     H211301   4.165   0.288   2.272
 3687WAT      O11302   9.429   1.714   5.494
 3687WAT     H111303   9.516   1.732   5.448
 3687WAT     H211304   9.377   1.646   5.442
 3688WAT      O11305   4.235   1.436   2.399
 3688WAT     H111306   4.252   1.341   2.427
 3688WAT     H211307   4.204   1.437   2.304
 3689WAT      O11308   8.213   9.132   4.450
 3689WAT     H111309   8.180   9.218   4.411
 3689WAT     H211310   8.151   9.102   4.522
 3690WAT      O11311   3.205   0.767   1.653
 3690WAT     H111312   3.175   0.678   1.619
 3690WAT     H211313   3.213   0.765   1.753
 3691WAT      O11314   1.987   7.402   6.171
 3691WAT     H111315   2.046   7.327   6.202
 3691WAT     H211316   1.970   7.465   6.247
 3692WAT      O11317   9.338   3.263   1.978
 3692WAT     H111318   9.423   3.252   2.030
 3692WAT     H211319   9.286   3.178   1.981
 3693WAT      O11320   7.370   6.447   9.169
 3693WAT     H111321   7.403   6.421   9.259
 3693WAT     H211322   7.337   6.366   9.120
 3694WAT      O11323   3.313   3.367   7.760
 3694WAT     H111324   3.270   3.455   7.741
 3694WAT     H211325   3.342   3.325   7.674
 3695WAT      O11326   8.570   0.824   2.512
 3695WAT     H111327   8.498   0.861   2.453
 3695WAT     H211328   8.606   0.897   2.570
 3696WAT      O11329   7.224   9.346   3.229
 3696WAT     H111330   7.286   9.268   3.232
 3696WAT     H211331   7.189   9.358   3.136
 3697WAT      O11332   3.977   1.558   1.813
 3697WAT     H111333   3.920   1.548   1.732
 3697WAT     H211334   3.935   1.509   1.889
 3698WAT      O11335   3.965   3.769   0.828
 3698WAT     H111336   4.031   3.735   0.761
 3698WAT     H211337   3.872   3.753   0.794
 3699WAT      O11338   4.507   8.995   0.154
 3699WAT     H111339   4.426   8.992   0.095
 3699WAT     H211340   4.498   8.927   0.227
 3700WAT      O11341   3.857   5.461   7.205
 3700WAT     H111342   3.827   5.524   7.134
 3700WAT     H211343   3.875   5.511   7.289
 3701WAT      O11344   4.776   2.826   9.519
 3701WAT     H111345   4.821   2.739   9.541
 3701WAT     H211346   4.836   2.902   9.543
 3702WAT      O11347   3.181   9.562   9.648
 3702WAT     H111348   3.101   9.611   9.613
 3702WAT     H211349   3.164   9.464   9.646
 3703WAT      O11350   0.719   8.439   6.178
 3703WAT     H111351   0.645   8.394   6.228
 3703WAT     H211352   0.704   8.538   6.179
 3704WAT      O11353   0.295   9.382   2.393
 3704WAT     H111354   0.390   9.377   2.360
 3704WAT     H211355   0.293   9.431   2.480
 3705WAT      O11356   7.323   6.865   0.835
 3705WAT     H111357   7.346   6.769   0.825
 3705WAT     H211358   7.240   6.886   0.782
 3706WAT      O11359   3.420   1.864   6.098
 3706WAT     H111360   3.342   1.882   6.037
 3706WAT     H211361   3.501   1.844   6.043
 3707WAT      O11362   4.135   0.661   4.413
 3707WAT     H111363   4.217   0.611   4.441
 3707WAT     H211364   4.118   0.736   4.477
 3708WAT      O11365   9.654   8.693   6.136
 3708WAT     H111366   9.635   8.759   6.064
 3708WAT     H211367   9.631   8.734   6.225
 3709WAT      O11368   0.230   0.225   3.209
 3709WAT     H111369   0.242   0.229   3.308
 3709WAT     H211370   0.217   0.130   3.180
 3710WAT      O11371   7.090   4.847   1.977
 3710WAT     H111372   7.116   4.757   1.941
 3710WAT     H211373   7.154   4.916   1.945
 3711WAT      O11374   2.542   1.379   9.542
 3711WAT     H111375   2.473   1.340   9.602
 3711WAT     H211376   2.629   1.331   9.555
 3712WAT      O11377   9.351   1.880   2.091
 3712WAT     H111378   9.329   1.950   2.023
 3712WAT     H211379   9.268   1.854   2.140
 3713WAT      O11380   8.778   5.991   3.570
 3713WAT     H111381   8.793   6.058   3.498
 3713WAT     H211382   8.791   6.035   3.659
 3714WAT      O11383   7.880   2.405   2.052
 3714WAT     H111384   7.898   2.440   1.960
 3714WAT     H211385   7.879   2.305   2.050
 3715WAT      O11386   8.535   4.988   4.957
 3715WAT     H111387   8.443   4.951   4.967
 3715WAT     H211388   8.600   4.926   5.002
 3716WAT      O11389   0.530   3.434   4.037
 3716WAT     H111390   0.474   3.403   4.114
 3716WAT     H211391   0.558   3.528   4.052
 3717WAT      O11392   7.666   7.055   4.623
 3717WAT     H111393   7.741   7.119   4.644
 3717WAT     H211394   7.604   7.050   4.702
 3718WAT      O11395   4.876   5.213   2.397
 3718WAT     H111396   4.876   5.299   2.450
 3718WAT     H211397   4.794   5.160   2.420
 3719WAT      O11398   3.800   8.279   7.686
 3719WAT     H111399   3.731   8.339   7.727
 3719WAT     H211400   3.843   8.224   7.756
 3720WAT      O11401   7.233   2.716   4.823
 3720WAT     H111402   7.269   2.632   4.783
 3720WAT     H211403   7.309   2.773   4.855
 3721WAT      O11404   3.565   0.666   7.066
 3721WAT     H111405   3.557   0.762   7.039
 3721WAT     H211406   3.641   0.624   7.017
 3722WAT      O11407   9.434   6.024   1.104
 3722WAT     H111408   9.456   5.933   1.068
 3722WAT     H211409   9.407   6.084   1.028
 3723WAT      O11410   5.841   1.511   7.182
 3723WAT     H111411   5.911   1.563   7.231
 3723WAT     H211412   5.876   1.484   7.092
 3724WAT      O11413   0.245   3.315   0.181
 3724WAT     H111414   0.149   3.326   0.155
 3724WAT     H211415   0.266   3.218   0.189
 3725WAT      O11416   0.922   7.840   1.257
 3725WAT     H111417   0.968   7.782   1.324
 3725WAT     H211418   0.838   7.877   1.297
 3726WAT      O11419   3.853   7.536   7.456
 3726WAT     H111420   3.774   7.493   7.411
 3726WAT     H211421   3.821   7.590   7.534
 3727WAT      O11422   8.402   7.718   4.373
 3727WAT     H111423   8.481   7.767   4.338
 3727WAT     H211424   8.337   7.702   4.299
 3728WAT      O11425   7.298   6.457   4.194
 3728WAT     H111426   7.242   6.501   4.264
 3728WAT     H211427   7.254   6.466   4.104
 3729WAT      O11428   6.614   7.568   2.366
 3729WAT     H111429   6.539   7.515   2.326
 3729WAT     H211430   6.578   7.625   2.440
 3730WAT      O11431   7.678   7.023   9.624
 3730WAT     H111432   7.705   7.094   9.689
 3730WAT     H211433   7.741   6.945   9.631
 3731WAT      O11434   3.322   8.834   5.087
 3731WAT     H111435   3.223   8.823   5.092
 3731WAT     H211436   3.345   8.903   5.019
 3732WAT      O11437   8.522   1.260   7.236
 3732WAT     H111438   8.458   1.218   7.300
 3732WAT     H211439   8.595   1.195   7.214
 3733WAT      O11440   4.000   5.112   2.247
 3733WAT     H111441   3.974   5.038   2.309
 3733WAT     H211442   3.985   5.200   2.291
 3734WAT      O11443   6.078   7.772   3.059
 3734WAT     H111444   6.071   7.693   3.120
 3734WAT     H211445   6.075   7.742   2.964
 3735WAT      O11446   2.689   0.061   7.360
 3735WAT     H111447   2.596   0.061   7.398
 3735WAT     H211448   2.689   0.013   7.273
 3736WAT      O11449   3.803   0.976   7.400
 3736WAT     H111450   3.892   0.962   7.443
 3736WAT     H211451   3.789   0.908   7.328
 3737WAT      O11452   6.410   8.605   6.988
 3737WAT     H111453   6.362   8.654   6.915
 3737WAT     H211454   6.509   8.620   6.979
 3738WAT      O11455   2.801   8.325   1.225
 3738WAT     H111456   2.780   8.422   1.238
 3738WAT     H211457   2.901   8.313   1.224
 3739WAT      O11458   6.766   7.083   6.794
 3739WAT     H111459   6.811   7.134   6.720
 3739WAT     H211460   6.667   7.091   6.785
 3740WAT      O11461   4.396   0.507   1.995
 3740WAT     H111462   4.410   0.604   2.015
 3740WAT     H211463   4.466   0.453   2.042
 3741WAT      O11464   7.026   9.535   7.223
 3741WAT     H111465   7.105   9.583   7.185
 3741WAT     H211466   6.941   9.580   7.193
 3742WAT      O11467   8.888   0.841   7.657
 3742WAT     H111468   8.873   0.935   7.688
 3742WAT     H211469   8.943   0.842   7.573
 3743WAT      O11470   6.279   4.970   5.735
 3743WAT     H111471   6.372   4.935   5.723
 3743WAT     H211472   6.282   5.056   5.785
 3744WAT      O11473   3.697   7.919   9.107
 3744WAT     H111474   3.657   7.830   9.084
 3744WAT     H211475   3.627   7.978   9.146
 3745WAT      O11476   4.702   8.712   8.054
 3745WAT     H111477   4.734   8.742   8.144
 3745WAT     H211478   4.604   8.726   8.046
 3746WAT      O11479   2.009   6.817   5.603
 3746WAT     H111480   1.928   6.777   5.647
 3746WAT     H211481   2.082   6.749   5.601
 3747WAT      O11482   4.244   4.981   0.835
 3747WAT     H111483   4.234   5.073   0.873
 3747WAT     H211484   4.297   4.986   0.750
 3748WAT      O11485   7.448   9.169   3.182
 3748WAT     H111486   7.468   9.116   3.264
 3748WAT     H211487   7.428   9.106   3.106
 3749WAT      O11488   6.309   7.304   5.144
 3749WAT     H111489   6.211   7.288   5.154
 3749WAT     H211490   6.324   7.389   5.093
 3750WAT      O11491   5.855   3.982   4.781
 3750WAT     H111492   5.868   4.019   4.689
 3750WAT     H211493   5.764   4.006   4.814
 3751WAT      O11494   1.857   5.931   3.845
 3751WAT     H111495   1.901   6.020   3.857
 3751WAT     H211496   1.826   5.923   3.750
 3752WAT      O11497   2.097   8.554   8.400
 3752WAT     H111498   2.168   8.562   8.331
 3752WAT     H211499   2.041   8.637   8.401
 3753WAT      O11500   4.639   9.345   3.759
 3753WAT     H111501   4.678   9.437   3.756
 3753WAT     H211502   4.649   9.307   3.851
 3754WAT      O11503   0.875   3.031   7.774
 3754WAT     H111504   0.955   3.020   7.716
 3754WAT     H211505   0.857   2.946   7.823
 3755WAT      O11506   9.642   9.292   1.964
 3755WAT     H111507   9.701   9.223   2.006
 3755WAT     H211508   9.572   9.320   2.029
 3756WAT      O11509   2.403   4.621   4.737
 3756WAT     H111510   2.323   4.669   4.774
 3756WAT     H211511   2.458   4.685   4.683
 3757WAT      O11512   6.524   9.396   6.562
 3757WAT     H111513   6.560   9.303   6.552
 3757WAT     H211514   6.507   9.435   6.472
 3758WAT      O11515   3.296   8.576   0.687
 3758WAT     H111516   3.340   8.565   0.598
 3758WAT     H211517   3.241   8.495   0.707
 3759WAT      O11518   4.774   0.250   1.414
 3759WAT     H111519   4.831   0.255   1.332
 3759WAT     H211520   4.734   0.339   1.433
 3760WAT      O11521   4.564   3.248   2.026
 3760WAT     H111522   4.491   3.315   2.011
 3760WAT     H211523   4.529   3.156   2.008
 3761WAT      O11524   4.943   8.106   6.198
 3761WAT     H111525   4.930   8.160   6.281
 3761WAT     H211526   5.017   8.146   6.144
 3762WAT      O11527   2.971   2.993   1.478
 3762WAT     H111528   2.969   2.938   1.395
 3762WAT     H211529   2.877   3.013   1.507
 3763WAT      O11530   2.222   6.698   4.915
 3763WAT     H111531   2.317   6.699   4.883
 3763WAT     H211532   2.187   6.604   4.911
 3764WAT      O11533   1.267   8.484   1.662
 3764WAT     H111534   1.243   8.465   1.757
 3764WAT     H211535   1.286   8.398   1.614
 3765WAT      O11536   5.978   2.139   1.341
 3765WAT     H111537   6.018   2.201   1.273
 3765WAT     H211538   6.046   2.118   1.411
 3766WAT      O11539   4.961   5.102   8.290
 3766WAT     H111540   5.021   5.027   8.261
 3766WAT     H211541   4.914   5.140   8.211
 3767WAT      O11542   6.391   6.364   8.813
 3767WAT     H111543   6.481   6.322   8.827
 3767WAT     H211544   6.390   6.455   8.854
 3768WAT      O11545   2.346   8.468   9.498
 3768WAT     H111546   2.369   8.374   9.524
 3768WAT     H211547   2.382   8.531   9.566
 3769WAT      O11548   3.056   9.442   0.459
 3769WAT     H111549   3.050   9.530   0.411
 3769WAT     H211550   2.964   9.407   0.475
 3770WAT      O11551   9.686   1.431   1.568
 3770WAT     H111552   9.688   1.449   1.470
 3770WAT     H211553   9.650   1.339   1.584
 3771WAT      O11554   3.838   9.251   6.547
 3771WAT     H111555   3.933   9.222   6.536
 3771WAT     H211556   3.835   9.349   6.565
 3772WAT      O11557   0.487   0.624   4.229
 3772WAT     H111558   0.505   0.718   4.201
 3772WAT     H211559   0.571   0.583   4.264
 3773WAT      O11560   9.261   5.495   7.613
 3773WAT     H111561   9.356   5.521   7.592
 3773WAT     H211562   9.259   5.441   7.696
 3774WAT      O11563   4.890   5.521   9.399
 3774WAT     H111564   4.908   5.426   9.423
 3774WAT     H211565   4.923   5.538   9.306
 3775WAT      O11566   9.089   3.315   6.360
 3775WAT     H111567   9.085   3.412   6.383
 3775WAT     H211568   9.130   3.304   6.270
 3776WAT      O11569   3.100   5.005   0.830
 3776WAT     H111570   3.008   5.038   0.809
 3776WAT     H211571   3.095   4.914   0.870
 3777WAT      O11572   3.469   7.179   4.713
 3777WAT     H111573   3.434   7.239   4.785
 3777WAT     H211574   3.435   7.209   4.624
 3778WAT      O11575   2.577   4.012   7.171
 3778WAT     H111576   2.482   4.029   7.146
 3778WAT     H211577   2.617   3.947   7.106
 3779WAT      O11578   5.586   3.263   6.096
 3779WAT     H111579   5.546   3.355   6.086
 3779WAT     H211580   5.685   3.271   6.104
 3780WAT      O11581   3.994   3.734   4.152
 3780WAT     H111582   3.898   3.758   4.168
 3780WAT     H211583   4.030   3.684   4.231
 3781WAT      O11584   6.205   1.567   3.109
 3781WAT     H111585   6.251   1.540   3.024
 3781WAT     H211586   6.122   1.513   3.120
 3782WAT      O11587   8.783   6.504   6.570
 3782WAT     H111588   8.777   6.404   6.563
 3782WAT     H211589   8.856   6.537   6.511
 3783WAT      O11590   8.760   3.329   5.766
 3783WAT     H111591   8.750   3.323   5.866
 3783WAT     H211592   8.673   3.358   5.726
 3784WAT      O11593   3.639   1.285   8.146
 3784WAT     H111594   3.609   1.361   8.087
 3784WAT     H211595   3.732   1.304   8.179
 3785WAT      O11596   5.503   3.157   0.589
 3785WAT     H111597   5.444   3.097   0.643
 3785WAT     H211598   5.576   3.192   0.648
 3786WAT      O11599   3.286   5.660   5.538
 3786WAT     H111600   3.319   5.611   5.457
 3786WAT     H211601   3.355   5.725   5.568
 3787WAT      O11602   1.942   3.648   9.156
 3787WAT     H111603   1.996   3.660   9.074
 3787WAT     H211604   1.928   3.551   9.174
 3788WAT      O11605   5.120   6.840   0.755
 3788WAT     H111606   5.120   6.785   0.839
 3788WAT     H211607   5.082   6.930   0.776
 3789WAT      O11608   4.572   3.316   2.292
 3789WAT     H111609   4.552   3.317   2.194
 3789WAT     H211610   4.635   3.390   2.314
 3790WAT      O11611   1.591   4.620   8.001
 3790WAT     H111612   1.612   4.688   8.071
 3790WAT     H211613   1.676   4.581   7.967
 3791WAT      O11614   0.016   2.367   6.651
 3791WAT     H111615  -0.028   2.288   6.608
 3791WAT     H211616  -0.049   2.443   6.654
 3792WAT      O11617   3.443   3.480   6.172
 3792WAT     H111618   3.514   3.420   6.137
 3792WAT     H211619   3.413   3.448   6.262
 3793WAT      O11620   8.023   3.828   0.044
 3793WAT     H111621   7.926   3.815   0.067
 3793WAT     H211622   8.061   3.899   0.103
 3794WAT      O11623   3.515   0.777   9.005
 3794WAT     H111624   3.449   0.845   8.973
 3794WAT     H211625   3.604   0.793   8.961
 3795WAT      O11626   5.204   7.033   7.396
 3795WAT     H111627   5.194   7.021   7.495
 3795WAT     H211628   5.161   6.955   7.350
 3796WAT      O11629   8.515   1.233   1.309
 3796WAT     H111630   8.612   1.216   1.325
 3796WAT     H211631   8.496   1.331   1.319
 3797WAT      O11632   7.372   0.688   8.505
 3797WAT     H111633   7.293   0.688   8.566
 3797WAT     H211634   7.403   0.594   8.489
 3798WAT      O11635   7.848   6.035   6.906
 3798WAT     H111636   7.855   6.003   7.001
 3798WAT     H211637   7.799   6.122   6.904
 3799WAT      O11638   2.115   5.425   7.766
 3799WAT     H111639   2.172   5.395   7.843
 3799WAT     H211640   2.029   5.461   7.800
 3800WAT      O11641   5.005   3.272   9.747
 3800WAT     H111642   4.943   3.218   9.804
 3800WAT     H211643   4.996   3.369   9.770
 3801WAT      O11644   8.113   9.077   0.031
 3801WAT     H111645   8.153   9.168   0.023
 3801WAT     H211646   8.185   9.009   0.048
 3802WAT      O11647   2.497   5.489   6.400
 3802WAT     H111648   2.419   5.431   6.421
 3802WAT     H211649   2.470   5.585   6.407
 3803WAT      O11650   2.307   8.317   6.405
 3803WAT     H111651   2.215   8.306   6.441
 3803WAT     H211652   2.329   8.414   6.396
 3804WAT      O11653   2.157   2.879   8.014
 3804WAT     H111654   2.232   2.916   8.069
 3804WAT     H211655   2.069   2.909   8.053
 3805WAT      O11656   1.043   1.165   6.379
 3805WAT     H111657   1.129   1.188   6.334
 3805WAT     H211658   0.984   1.114   6.316
 3806WAT      O11659   9.682   9.646   6.076
 3806WAT     H111660   9.639   9.642   6.166
 3806WAT     H211661   9.706   9.554   6.046
 3807WAT      O11662   3.538   9.109   9.136
 3807WAT     H111663   3.465   9.176   9.147
 3807WAT     H211664   3.507   9.035   9.076
 3808WAT      O11665   6.868   4.595   7.521
 3808WAT     H111666   6.963   4.626   7.517
 3808WAT     H211667   6.814   4.643   7.452
 3809WAT      O11668   7.712   3.231   4.931
 3809WAT     H111669   7.747   3.235   4.837
 3809WAT     H211670   7.747   3.148   4.975
 3810WAT      O11671   2.395   5.031   0.380
 3810WAT     H111672   2.321   4.964   0.374
 3810WAT     H211673   2.404   5.079   0.293
 3811WAT      O11674   8.070   9.710   2.754
 3811WAT     H111675   8.137   9.669   2.815
 3811WAT     H211676   7.980   9.710   2.797
 3812WAT      O11677   2.043   3.441   1.918
 3812WAT     H111678   2.130   3.490   1.928
 3812WAT     H211679   2.015   3.445   1.822
 3813WAT      O11680   5.980   5.563   9.752
 3813WAT     H111681   6.018   5.542   9.842
 3813WAT     H211682   5.988   5.662   9.734
 3814WAT      O11683   4.345   0.926   2.679
 3814WAT     H111684   4.264   0.874   2.651
 3814WAT     H211685   4.392   0.960   2.598
 3815WAT      O11686   2.515   1.410   8.350
 3815WAT     H111687   2.570   1.492   8.366
 3815WAT     H211688   2.455   1.394   8.428
 3816WAT      O11689   4.437   1.648   2.406
 3816WAT     H111690   4.384   1.711   2.349
 3816WAT     H211691   4.381   1.568   2.428
 3817WAT      O11692   2.327   2.980   5.665
 3817WAT     H111693   2.231   2.951   5.657
 3817WAT     H211694   2.338   3.037   5.746
 3818WAT      O11695   9.517   9.302   0.916
 3818WAT     H111696   9.543   9.212   0.950
 3818WAT     H211697   9.426   9.296   0.874
 3819WAT      O11698   3.264   0.765   4.863
 3819WAT     H111699   3.316   0.810   4.936
 3819WAT     H211700   3.195   0.705   4.903
 3820WAT      O11701   4.819   4.243   1.995
 3820WAT     H111702   4.756   4.197   1.932
 3820WAT     H211703   4.864   4.175   2.052
 3821WAT      O11704   8.716   1.783   3.590
 3821WAT     H111705   8.755   1.803   3.500
 3821WAT     H211706   8.756   1.844   3.658
 3822WAT      O11707   4.655   3.552   3.123
 3822WAT     H111708   4.626   3.562   3.218
 3822WAT     H211709   4.584   3.503   3.072
 3823WAT      O11710   8.077   1.705   4.035
 3823WAT     H111711   8.077   1.682   3.938
 3823WAT     H211712   7.988   1.742   4.061
 3824WAT      O11713   1.522   8.487   5.539
 3824WAT     H111714   1.520   8.387   5.536
 3824WAT     H211715   1.493   8.518   5.630
 3825WAT      O11716   2.920   6.180   1.718
 3825WAT     H111717   2.920   6.090   1.761
 3825WAT     H211718   3.009   6.196   1.675
 3826WAT      O11719   9.751   9.807   1.382
 3826WAT     H111720   9.682   9.737   1.402
 3826WAT     H211721   9.814   9.815   1.459
 3827WAT      O11722   0.940   3.061   4.883
 3827WAT     H111723   0.871   2.992   4.906
 3827WAT     H211724   0.975   3.043   4.791
 3828WAT      O11725   7.478   4.262   9.248
 3828WAT     H111726   7.501   4.353   9.213
 3828WAT     H211727   7.384   4.239   9.222
 3829WAT      O11728   4.122   4.257   1.701
 3829WAT     H111729   4.198   4.321   1.685
 3829WAT     H211730   4.036   4.308   1.708
 3830WAT      O11731   3.337   0.849   3.425
 3830WAT     H111732   3.257   0.830   3.368
 3830WAT     H211733   3.412   0.789   3.398
 3831WAT      O11734   2.391   9.703   1.382
 3831WAT     H111735   2.360   9.774   1.319
 3831WAT     H211736   2.313   9.646   1.409
 3832WAT      O11737   3.074   4.214   2.259
 3832WAT     H111738   3.162   4.199   2.214
 3832WAT     H211739   3.089   4.237   2.355
 3833WAT      O11740   8.094   2.100   0.559
 3833WAT     H111741   8.013   2.151   0.531
 3833WAT     H211742   8.128   2.136   0.646
 3834WAT      O11743   7.161   9.329   1.999
 3834WAT     H111744   7.067   9.294   2.001
 3834WAT     H211745   7.224   9.258   2.030
 3835WAT      O11746   1.893   7.351   2.289
 3835WAT     H111747   1.796   7.330   2.282
 3835WAT     H211748   1.907   7.423   2.358
 3836WAT      O11749   8.490   6.240   5.872
 3836WAT     H111750   8.473   6.173   5.945
 3836WAT     H211751   8.441   6.325   5.893
 3837WAT      O11752   5.453   8.204   0.074
 3837WAT     H111753   5.547   8.197   0.107
 3837WAT     H211754   5.391   8.219   0.151
 3838WAT      O11755   3.407   1.565   9.126
 3838WAT     H111756   3.419   1.593   9.031
 3838WAT     H211757   3.334   1.619   9.168
 3839WAT      O11758   9.885   7.214   0.143
 3839WAT     H111759   9.878   7.302   0.190
 3839WAT     H211760   9.847   7.222   0.051
 3840WAT      O11761   2.164   9.225   7.823
 3840WAT     H111762   2.231   9.270   7.765
 3840WAT     H211763   2.204   9.143   7.863
 3841WAT      O11764   7.922   4.066   8.655
 3841WAT     H111765   7.942   4.001   8.728
 3841WAT     H211766   8.007   4.094   8.610
 3842WAT      O11767   9.131   3.019   0.827
 3842WAT     H111768   9.053   3.075   0.801
 3842WAT     H211769   9.210   3.079   0.845
 3843WAT      O11770   3.726   5.327   2.338
 3843WAT     H111771   3.682   5.370   2.417
 3843WAT     H211772   3.821   5.357   2.332
 3844WAT      O11773   8.616   7.800   9.356
 3844WAT     H111774   8.614   7.700   9.356
 3844WAT     H211775   8.673   7.832   9.432
 3845WAT      O11776   1.887   6.403   0.773
 3845WAT     H111777   1.843   6.316   0.749
 3845WAT     H211778   1.818   6.469   0.802
 3846WAT      O11779   2.085   8.919   2.008
 3846WAT     H111780   2.104   8.847   2.075
 3846WAT     H211781   2.044   8.998   2.055
 3847WAT      O11782   8.045   3.552   5.854
 3847WAT     H111783   8.088   3.513   5.773
 3847WAT     H211784   8.060   3.491   5.932
 3848WAT      O11785   4.670   8.542   9.102
 3848WAT     H111786   4.754   8.500   9.138
 3848WAT     H211787   4.618   8.582   9.177
 3849WAT      O11788   8.567   2.579   7.052
 3849WAT     H111789   8.610   2.538   7.133
 3849WAT     H211790   8.603   2.536   6.969
 3850WAT      O11791   3.179   5.321   0.396
 3850WAT     H111792   3.153   5.284   0.307
 3850WAT     H211793   3.240   5.399   0.383
 3851WAT      O11794   0.464   5.778   5.254
 3851WAT     H111795   0.442   5.870   5.287
 3851WAT     H211796   0.380   5.725   5.245
 3852WAT      O11797   1.585   5.685   2.224
 3852WAT     H111798   1.610   5.616   2.293
 3852WAT     H211799   1.584   5.775   2.267
 3853WAT      O11800   0.637   3.513   1.036
 3853WAT     H111801   0.672   3.420   1.046
 3853WAT     H211802   0.694   3.575   1.090
 3854WAT      O11803   0.533   0.626   0.825
 3854WAT     H111804   0.465   0.563   0.865
 3854WAT     H211805   0.511   0.641   0.729
 3855WAT      O11806   7.800   0.020   3.321
 3855WAT     H111807   7.748  -0.059   3.288
 3855WAT     H211808   7.737   0.089   3.357
 3856WAT      O11809   7.308   7.270   3.228
 3856WAT     H111810   7.331   7.282   3.132
 3856WAT     H211811   7.255   7.349   3.259
 3857WAT      O11812   5.566   9.626   3.187
 3857WAT     H111813   5.562   9.560   3.111
 3857WAT     H211814   5.620   9.586   3.261
 3858WAT      O11815   2.114   1.920   1.633
 3858WAT     H111816   2.186   1.850   1.633
 3858WAT     H211817   2.104   1.958   1.541
 3859WAT      O11818   5.521   5.922   5.760
 3859WAT     H111819   5.469   5.862   5.820
 3859WAT     H211820   5.476   6.012   5.755
 3860WAT      O11821   5.522   3.735   8.866
 3860WAT     H111822   5.544   3.652   8.917
 3860WAT     H211823   5.423   3.741   8.854
 3861WAT      O11824   5.480   0.823   7.147
 3861WAT     H111825   5.509   0.750   7.086
 3861WAT     H211826   5.557   0.884   7.166
 3862WAT      O11827   0.409   3.243   6.223
 3862WAT     H111828   0.417   3.146   6.202
 3862WAT     H211829   0.482   3.293   6.176
 3863WAT      O11830   0.548   1.013   0.673
 3863WAT     H111831   0.449   1.030   0.677
 3863WAT     H211832   0.571   0.937   0.734
 3864WAT      O11833   4.454   6.143   3.872
 3864WAT     H111834   4.551   6.163   3.887
 3864WAT     H211835   4.398   6.213   3.916
 3865WAT      O11836   0.665   7.698   6.623
 3865WAT     H111837   0.601   7.756   6.572
 3865WAT     H211838   0.730   7.656   6.560
 3866WAT      O11839   6.666   7.244   1.241
 3866WAT     H111840   6.709   7.326   1.202
 3866WAT     H211841   6.733   7.194   1.295
 3867WAT      O11842   5.877   8.147   4.801
 3867WAT     H111843   5.954   8.183   4.855
 3867WAT     H211844   5.793   8.195   4.826
 3868WAT      O11845   6.397   2.023   6.820
 3868WAT     H111846   6.311   2.072   6.805
 3868WAT     H211847   6.422   2.029   6.917
 3869WAT      O11848   2.756   7.847   9.321
 3869WAT     H111849   2.777   7.939   9.289
 3869WAT     H211850   2.692   7.852   9.398
 3870WAT      O11851   1.829   3.290   8.597
 3870WAT     H111852   1.856   3.385   8.613
 3870WAT     H211853   1.776   3.257   8.675
 3871WAT      O11854   2.600   7.934   1.614
 3871WAT     H111855   2.640   7.937   1.706
 3871WAT     H211856   2.534   8.008   1.605
 3872WAT      O11857   5.117   1.886   6.384
 3872WAT     H111858   5.178   1.826   6.436
 3872WAT     H211859   5.171   1.950   6.330
 3873WAT      O11860   8.371   4.683   3.045
 3873WAT     H111861   8.414   4.738   2.972
 3873WAT     H211862   8.273   4.675   3.027
 3874WAT      O11863   8.792   0.329   7.297
 3874WAT     H111864   8.801   0.429   7.306
 3874WAT     H211865   8.708   0.298   7.342
 3875WAT      O11866   2.615   1.049   9.433
 3875WAT     H111867   2.693   0.989   9.416
 3875WAT     H211868   2.641   1.119   9.499
 3876WAT      O11869   8.560   6.420   2.368
 3876WAT     H111870   8.503   6.346   2.405
 3876WAT     H211871   8.637   6.436   2.430
 3877WAT      O11872   4.916   6.687   0.560
 3877WAT     H111873   4.917   6.777   0.603
 3877WAT     H211874   4.877   6.694   0.468
 3878WAT      O11875   2.875   1.106   1.497
 3878WAT     H111876   2.819   1.034   1.455
 3878WAT     H211877   2.822   1.152   1.568
 3879WAT      O11878   1.270   4.212   7.496
 3879WAT     H111879   1.295   4.115   7.490
 3879WAT     H211880   1.313   4.252   7.577
 3880WAT      O11881   7.985   7.194   9.051
 3880WAT     H111882   7.967   7.273   9.110
 3880WAT     H211883   8.082   7.170   9.057
 3881WAT      O11884   7.571   5.597   1.982
 3881WAT     H111885   7.649   5.612   1.921
 3881WAT     H211886   7.557   5.499   1.995
 3882WAT      O11887   6.981   4.726   2.443
 3882WAT     H111888   7.056   4.716   2.377
 3882WAT     H211889   6.895   4.740   2.395
 3883WAT      O11890   4.214   7.077   8.756
 3883WAT     H111891   4.264   7.030   8.684
 3883WAT     H211892   4.261   7.163   8.779
 3884WAT      O11893   1.961   9.171   9.411
 3884WAT     H111894   1.997   9.091   9.363
 3884WAT     H211895   1.870   9.151   9.446
 3885WAT      O11896   1.439   6.319   1.817
 3885WAT     H111897   1.387   6.328   1.733
 3885WAT     H211898   1.421   6.397   1.877
 3886WAT      O11899   3.875   9.170   2.061
 3886WAT     H111900   3.869   9.079   2.100
 3886WAT     H211901   3.925   9.167   1.974
 3887WAT      O11902   5.152   8.141   4.159
 3887WAT     H111903   5.163   8.133   4.060
 3887WAT     H211904   5.102   8.225   4.180
 3888WAT      O11905   6.205   3.380   1.292
 3888WAT     H111906   6.220   3.312   1.220
 3888WAT     H211907   6.108   3.381   1.317
 3889WAT      O11908   7.465   1.374   1.331
 3889WAT     H111909   7.453   1.351   1.428
 3889WAT     H211910   7.474   1.289   1.278
 3890WAT      O11911   5.411   1.244   8.825
 3890WAT     H111912   5.406   1.335   8.867
 3890WAT     H211913   5.319   1.212   8.805
 3891WAT      O11914   6.672   1.303   6.031
 3891WAT     H111915   6.697   1.272   6.123
 3891WAT     H211916   6.589   1.358   6.036
 3892WAT      O11917   7.863   7.077   5.681
 3892WAT     H111918   7.952   7.113   5.650
 3892WAT     H211919   7.866   6.977   5.681
 3893WAT      O11920   5.992   9.733   4.872
 3893WAT     H111921   6.059   9.745   4.946
 3893WAT     H211922   5.925   9.807   4.877
 3894WAT      O11923   7.707   9.004   3.577
 3894WAT     H111924   7.631   8.939   3.578
 3894WAT     H211925   7.672   9.097   3.589
 3895WAT      O11926   0.309   7.994   6.906
 3895WAT     H111927   0.299   7.967   7.002
 3895WAT     H211928   0.271   8.085   6.893
 3896WAT      O11929   7.974   4.636   6.416
 3896WAT     H111930   7.957   4.545   6.455
 3896WAT     H211931   7.889   4.689   6.419
 3897WAT      O11932   6.171   2.307   0.519
 3897WAT     H111933   6.260   2.319   0.564
 3897WAT     H211934   6.102   2.284   0.587
 3898WAT      O11935   1.338   2.900   9.017
 3898WAT     H111936   1.252   2.943   8.988
 3898WAT     H211937   1.332   2.877   9.114
 3899WAT      O11938   5.018   8.134   0.396
 3899WAT     H111939   4.973   8.060   0.447
 3899WAT     H211940   5.100   8.163   0.445
 3900WAT      O11941   4.402   7.521   3.862
 3900WAT     H111942   4.442   7.563   3.944
 3900WAT     H211943   4.464   7.450   3.828
 3901WAT      O11944   9.433   9.460   5.329
 3901WAT     H111945   9.363   9.490   5.264
 3901WAT     H211946   9.390   9.413   5.406
 3902WAT      O11947   5.486   5.161   8.805
 3902WAT     H111948   5.463   5.257   8.821
 3902WAT     H211949   5.536   5.125   8.884
 3903WAT      O11950   9.859   1.413   4.534
 3903WAT     H111951   9.788   1.406   4.604
 3903WAT     H211952   9.892   1.322   4.511
 3904WAT      O11953   8.652   9.641   0.893
 3904WAT     H111954   8.611   9.650   0.803
 3904WAT     H211955   8.583   9.656   0.963
 3905WAT      O11956   4.265   0.692   9.516
 3905WAT     H111957   4.317   0.774   9.492
 3905WAT     H211958   4.312   0.644   9.590
 3906WAT      O11959   5.481   5.500   1.757
 3906WAT     H111960   5.527   5.456   1.835
 3906WAT     H211961   5.399   5.448   1.733
 3907WAT      O11962   5.656   7.779   8.171
 3907WAT     H111963   5.745   7.740   8.193
 3907WAT     H211964   5.584   7.718   8.203
 3908WAT      O11965   3.344   5.512   2.245
 3908WAT     H111966   3.368   5.568   2.324
 3908WAT     H211967   3.419   5.449   2.224
 3909WAT      O11968   6.099   4.920   8.876
 3909WAT     H111969   6.179   4.938   8.818
 3909WAT     H211970   6.122   4.936   8.972
 3910WAT      O11971   6.008   4.337   5.196
 3910WAT     H111972   5.960   4.411   5.148
 3910WAT     H211973   6.045   4.372   5.282
 3911WAT      O11974   3.762   2.650   8.348
 3911WAT     H111975   3.726   2.656   8.441
 3911WAT     H211976   3.849   2.699   8.343
 3912WAT      O11977   0.689   1.436   9.443
 3912WAT     H111978   0.646   1.468   9.358
 3912WAT     H211979   0.618   1.417   9.510
 3913WAT      O11980   1.767   3.009   1.963
 3913WAT     H111981   1.849   2.968   2.004
 3913WAT     H211982   1.696   3.017   2.033
 3914WAT      O11983   7.336   8.299   0.710
 3914WAT     H111984   7.278   8.371   0.672
 3914WAT     H211985   7.279   8.235   0.761
 3915WAT      O11986   4.160   3.620   1.486
 3915WAT     H111987   4.196   3.711   1.465
 3915WAT     H211988   4.234   3.553   1.481
 3916WAT      O11989   5.937   8.753   8.447
 3916WAT     H111990   6.003   8.784   8.515
 3916WAT     H211991   5.937   8.653   8.444
 3917WAT      O11992   5.868   0.028   6.910
 3917WAT     H111993   5.804  -0.049   6.922
 3917WAT     H211994   5.954  -0.006   6.873
 3918WAT      O11995   7.814   3.643   2.191
 3918WAT     H111996   7.818   3.633   2.291
 3918WAT     H211997   7.720   3.626   2.160
 3919WAT      O11998   8.080   6.014   6.736
 3919WAT     H111999   8.076   6.097   6.680
 3919WAT     H212000   8.011   6.020   6.809
 3920WAT      O12001   2.379   1.461   6.765
 3920WAT     H112002   2.299   1.484   6.710
 3920WAT     H212003   2.426   1.545   6.793
 3921WAT      O12004   2.192   6.888   1.322
 3921WAT     H112005   2.282   6.915   1.288
 3921WAT     H212006   2.125   6.959   1.301
 3922WAT      O12007   0.785   6.904   3.680
 3922WAT     H112008   0.788   6.815   3.725
 3922WAT     H212009   0.844   6.968   3.728
 3923WAT      O12010   4.013   3.309   2.179
 3923WAT     H112011   3.930   3.360   2.200
 3923WAT     H212012   3.997   3.250   2.101
 3924WAT      O12013   8.001   1.540   6.809
 3924WAT     H112014   7.954   1.573   6.728
 3924WAT     H212015   8.015   1.441   6.802
 3925WAT      O12016   9.892   8.840   0.529
 3925WAT     H112017   9.865   8.932   0.558
 3925WAT     H212018   9.863   8.774   0.599
 3926WAT      O12019   2.495   5.535   7.339
 3926WAT     H112020   2.505   5.575   7.248
 3926WAT     H212021   2.580   5.489   7.364
 3927WAT      O12022   6.705   9.432   2.175
 3927WAT     H112023   6.629   9.391   2.227
 3927WAT     H212024   6.693   9.531   2.171
 3928WAT      O12025   1.757   5.048   4.038
 3928WAT     H112026   1.670   5.095   4.053
 3928WAT     H212027   1.743   4.950   4.047
 3929WAT      O12028   5.818   0.453   7.906
 3929WAT     H112029   5.898   0.432   7.963
 3929WAT     H212030   5.815   0.551   7.888
 3930WAT      O12031   9.268   8.635   0.616
 3930WAT     H112032   9.256   8.700   0.691
 3930WAT     H212033   9.247   8.543   0.648
 3931WAT      O12034   8.050   8.152   5.948
 3931WAT     H112035   7.984   8.211   5.901
 3931WAT     H212036   8.033   8.155   6.047
 3932WAT      O12037   6.535   1.675   4.694
 3932WAT     H112038   6.460   1.661   4.628
 3932WAT     H212039   6.518   1.758   4.747
 3933WAT      O12040   6.647   5.578   2.202
 3933WAT     H112041   6.646   5.636   2.284
 3933WAT     H212042   6.579   5.612   2.137
 3934WAT      O12043   8.849   0.651   8.523
 3934WAT     H112044   8.937   0.606   8.515
 3934WAT     H212045   8.789   0.598   8.583
 3935WAT      O12046   5.830   2.114   3.069
 3935WAT     H112047   5.811   2.029   3.118
 3935WAT     H212048   5.925   2.140   3.083
 3936WAT      O12049   0.547   8.437   7.902
 3936WAT     H112050   0.644   8.447   7.925
 3936WAT     H212051   0.494   8.430   7.986
 3937WAT      O12052   5.889   2.759   4.509
 3937WAT     H112053   5.937   2.704   4.577
 3937WAT     H212054   5.911   2.855   4.522
 3938WAT      O12055   1.414   1.769   3.130
 3938WAT     H112056   1.492   1.803   3.078
 3938WAT     H212057   1.369   1.846   3.176
 3939WAT      O12058   9.407   6.550   1.464
 3939WAT     H112059   9.433   6.607   1.542
 3939WAT     H212060   9.427   6.599   1.379
 3940WAT      O12061   1.152   5.966   4.952
 3940WAT     H112062   1.204   5.896   4.902
 3940WAT     H212063   1.092   6.014   4.888
 3941WAT      O12064   7.842   7.383   8.196
 3941WAT     H112065   7.909   7.336   8.254
 3941WAT     H212066   7.830   7.332   8.111
 3942WAT      O12067   0.851   4.582   5.347
 3942WAT     H112068   0.913   4.654   5.318
 3942WAT     H212069   0.773   4.622   5.394
 3943WAT      O12070   5.202   0.681   3.686
 3943WAT     H112071   5.244   0.630   3.611
 3943WAT     H212072   5.103   0.667   3.684
 3944WAT      O12073   5.919   6.323   0.583
 3944WAT     H112074   5.831   6.280   0.602
 3944WAT     H212075   5.992   6.270   0.626
 3945WAT      O12076   6.815   3.528   9.321
 3945WAT     H112077   6.768   3.588   9.257
 3945WAT     H212078   6.778   3.541   9.413
 3946WAT      O12079   7.752   5.718   2.968
 3946WAT     H112080   7.660   5.683   2.949
 3946WAT     H212081   7.762   5.808   2.927
 3947WAT      O12082   6.680   4.185   2.584
 3947WAT     H112083   6.645   4.200   2.491
 3947WAT     H212084   6.604   4.161   2.644
 3948WAT      O12085   4.298   7.835   7.502
 3948WAT     H112086   4.339   7.785   7.578
 3948WAT     H212087   4.207   7.867   7.529
 3949WAT      O12088   4.706   8.337   6.103
 3949WAT     H112089   4.614   8.371   6.086
 3949WAT     H212090   4.762   8.410   6.141
 3950WAT      O12091   2.180   2.305   6.960
 3950WAT     H112092   2.245   2.380   6.961
 3950WAT     H212093   2.147   2.287   7.053
 3951WAT      O12094   1.147   3.434   9.584
 3951WAT     H112095   1.178   3.382   9.505
 3951WAT     H212096   1.052   3.463   9.571
 3952WAT      O12097   6.489   5.334   6.090
 3952WAT     H112098   6.408   5.274   6.089
 3952WAT     H212099   6.493   5.382   6.178
 3953WAT      O12100   7.140   9.559   1.039
 3953WAT     H112101   7.041   9.550   1.024
 3953WAT     H212102   7.183   9.594   0.956
 3954WAT      O12103   8.728   4.623   8.280
 3954WAT     H112104   8.787   4.663   8.210
 3954WAT     H212105   8.675   4.695   8.324
 3955WAT      O12106   8.535   7.463   6.713
 3955WAT     H112107   8.485   7.549   6.727
 3955WAT     H212108   8.488   7.408   6.644
 3956WAT      O12109   8.505   2.903   1.012
 3956WAT     H112110   8.596   2.885   0.975
 3956WAT     H212111   8.439   2.905   0.937
 3957WAT      O12112   5.557   5.429   8.820
 3957WAT     H112113   5.644   5.434   8.771
 3957WAT     H212114   5.491   5.490   8.776
 3958WAT      O12115   5.320   8.224   6.795
 3958WAT     H112116   5.416   8.242   6.772
 3958WAT     H212117   5.276   8.177   6.718
 3959WAT      O12118   6.221   2.852   0.356
 3959WAT     H112119   6.133   2.892   0.382
 3959WAT     H212120   6.241   2.874   0.261
 3960WAT      O12121   4.405   2.913   0.986
 3960WAT     H112122   4.482   2.961   1.028
 3960WAT     H212123   4.437   2.825   0.950
 3961WAT      O12124   2.142   5.583   3.921
 3961WAT     H112125   2.098   5.503   3.881
 3961WAT     H212126   2.120   5.589   4.019
 3962WAT      O12127   2.396   3.368   4.211
 3962WAT     H112128   2.341   3.413   4.140
 3962WAT     H212129   2.438   3.286   4.173
 3963WAT      O12130   1.854   6.234   5.726
 3963WAT     H112131   1.836   6.251   5.629
 3963WAT     H212132   1.951   6.250   5.745
 3964WAT      O12133   9.739   6.678   9.600
 3964WAT     H112134   9.646   6.712   9.613
 3964WAT     H212135   9.746   6.586   9.639
 3965WAT      O12136   3.338   6.766   7.444
 3965WAT     H112137   3.294   6.794   7.529
 3965WAT     H212138   3.272   6.717   7.386
 3966WAT      O12139   2.136   2.737   7.025
 3966WAT     H112140   2.056   2.678   7.014
 3966WAT     H212141   2.218   2.687   6.998
 3967WAT      O12142   6.521   5.810   4.782
 3967WAT     H112143   6.615   5.837   4.757
 3967WAT     H212144   6.464   5.891   4.790
 3968WAT      O12145   8.378   3.638   8.033
 3968WAT     H112146   8.379   3.568   7.961
 3968WAT     H212147   8.315   3.610   8.106
 3969WAT      O12148   3.381   8.662   8.848
 3969WAT     H112149   3.289   8.625   8.833
 3969WAT     H212150   3.427   8.610   8.920
 3970WAT      O12151   4.712   3.274   4.423
 3970WAT     H112152   4.764   3.265   4.338
 3970WAT     H212153   4.645   3.348   4.414
 3971WAT      O12154   7.965   0.090   0.063
 3971WAT     H112155   7.929   0.178   0.094
 3971WAT     H212156   7.911   0.057  -0.014
 3972WAT      O12157   5.136   0.320   8.623
 3972WAT     H112158   5.158   0.397   8.683
 3972WAT     H212159   5.043   0.289   8.641
 3973WAT      O12160   8.202   9.264   6.860
 3973WAT     H112161   8.173   9.342   6.804
 3973WAT     H212162   8.187   9.284   6.957
 3974WAT      O12163   1.937   3.109   9.683
 3974WAT     H112164   1.967   3.042   9.615
 3974WAT     H212165   1.853   3.154   9.651
 3975WAT      O12166   4.258   6.633   8.266
 3975WAT     H112167   4.170   6.637   8.218
 3975WAT     H212168   4.257   6.558   8.332
 3976WAT      O12169   3.024   3.719   3.934
 3976WAT     H112170   2.946   3.781   3.932
 3976WAT     H212171   2.992   3.625   3.930
 3977WAT      O12172   8.603   9.777   8.636
 3977WAT     H112173   8.656   9.811   8.714
 3977WAT     H212174   8.523   9.728   8.669
 3978WAT      O12175   5.097   4.994   2.622
 3978WAT     H112176   5.187   4.952   2.608
 3978WAT     H212177   5.108   5.086   2.659
 3979WAT      O12178   1.228   3.255   2.523
 3979WAT     H112179   1.180   3.343   2.524
 3979WAT     H212180   1.182   3.193   2.460
 3980WAT      O12181   3.171   3.540   2.668
 3980WAT     H112182   3.116   3.503   2.743
 3980WAT     H212183   3.253   3.484   2.657
 3981WAT      O12184   5.081   4.915   1.780
 3981WAT     H112185   5.048   4.836   1.832
 3981WAT     H212186   5.033   4.997   1.810
 3982WAT      O12187   0.581   9.346   5.499
 3982WAT     H112188   0.557   9.436   5.463
 3982WAT     H212189   0.554   9.342   5.596
 3983WAT      O12190   8.739   9.385   0.905
 3983WAT     H112191   8.703   9.477   0.923
 3983WAT     H212192   8.771   9.380   0.811
 3984WAT      O12193   9.788   4.261   1.342
 3984WAT     H112194   9.846   4.338   1.318
 3984WAT     H212195   9.775   4.202   1.261
 3985WAT      O12196   2.994   7.339   3.230
 3985WAT     H112197   2.922   7.358   3.297
 3985WAT     H212198   2.953   7.332   3.139
 3986WAT      O12199   7.291   5.043   7.404
 3986WAT     H112200   7.289   5.024   7.502
 3986WAT     H212201   7.197   5.054   7.370
 3987WAT      O12202   3.757   1.449   0.389
 3987WAT     H112203   3.687   1.519   0.400
 3987WAT     H212204   3.812   1.443   0.473
 3988WAT      O12205   4.856   1.862   6.885
 3988WAT     H112206   4.869   1.766   6.911
 3988WAT     H212207   4.910   1.881   6.802
 3989WAT      O12208   2.099   7.688   6.130
 3989WAT     H112209   2.176   7.624   6.122
 3989WAT     H212210   2.043   7.662   6.208
 3990WAT      O12211   4.803   8.602   7.764
 3990WAT     H112212   4.800   8.696   7.732
 3990WAT     H212213   4.743   8.591   7.843
 3991WAT      O12214   3.263   4.072   1.483
 3991WAT     H112215   3.320   4.150   1.456
 3991WAT     H212216   3.170   4.104   1.503
 3992WAT      O12217   0.807   4.796   4.600
 3992WAT     H112218   0.867   4.716   4.609
 3992WAT     H212219   0.768   4.818   4.689
 3993WAT      O12220   6.694   3.112   0.566
 3993WAT     H112221   6.627   3.039   0.585
 3993WAT     H212222   6.650   3.185   0.515
 3994WAT      O12223   5.930   5.210   3.287
 3994WAT     H112224   5.836   5.179   3.295
 3994WAT     H212225   5.945   5.250   3.196
 3995WAT      O12226   2.790   3.860   7.934
 3995WAT     H112227   2.703   3.888   7.974
 3995WAT     H212228   2.827   3.935   7.879
 3996WAT      O12229   6.696   2.029   1.668
 3996WAT     H112230   6.642   1.978   1.735
 3996WAT     H212231   6.666   2.006   1.576
 3997WAT      O12232   3.874   3.790   9.404
 3997WAT     H112233   3.833   3.826   9.488
 3997WAT     H212234   3.966   3.755   9.425
 3998WAT      O12235   3.164   8.050   3.323
 3998WAT     H112236   3.086   8.037   3.262
 3998WAT     H212237   3.167   8.145   3.354
 3999WAT      O12238   0.734   1.595   8.549
 3999WAT     H112239   0.696   1.529   8.613
 3999WAT     H212240   0.660   1.641   8.500
 4000WAT      O12241   8.311   3.390   0.267
 4000WAT     H112242   8.290   3.406   0.171
 4000WAT     H212243   8.397   3.435   0.290
 4001WAT      O12244   2.616   6.093   6.662
 4001WAT     H112245   2.631   6.031   6.585
 4001WAT     H212246   2.537   6.151   6.643
 4002WAT      O12247   9.302   0.094   0.019
 4002WAT     H112248   9.271   0.108   0.113
 4002WAT     H212249   9.340   0.179  -0.017
 4003WAT      O12250   5.841   6.901   3.224
 4003WAT     H112251   5.817   6.895   3.321
 4003WAT     H212252   5.763   6.936   3.172
 4004WAT      O12253   5.702   5.239   1.011
 4004WAT     H112254   5.788   5.280   1.041
 4004WAT     H212255   5.641   5.228   1.089
 4005WAT      O12256   5.103   5.905   2.015
 4005WAT     H112257   5.021   5.885   1.961
 4005WAT     H212258   5.103   6.001   2.042
 4006WAT      O12259   8.671   7.663   2.576
 4006WAT     H112260   8.649   7.752   2.615
 4006WAT     H212261   8.617   7.648   2.492
 4007WAT      O12262   0.848   1.657   7.546
 4007WAT     H112263   0.810   1.684   7.457
 4007WAT     H212264   0.913   1.726   7.577
 4008WAT      O12265   6.796   3.403   2.799
 4008WAT     H112266   6.783   3.347   2.717
 4008WAT     H212267   6.867   3.472   2.780
 4009WAT      O12268   4.057   9.029   4.005
 4009WAT     H112269   4.122   8.997   4.073
 4009WAT     H212270   4.060   9.128   3.998
 4010WAT      O12271   0.635   1.474   6.685
 4010WAT     H112272   0.694   1.460   6.606
 4010WAT     H212273   0.691   1.484   6.767
 4011WAT      O12274   2.549   3.982   1.731
 4011WAT     H112275   2.523   3.998   1.827
 4011WAT     H212276   2.615   3.908   1.727
 4012WAT      O12277   7.079   0.188   8.333
 4012WAT     H112278   7.156   0.231   8.380
 4012WAT     H212279   7.037   0.119   8.392
 4013WAT      O12280   3.568   1.849   2.111
 4013WAT     H112281   3.485   1.870   2.163
 4013WAT     H212282   3.624   1.784   2.163
 4014WAT      O12283   0.486   8.299   9.823
 4014WAT     H112284   0.572   8.251   9.838
 4014WAT     H212285   0.474   8.317   9.725
 4015WAT      O12286   2.044   1.211   2.212
 4015WAT     H112287   2.095   1.134   2.251
 4015WAT     H212288   2.062   1.294   2.266
 4016WAT      O12289   4.602   7.752   0.557
 4016WAT     H112290   4.603   7.732   0.459
 4016WAT     H212291   4.690   7.728   0.597
 4017WAT      O12292   3.763   8.905   4.889
 4017WAT     H112293   3.736   8.835   4.824
 4017WAT     H212294   3.815   8.863   4.964
 4018WAT      O12295   5.164   9.320   0.340
 4018WAT     H112296   5.231   9.362   0.401
 4018WAT     H212297   5.183   9.222   0.332
 4019WAT      O12298   9.725   7.409   0.869
 4019WAT     H112299   9.656   7.379   0.803
 4019WAT     H212300   9.697   7.496   0.910
 4020WAT      O12301   9.683   0.946   0.369
 4020WAT     H112302   9.774   0.920   0.402
 4020WAT     H212303   9.673   0.920   0.273
 4021WAT      O12304   7.774   7.936   6.990
 4021WAT     H112305   7.716   7.956   6.911
 4021WAT     H212306   7.764   8.008   7.058
 4022WAT      O12307   8.829   8.473   7.946
 4022WAT     H112308   8.845   8.397   7.883
 4022WAT     H212309   8.902   8.541   7.937
 4023WAT      O12310   1.895   4.803   6.810
 4023WAT     H112311   1.842   4.877   6.852
 4023WAT     H212312   1.943   4.838   6.730
 4024WAT      O12313   4.938   0.314   3.584
 4024WAT     H112314   4.879   0.251   3.633
 4024WAT     H212315   4.882   0.382   3.536
 4025WAT      O12316   9.000   2.432   1.088
 4025WAT     H112317   8.985   2.361   1.156
 4025WAT     H212318   8.942   2.511   1.109
 4026WAT      O12319   8.102   3.039   9.345
 4026WAT     H112320   8.056   3.004   9.427
 4026WAT     H212321   8.086   2.976   9.269
 4027WAT      O12322   1.615   4.063   7.311
 4027WAT     H112323   1.582   4.095   7.222
 4027WAT     H212324   1.707   4.025   7.301
 4028WAT      O12325   7.361   7.169   7.761
 4028WAT     H112326   7.270   7.130   7.756
 4028WAT     H212327   7.359   7.251   7.819
 4029WAT      O12328   0.462   1.226   7.004
 4029WAT     H112329   0.502   1.263   7.088
 4029WAT     H212330   0.491   1.131   6.993
 4030WAT      O12331   7.054   4.046   0.031
 4030WAT     H112332   7.023   3.971  -0.027
 4030WAT     H212333   7.017   4.034   0.123
 4031WAT      O12334   5.695   7.859   2.087
 4031WAT     H112335   5.759   7.792   2.050
 4031WAT     H212336   5.745   7.935   2.129
 4032WAT      O12337   2.439   2.623   4.976
 4032WAT     H112338   2.505   2.561   4.933
 4032WAT     H212339   2.472   2.717   4.969
 4033WAT      O12340   8.522   9.786   9.516
 4033WAT     H112341   8.484   9.736   9.595
 4033WAT     H212342   8.447   9.814   9.456
 4034WAT      O12343   9.777   7.081   6.277
 4034WAT     H112344   9.760   7.169   6.231
 4034WAT     H212345   9.701   7.019   6.259
 4035WAT      O12346   2.934   9.386   1.434
 4035WAT     H112347   2.989   9.356   1.511
 4035WAT     H212348   2.929   9.486   1.433
 4036WAT      O12349   8.806   4.856   4.573
 4036WAT     H112350   8.872   4.917   4.529
 4036WAT     H212351   8.845   4.820   4.658
 4037WAT      O12352   2.791   0.728   8.667
 4037WAT     H112353   2.858   0.798   8.644
 4037WAT     H212354   2.825   0.638   8.639
 4038WAT      O12355   3.666   8.056   3.350
 4038WAT     H112356   3.683   8.039   3.447
 4038WAT     H212357   3.571   8.031   3.329
 4039WAT      O12358   6.746   7.761   9.778
 4039WAT     H112359   6.796   7.835   9.823
 4039WAT     H212360   6.798   7.727   9.700
 4040WAT      O12361   2.084   7.472   5.465
 4040WAT     H112362   1.999   7.475   5.517
 4040WAT     H212363   2.068   7.505   5.372
 4041WAT      O12364   3.572   4.628   2.220
 4041WAT     H112365   3.672   4.630   2.213
 4041WAT     H212366   3.545   4.666   2.309
 4042WAT      O12367   5.961   9.428   3.121
 4042WAT     H112368   5.919   9.345   3.085
 4042WAT     H212369   6.043   9.405   3.173
 4043WAT      O12370   2.014   8.987   0.547
 4043WAT     H112371   2.014   9.084   0.573
 4043WAT     H212372   2.009   8.931   0.630
 4044WAT      O12373   6.760   2.585   0.308
 4044WAT     H112374   6.787   2.562   0.214
 4044WAT     H212375   6.807   2.523   0.371
 4045WAT      O12376   3.537   4.141   0.200
 4045WAT     H112377   3.526   4.089   0.115
 4045WAT     H212378   3.577   4.230   0.179
 4046WAT      O12379   9.814   2.855   3.441
 4046WAT     H112380   9.726   2.839   3.486
 4046WAT     H212381   9.875   2.778   3.458
 4047WAT      O12382   3.701   8.493   4.528
 4047WAT     H112383   3.641   8.487   4.448
 4047WAT     H212384   3.713   8.401   4.567
 4048WAT      O12385   6.026   4.148   4.068
 4048WAT     H112386   5.960   4.120   4.138
 4048WAT     H212387   5.989   4.126   3.977
 4049WAT      O12388   7.257   5.394   1.809
 4049WAT     H112389   7.329   5.451   1.769
 4049WAT     H212390   7.168   5.420   1.772
 4050WAT      O12391   2.503   5.607   2.829
 4050WAT     H112392   2.567   5.684   2.831
 4050WAT     H212393   2.547   5.529   2.786
 4051WAT      O12394   6.184   6.521   5.146
 4051WAT     H112395   6.227   6.492   5.232
 4051WAT     H212396   6.085   6.532   5.160
 4052WAT      O12397   1.514   2.017   8.005
 4052WAT     H112398   1.550   2.003   7.913
 4052WAT     H212399   1.414   2.010   8.003
 4053WAT      O12400   9.183   5.478   2.303
 4053WAT     H112401   9.206   5.381   2.292
 4053WAT     H212402   9.183   5.502   2.400
 4054WAT      O12403   5.715   2.116   7.842
 4054WAT     H112404   5.649   2.095   7.769
 4054WAT     H212405   5.698   2.058   7.921
 4055WAT      O12406   1.799   0.872   9.673
 4055WAT     H112407   1.795   0.795   9.736
 4055WAT     H212408   1.784   0.840   9.580
 4056WAT      O12409   1.343   9.637   3.179
 4056WAT     H112410   1.315   9.673   3.268
 4056WAT     H212411   1.406   9.701   3.135
 4057WAT      O12412   1.309   2.277   0.430
 4057WAT     H112413   1.292   2.332   0.348
 4057WAT     H212414   1.230   2.282   0.491
 4058WAT      O12415   2.051   6.672   2.053
 4058WAT     H112416   2.027   6.756   2.101
 4058WAT     H212417   1.969   6.617   2.040
 4059WAT      O12418   1.727   8.432   6.695
 4059WAT     H112419   1.771   8.488   6.625
 4059WAT     H212420   1.638   8.472   6.718
 4060WAT      O12421   9.565   3.026   6.021
 4060WAT     H112422   9.559   3.096   5.949
 4060WAT     H212423   9.483   3.030   6.079
 4061WAT      O12424   6.504   6.107   7.077
 4061WAT     H112425   6.533   6.093   6.982
 4061WAT     H212426   6.576   6.075   7.139
 4062WAT      O12427   2.587   8.436   3.295
 4062WAT     H112428   2.571   8.373   3.219
 4062WAT     H212429   2.583   8.530   3.262
 4063WAT      O12430   6.128   0.962   1.735
 4063WAT     H112431   6.155   1.018   1.657
 4063WAT     H212432   6.114   1.021   1.815
 4064WAT      O12433   1.075   1.279   1.620
 4064WAT     H112434   1.150   1.286   1.554
 4064WAT     H212435   1.007   1.213   1.586
 4065WAT      O12436   5.604   0.673   1.761
 4065WAT     H112437   5.567   0.703   1.673
 4065WAT     H212438   5.554   0.593   1.792
 4066WAT      O12439   1.495   3.135   8.251
 4066WAT     H112440   1.494   3.216   8.309
 4066WAT     H212441   1.568   3.073   8.279
 4067WAT      O12442   0.449   1.714   9.107
 4067WAT     H112443   0.513   1.702   9.031
 4067WAT     H212444   0.440   1.628   9.157
 4068WAT      O12445   8.789   9.091   6.322
 4068WAT     H112446   8.765   9.004   6.367
 4068WAT     H212447   8.888   9.093   6.306
 4069WAT      O12448   7.361   9.753   5.405
 4069WAT     H112449   7.406   9.666   5.384
 4069WAT     H212450   7.418   9.828   5.373
 4070WAT      O12451   9.513   3.717   6.101
 4070WAT     H112452   9.428   3.684   6.142
 4070WAT     H212453   9.525   3.676   6.010
 4071WAT      O12454   4.110   9.202   8.096
 4071WAT     H112455   4.015   9.196   8.064
 4071WAT     H212456   4.136   9.298   8.106
 4072WAT      O12457   2.318   4.547   2.417
 4072WAT     H112458   2.292   4.635   2.376
 4072WAT     H212459   2.418   4.545   2.430
 4073WAT      O12460   8.693   7.396   7.485
 4073WAT     H112461   8.699   7.302   7.451
 4073WAT     H212462   8.603   7.434   7.462
 4074WAT      O12463   3.268   2.062   8.621
 4074WAT     H112464   3.287   2.019   8.533
 4074WAT     H212465   3.325   2.144   8.630
 4075WAT      O12466   2.730   3.246   0.431
 4075WAT     H112467   2.642   3.209   0.459
 4075WAT     H212468   2.797   3.232   0.505
 4076WAT      O12469   7.773   3.900   2.888
 4076WAT     H112470   7.788   3.813   2.937
 4076WAT     H212471   7.682   3.936   2.910
 4077WAT      O12472   6.070   5.556   3.550
 4077WAT     H112473   6.129   5.628   3.589
 4077WAT     H212474   6.019   5.594   3.473
 4078WAT      O12475   2.429   4.381   3.330
 4078WAT     H112476   2.390   4.366   3.239
 4078WAT     H212477   2.496   4.310   3.349
 4079WAT      O12478   7.725   7.107   8.036
 4079WAT     H112479   7.650   7.173   8.039
 4079WAT     H212480   7.761   7.093   8.128
 4080WAT      O12481   2.231   2.651   4.660
 4080WAT     H112482   2.174   2.598   4.723
 4080WAT     H212483   2.244   2.599   4.576
 4081WAT      O12484   8.065   5.603   8.751
 4081WAT     H112485   8.100   5.653   8.831
 4081WAT     H212486   7.972   5.634   8.731
 4082WAT      O12487   8.872   7.329   4.353
 4082WAT     H112488   8.852   7.238   4.390
 4082WAT     H212489   8.816   7.345   4.272
 4083WAT      O12490   0.309   9.615   8.048
 4083WAT     H112491   0.285   9.606   8.145
 4083WAT     H212492   0.287   9.529   8.001
 4084WAT      O12493   1.832   3.918   4.578
 4084WAT     H112494   1.931   3.905   4.578
 4084WAT     H212495   1.790   3.854   4.643
 4085WAT      O12496   5.443   6.117   1.353
 4085WAT     H112497   5.355   6.154   1.383
 4085WAT     H212498   5.517   6.172   1.392
 4086WAT      O12499   4.729   4.880   5.279
 4086WAT     H112500   4.751   4.978   5.272
 4086WAT     H212501   4.814   4.828   5.286
 4087WAT      O12502   8.729   5.371   0.349
 4087WAT     H112503   8.816   5.379   0.399
 4087WAT     H212504   8.742   5.405   0.256
 4088WAT      O12505   7.624   9.589   2.032
 4088WAT     H112506   7.656   9.624   2.120
 4088WAT     H212507   7.562   9.512   2.047
 4089WAT      O12508   2.514   1.449   0.486
 4089WAT     H112509   2.481   1.517   0.422
 4089WAT     H212510   2.571   1.383   0.438
 4090WAT      O12511   9.333   8.777   6.174
 4090WAT     H112512   9.377   8.811   6.092
 4090WAT     H212513   9.320   8.678   6.167
 4091WAT      O12514   4.875   2.340   4.892
 4091WAT     H112515   4.953   2.280   4.873
 4091WAT     H212516   4.905   2.435   4.886
 4092WAT      O12517   7.742   0.756   5.993
 4092WAT     H112518   7.646   0.733   6.007
 4092WAT     H212519   7.772   0.722   5.904
 4093WAT      O12520   1.052   8.914   1.149
 4093WAT     H112521   1.141   8.931   1.106
 4093WAT     H212522   1.055   8.946   1.244
 4094WAT      O12523   9.772   9.408   2.900
 4094WAT     H112524   9.854   9.357   2.872
 4094WAT     H212525   9.797   9.478   2.967
 4095WAT      O12526   6.949   3.255   3.398
 4095WAT     H112527   6.904   3.192   3.461
 4095WAT     H212528   7.048   3.249   3.410
 4096WAT      O12529   6.735   8.970   8.953
 4096WAT     H112530   6.664   8.910   8.916
 4096WAT     H212531   6.747   8.950   9.050
 4097WAT      O12532   5.157   6.864   3.020
 4097WAT     H112533   5.115   6.782   2.981
 4097WAT     H212534   5.100   6.897   3.096
 4098WAT      O12535   4.668   9.720   4.814
 4098WAT     H112536   4.571   9.721   4.840
 4098WAT     H212537   4.700   9.814   4.804
 4099WAT      O12538   8.167   6.319   8.447
 4099WAT     H112539   8.214   6.351   8.365
 4099WAT     H212540   8.135   6.398   8.500
 4100WAT      O12541   0.881   5.714   9.051
 4100WAT     H112542   0.906   5.627   9.007
 4100WAT     H212543   0.806   5.697   9.115
 4101WAT      O12544   0.270   9.561   9.459
 4101WAT     H112545   0.335   9.637   9.466
 4101WAT     H212546   0.281   9.500   9.537
 4102WAT      O12547   1.949   9.382   3.816
 4102WAT     H112548   1.915   9.475   3.827
 4102WAT     H212549   2.028   9.368   3.876
 4103WAT      O12550   3.860   8.257   4.001
 4103WAT     H112551   3.904   8.219   3.920
 4103WAT     H212552   3.858   8.357   3.993
 4104WAT      O12553   7.376   1.336   6.058
 4104WAT     H112554   7.339   1.345   5.966
 4104WAT     H212555   7.308   1.295   6.118
 4105WAT      O12556   7.367   0.918   1.722
 4105WAT     H112557   7.277   0.958   1.739
 4105WAT     H212558   7.438   0.989   1.731
 4106WAT      O12559   4.069   5.432   6.760
 4106WAT     H112560   4.015   5.392   6.833
 4106WAT     H212561   4.052   5.530   6.755
 4107WAT      O12562   0.910   7.323   3.131
 4107WAT     H112563   0.939   7.294   3.040
 4107WAT     H212564   0.981   7.301   3.198
 4108WAT      O12565   7.644   2.079   9.315
 4108WAT     H112566   7.557   2.109   9.353
 4108WAT     H212567   7.676   1.997   9.363
 4109WAT      O12568   4.221   0.776   0.294
 4109WAT     H112569   4.208   0.803   0.198
 4109WAT     H212570   4.299   0.715   0.301
 4110WAT      O12571   7.144   1.070   0.389
 4110WAT     H112572   7.210   1.113   0.449
 4110WAT     H212573   7.072   1.027   0.444
 4111WAT      O12574   9.599   0.592   7.997
 4111WAT     H112575   9.590   0.627   7.904
 4111WAT     H212576   9.673   0.524   8.000
 4112WAT      O12577   1.075   2.449   7.638
 4112WAT     H112578   1.040   2.453   7.731
 4112WAT     H212579   1.069   2.539   7.596
 4113WAT      O12580   2.840   0.535   6.159
 4113WAT     H112581   2.825   0.621   6.207
 4113WAT     H212582   2.798   0.539   6.069
 4114WAT      O12583   8.639   0.025   2.245
 4114WAT     H112584   8.728  -0.019   2.229
 4114WAT     H212585   8.585  -0.030   2.309
 4115WAT      O12586   6.255   2.075   3.312
 4115WAT     H112587   6.183   2.142   3.332
 4115WAT     H212588   6.339   2.123   3.285
 4116WAT      O12589   6.591   1.932   6.033
 4116WAT     H112590   6.523   1.859   6.021
 4116WAT     H212591   6.617   1.968   5.943
 4117WAT      O12592   7.704   1.325   7.686
 4117WAT     H112593   7.788   1.324   7.741
 4117WAT     H212594   7.684   1.419   7.659
 4118WAT      O12595   4.215   5.293   5.195
 4118WAT     H112596   4.312   5.300   5.172
 4118WAT     H212597   4.204   5.291   5.294
 4119WAT      O12598   3.381   7.996   1.446
 4119WAT     H112599   3.342   7.904   1.459
 4119WAT     H212600   3.423   8.026   1.532
 4120WAT      O12601   5.060   2.793   7.074
 4120WAT     H112602   5.151   2.794   7.034
 4120WAT     H212603   5.008   2.717   7.037
 4121WAT      O12604   1.093   0.977   6.815
 4121WAT     H112605   1.161   0.904   6.805
 4121WAT     H212606   1.077   1.019   6.725
 4122WAT      O12607   7.733   7.562   9.057
 4122WAT     H112608   7.810   7.519   9.009
 4122WAT     H212609   7.657   7.575   8.993
 4123WAT      O12610   5.175   5.553   8.119
 4123WAT     H112611   5.156   5.513   8.029
 4123WAT     H212612   5.237   5.493   8.169
 4124WAT      O12613   8.529   4.990   8.864
 4124WAT     H112614   8.612   5.009   8.918
 4124WAT     H212615   8.542   5.024   8.771
 4125WAT      O12616   4.097   3.750   8.186
 4125WAT     H112617   4.100   3.664   8.236
 4125WAT     H212618   4.134   3.823   8.243
 4126WAT      O12619   7.373   7.639   7.839
 4126WAT     H112620   7.468   7.613   7.853
 4126WAT     H212621   7.357   7.728   7.880
 4127WAT      O12622   8.335   8.113   1.446
 4127WAT     H112623   8.331   8.205   1.485
 4127WAT     H212624   8.252   8.063   1.472
 4128WAT      O12625   8.673   3.561   8.120
 4128WAT     H112626   8.586   3.574   8.072
 4128WAT     H212627   8.747   3.599   8.065
 4129WAT      O12628   6.242   8.474   1.233
 4129WAT     H112629   6.325   8.518   1.267
 4129WAT     H212630   6.266   8.389   1.186
 4130WAT      O12631   1.038   2.998   7.204
 4130WAT     H112632   1.049   3.007   7.105
 4130WAT     H212633   0.947   2.962   7.225
 4131WAT      O12634   0.443   3.845   2.353
 4131WAT     H112635   0.464   3.860   2.256
 4131WAT     H212636   0.483   3.758   2.382
 4132WAT      O12637   3.963   6.741   8.204
 4132WAT     H112638   3.999   6.762   8.113
 4132WAT     H212639   3.959   6.825   8.258
 4133WAT      O12640   4.427   8.745   5.915
 4133WAT     H112641   4.496   8.800   5.962
 4133WAT     H212642   4.424   8.654   5.956
 4134WAT      O12643   1.442   2.137   3.942
 4134WAT     H112644   1.419   2.136   3.844
 4134WAT     H212645   1.474   2.047   3.970
 4135WAT      O12646   9.179   7.583   0.647
 4135WAT     H112647   9.161   7.567   0.744
 4135WAT     H212648   9.180   7.682   0.629
 4136WAT      O12649   1.382   8.679   8.082
 4136WAT     H112650   1.370   8.769   8.039
 4136WAT     H212651   1.475   8.672   8.119
 4137WAT      O12652   5.874   0.505   0.861
 4137WAT     H112653   5.872   0.431   0.929
 4137WAT     H212654   5.891   0.465   0.771
 4138WAT      O12655   6.689   7.219   6.121
 4138WAT     H112656   6.717   7.163   6.043
 4138WAT     H212657   6.720   7.313   6.107
 4139WAT      O12658   1.472   2.283   9.473
 4139WAT     H112659   1.397   2.327   9.425
 4139WAT     H212660   1.526   2.230   9.408
 4140WAT      O12661   8.123   4.023   0.212
 4140WAT     H112662   8.192   4.026   0.284
 4140WAT     H212663   8.056   4.096   0.226
 4141WAT      O12664   6.522   3.533   8.793
 4141WAT     H112665   6.575   3.574   8.719
 4141WAT     H212666   6.454   3.598   8.826
 4142WAT      O12667   3.007   2.503   2.889
 4142WAT     H112668   3.033   2.414   2.851
 4142WAT     H212669   2.933   2.542   2.835
 4143WAT      O12670   9.033   6.507   2.558
 4143WAT     H112671   8.935   6.491   2.573
 4143WAT     H212672   9.069   6.561   2.634
 4144WAT      O12673   7.723   0.392   0.000
 4144WAT     H112674   7.777   0.347   0.071
 4144WAT     H212675   7.660   0.325  -0.041
 4145WAT      O12676   1.110   2.209   5.081
 4145WAT     H112677   1.031   2.253   5.038
 4145WAT     H212678   1.079   2.150   5.155
 4146WAT      O12679   4.855   1.459   7.567
 4146WAT     H112680   4.829   1.397   7.494
 4146WAT     H212681   4.954   1.455   7.581
 4147WAT      O12682   6.834   1.455   6.824
 4147WAT     H112683   6.742   1.490   6.803
 4147WAT     H212684   6.892   1.531   6.855
 4148WAT      O12685   6.115   5.509   0.086
 4148WAT     H112686   6.133   5.601   0.122
 4148WAT     H212687   6.053   5.461   0.147
 4149WAT      O12688   1.693   1.048   5.728
 4149WAT     H112689   1.706   1.130   5.672
 4149WAT     H212690   1.717   1.067   5.823
 4150WAT      O12691   0.240   9.547   3.492
 4150WAT     H112692   0.262   9.463   3.542
 4150WAT     H212693   0.189   9.609   3.552
 4151WAT      O12694   3.952   2.522   9.628
 4151WAT     H112695   3.888   2.449   9.603
 4151WAT     H212696   3.927   2.558   9.718
 4152WAT      O12697   4.342   4.871   1.084
 4152WAT     H112698   4.441   4.877   1.071
 4152WAT     H212699   4.295   4.887   0.997
 4153WAT      O12700   8.423   9.820   3.507
 4153WAT     H112701   8.442   9.744   3.445
 4153WAT     H212702   8.508   9.856   3.543
 4154WAT      O12703   1.537   9.035   5.512
 4154WAT     H112704   1.482   8.965   5.557
 4154WAT     H212705   1.576   8.997   5.428
 4155WAT      O12706   2.620   3.628   3.258
 4155WAT     H112707   2.635   3.727   3.257
 4155WAT     H212708   2.669   3.587   3.335
 4156WAT      O12709   8.972   7.962   4.898
 4156WAT     H112710   9.063   7.969   4.858
 4156WAT     H212711   8.977   7.982   4.996
 4157WAT      O12712   7.468   9.512   5.382
 4157WAT     H112713   7.512   9.499   5.471
 4157WAT     H212714   7.528   9.478   5.310
 4158WAT      O12715   6.140   4.313   7.893
 4158WAT     H112716   6.075   4.386   7.871
 4158WAT     H212717   6.152   4.309   7.992
 4159WAT      O12718   6.049   6.360   1.828
 4159WAT     H112719   6.049   6.263   1.852
 4159WAT     H212720   6.126   6.405   1.873
 4160WAT      O12721   3.609   2.104   5.428
 4160WAT     H112722   3.685   2.169   5.424
 4160WAT     H212723   3.581   2.090   5.523
 4161WAT      O12724   8.771   9.027   1.856
 4161WAT     H112725   8.693   9.018   1.794
 4161WAT     H212726   8.851   9.055   1.804
 4162WAT      O12727   1.303   3.671   2.937
 4162WAT     H112728   1.307   3.761   2.980
 4162WAT     H212729   1.370   3.666   2.863
 4163WAT      O12730   6.940   8.755   0.399
 4163WAT     H112731   6.918   8.684   0.332
 4163WAT     H212732   6.874   8.751   0.475
 4164WAT      O12733   1.378   6.733   1.708
 4164WAT     H112734   1.455   6.709   1.649
 4164WAT     H212735   1.294   6.736   1.654
 4165WAT      O12736   3.937   2.042   8.508
 4165WAT     H112737   3.904   2.045   8.603
 4165WAT     H212738   4.029   2.003   8.506
 4166WAT      O12739   2.154   4.987   0.773
 4166WAT     H112740   2.130   5.053   0.702
 4166WAT     H212741   2.172   5.035   0.858
 4167WAT      O12742   5.111   3.497   4.339
 4167WAT     H112743   5.053   3.477   4.419
 4167WAT     H212744   5.191   3.437   4.341
 4168WAT      O12745   2.029   6.936   5.896
 4168WAT     H112746   2.082   6.884   5.829
 4168WAT     H212747   2.005   7.025   5.857
 4169WAT      O12748   2.277   0.574   8.349
 4169WAT     H112749   2.201   0.629   8.384
 4169WAT     H212750   2.363   0.621   8.369
 4170WAT      O12751   6.140   5.875   8.767
 4170WAT     H112752   6.079   5.946   8.731
 4170WAT     H212753   6.235   5.901   8.751
 4171WAT      O12754   9.541   4.354   7.057
 4171WAT     H112755   9.540   4.419   6.981
 4171WAT     H212756   9.635   4.335   7.084
 4172WAT      O12757   3.117   6.661   5.002
 4172WAT     H112758   3.194   6.667   5.065
 4172WAT     H212759   3.150   6.655   4.908
 4173WAT      O12760   6.447   3.369   5.138
 4173WAT     H112761   6.428   3.468   5.137
 4173WAT     H212762   6.481   3.343   5.228
 4174WAT      O12763   5.209   1.771   0.083
 4174WAT     H112764   5.283   1.839   0.083
 4174WAT     H212765   5.159   1.778   0.169
 4175WAT      O12766   5.766   5.475   7.821
 4175WAT     H112767   5.830   5.549   7.840
 4175WAT     H212768   5.807   5.411   7.756
 4176WAT      O12769   3.569   8.591   5.681
 4176WAT     H112770   3.646   8.528   5.668
 4176WAT     H212771   3.553   8.643   5.597
 4177WAT      O12772   6.955   3.916   7.822
 4177WAT     H112773   6.987   3.825   7.796
 4177WAT     H212774   7.025   3.961   7.877
 4178WAT      O12775   7.145   4.379   2.540
 4178WAT     H112776   7.117   4.295   2.494
 4178WAT     H212777   7.067   4.420   2.586
 4179WAT      O12778   8.336   8.780   5.222
 4179WAT     H112779   8.335   8.879   5.231
 4179WAT     H212780   8.329   8.755   5.126
 4180WAT      O12781   4.560   2.333   8.109
 4180WAT     H112782   4.528   2.300   8.020
 4180WAT     H212783   4.620   2.265   8.150
 4181WAT      O12784   2.287   9.583   3.612
 4181WAT     H112785   2.381   9.575   3.645
 4181WAT     H212786   2.249   9.491   3.597
 4182WAT      O12787   9.488   5.361   4.782
 4182WAT     H112788   9.476   5.453   4.745
 4182WAT     H212789   9.470   5.294   4.710
 4183WAT      O12790   3.636   9.475   2.837
 4183WAT     H112791   3.705   9.472   2.764
 4183WAT     H212792   3.547   9.498   2.798
 4184WAT      O12793   7.057   1.951   7.935
 4184WAT     H112794   7.096   2.035   7.898
 4184WAT     H212795   7.048   1.884   7.862
 4185WAT      O12796   7.363   4.915   0.566
 4185WAT     H112797   7.327   4.983   0.630
 4185WAT     H212798   7.294   4.896   0.496
 4186WAT      O12799   6.113   7.859   0.244
 4186WAT     H112800   6.146   7.916   0.169
 4186WAT     H212801   6.033   7.807   0.213
 4187WAT      O12802   7.983   3.433   0.950
 4187WAT     H112803   7.906   3.477   0.998
 4187WAT     H212804   8.068   3.477   0.978
 4188WAT      O12805   2.381   3.455   7.734
 4188WAT     H112806   2.447   3.525   7.761
 4188WAT     H212807   2.406   3.368   7.775
 4189WAT      O12808   6.581   1.230   3.943
 4189WAT     H112809   6.598   1.223   4.041
 4189WAT     H212810   6.656   1.280   3.900
 4190WAT      O12811   3.122   1.758   7.555
 4190WAT     H112812   3.178   1.739   7.475
 4190WAT     H212813   3.106   1.674   7.606
 4191WAT      O12814   9.551   1.343   8.359
 4191WAT     H112815   9.523   1.268   8.299
 4191WAT     H212816   9.491   1.421   8.345
 4192WAT      O12817   8.165   3.161   0.331
 4192WAT     H112818   8.210   3.080   0.367
 4192WAT     H212819   8.233   3.235   0.321
 4193WAT      O12820   4.352   4.027   9.112
 4193WAT     H112821   4.360   3.939   9.065
 4193WAT     H212822   4.370   4.101   9.048
 4194WAT      O12823   0.945   3.893   4.947
 4194WAT     H112824   1.003   3.974   4.943
 4194WAT     H212825   1.001   3.812   4.957
 4195WAT      O12826   7.289   7.569   2.587
 4195WAT     H112827   7.237   7.599   2.667
 4195WAT     H212828   7.227   7.531   2.519
 4196WAT      O12829   3.561   8.198   0.752
 4196WAT     H112830   3.661   8.205   0.753
 4196WAT     H212831   3.521   8.290   0.744
 4197WAT      O12832   3.778   4.500   0.560
 4197WAT     H112833   3.851   4.549   0.609
 4197WAT     H212834   3.730   4.564   0.500
 4198WAT      O12835   8.111   6.694   2.929
 4198WAT     H112836   8.012   6.692   2.944
 4198WAT     H212837   8.130   6.677   2.832
 4199WAT      O12838   0.150   5.017   0.549
 4199WAT     H112839   0.146   5.032   0.648
 4199WAT     H212840   0.232   5.059   0.512
 4200WAT      O12841   0.776   2.659   7.541
 4200WAT     H112842   0.726   2.654   7.455
 4200WAT     H212843   0.871   2.684   7.522
 4201WAT      O12844   2.974   8.311   4.816
 4201WAT     H112845   2.911   8.248   4.861
 4201WAT     H212846   3.043   8.342   4.881
 4202WAT      O12847   7.384   2.047   6.107
 4202WAT     H112848   7.470   2.003   6.079
 4202WAT     H212849   7.344   2.094   6.028
 4203WAT      O12850   2.711   0.129   1.231
 4203WAT     H112851   2.750   0.219   1.213
 4203WAT     H212852   2.774   0.076   1.288
 4204WAT      O12853   7.594   2.778   6.546
 4204WAT     H112854   7.663   2.734   6.488
 4204WAT     H212855   7.636   2.856   6.593
 4205WAT      O12856   7.033   0.846   4.057
 4205WAT     H112857   6.973   0.774   4.021
 4205WAT     H212858   7.060   0.824   4.150
 4206WAT      O12859   8.177   9.446   5.236
 4206WAT     H112860   8.262   9.395   5.242
 4206WAT     H212861   8.118   9.422   5.314
 4207WAT      O12862   0.202   8.844   4.264
 4207WAT     H112863   0.145   8.813   4.340
 4207WAT     H212864   0.293   8.803   4.270
 4208WAT      O12865   1.435   3.343   9.253
 4208WAT     H112866   1.511   3.297   9.207
 4208WAT     H212867   1.470   3.408   9.320
 4209WAT      O12868   1.167   3.828   2.705
 4209WAT     H112869   1.215   3.759   2.759
 4209WAT     H212870   1.182   3.919   2.745
 4210WAT      O12871   9.700   5.834   1.574
 4210WAT     H112872   9.725   5.822   1.477
 4210WAT     H212873   9.611   5.880   1.579
 4211WAT      O12874   6.103   1.100   6.052
 4211WAT     H112875   6.157   1.105   5.968
 4211WAT     H212876   6.135   1.022   6.108
 4212WAT      O12877   8.627   3.076   3.437
 4212WAT     H112878   8.549   3.125   3.399
 4212WAT     H212879   8.618   3.072   3.537
 4213WAT      O12880   7.060   2.619   0.868
 4213WAT     H112881   7.054   2.599   0.966
 4213WAT     H212882   7.065   2.718   0.855
 4214WAT      O12883   3.313   2.283   5.377
 4214WAT     H112884   3.404   2.322   5.364
 4214WAT     H212885   3.319   2.206   5.441
 4215WAT      O12886   1.154   8.958   9.248
 4215WAT     H112887   1.067   8.941   9.296
 4215WAT     H212888   1.204   9.030   9.295
 4216WAT      O12889   9.233   7.646   0.110
 4216WAT     H112890   9.325   7.658   0.147
 4216WAT     H212891   9.228   7.560   0.060
 4217WAT      O12892   3.187   4.978   2.189
 4217WAT     H112893   3.226   4.890   2.214
 4217WAT     H212894   3.101   4.991   2.240
 4218WAT      O12895   2.894   6.249   4.874
 4218WAT     H112896   2.876   6.156   4.841
 4218WAT     H212897   2.963   6.245   4.947
 4219WAT      O12898   3.072   6.015   0.034
 4219WAT     H112899   3.074   6.037  -0.064
 4219WAT     H212900   3.003   6.072   0.080
 4220WAT      O12901   4.876   6.802   8.429
 4220WAT     H112902   4.885   6.702   8.425
 4220WAT     H212903   4.873   6.839   8.336
 4221WAT      O12904   8.833   0.234   2.154
 4221WAT     H112905   8.778   0.292   2.094
 4221WAT     H212906   8.772   0.173   2.206
 4222WAT      O12907   6.027   9.455   5.087
 4222WAT     H112908   6.000   9.441   4.992
 4222WAT     H212909   6.124   9.479   5.091
 4223WAT      O12910   3.798   5.717   7.078
 4223WAT     H112911   3.890   5.700   7.043
 4223WAT     H212912   3.804   5.774   7.160
 4224WAT      O12913   2.306   1.627   9.720
 4224WAT     H112914   2.280   1.549   9.663
 4224WAT     H212915   2.396   1.611   9.760
 4225WAT      O12916   0.440   7.709   5.352
 4225WAT     H112917   0.476   7.664   5.433
 4225WAT     H212918   0.358   7.760   5.376
 4226WAT      O12919   4.313   3.618   3.572
 4226WAT     H112920   4.232   3.623   3.631
 4226WAT     H212921   4.370   3.542   3.601
 4227WAT      O12922   5.794   5.506   6.796
 4227WAT     H112923   5.829   5.414   6.810
 4227WAT     H212924   5.865   5.563   6.754
 4228WAT      O12925   2.483   7.456   8.580
 4228WAT     H112926   2.574   7.490   8.600
 4228WAT     H212927   2.426   7.530   8.544
 4229WAT      O12928   8.288   1.167   2.687
 4229WAT     H112929   8.223   1.179   2.762
 4229WAT     H212930   8.239   1.139   2.605
 4230WAT      O12931   2.139   8.581   6.193
 4230WAT     H112932   2.042   8.560   6.183
 4230WAT     H212933   2.184   8.579   6.104
 4231WAT      O12934   8.726   3.324   6.031
 4231WAT     H112935   8.728   3.327   6.131
 4231WAT     H212936   8.664   3.394   5.997
 4232WAT      O12937   3.021   6.562   1.276
 4232WAT     H112938   3.095   6.567   1.208
 4232WAT     H212939   2.971   6.477   1.264
 4233WAT      O12940   0.638   3.675   8.772
 4233WAT     H112941   0.609   3.759   8.817
 4233WAT     H212942   0.736   3.663   8.785
 4234WAT      O12943   8.895   1.301   1.828
 4234WAT     H112944   8.866   1.383   1.777
 4234WAT     H212945   8.994   1.302   1.839
 4235WAT      O12946   5.914   5.395   1.932
 4235WAT     H112947   5.892   5.415   2.028
 4235WAT     H212948   5.868   5.310   1.905
 4236WAT      O12949   1.366   4.924   6.693
 4236WAT     H112950   1.326   4.839   6.729
 4236WAT     H212951   1.414   4.971   6.767
 4237WAT      O12952   2.926   4.499   5.902
 4237WAT     H112953   2.868   4.571   5.865
 4237WAT     H212954   2.970   4.532   5.986
 4238WAT      O12955   7.351   3.872   8.055
 4238WAT     H112956   7.428   3.832   8.104
 4238WAT     H212957   7.378   3.894   7.961
 4239WAT      O12958   7.999   9.144   3.694
 4239WAT     H112959   7.943   9.069   3.729
 4239WAT     H212960   8.070   9.107   3.633
 4240WAT      O12961   0.323   2.799   9.033
 4240WAT     H112962   0.318   2.704   9.002
 4240WAT     H212963   0.381   2.804   9.115
 4241WAT      O12964   3.893   1.790   5.501
 4241WAT     H112965   3.870   1.868   5.560
 4241WAT     H212966   3.820   1.778   5.433
 4242WAT      O12967   5.073   2.461   5.966
 4242WAT     H112968   5.031   2.502   6.047
 4242WAT     H212969   5.156   2.413   5.992
 4243WAT      O12970   7.988   7.754   4.281
 4243WAT     H112971   8.072   7.769   4.229
 4243WAT     H212972   7.990   7.810   4.364
 4244WAT      O12973   2.210   7.127   6.828
 4244WAT     H112974   2.270   7.061   6.782
 4244WAT     H212975   2.195   7.099   6.922
 4245WAT      O12976   1.872   5.132   0.986
 4245WAT     H112977   1.930   5.063   1.030
 4245WAT     H212978   1.843   5.200   1.054
 4246WAT      O12979   4.057   2.325   7.699
 4246WAT     H112980   4.045   2.338   7.601
 4246WAT     H212981   3.974   2.354   7.747
 4247WAT      O12982   2.860   6.985   1.935
 4247WAT     H112983   2.914   6.923   1.878
 4247WAT     H212984   2.841   6.943   2.023
 4248WAT      O12985   0.758   4.623   3.118
 4248WAT     H112986   0.765   4.609   3.217
 4248WAT     H212987   0.741   4.535   3.073
 4249WAT      O12988   2.844   8.039   9.676
 4249WAT     H112989   2.784   8.058   9.754
 4249WAT     H212990   2.886   7.949   9.687
 4250WAT      O12991   6.317   5.841   2.563
 4250WAT     H112992   6.274   5.870   2.649
 4250WAT     H212993   6.324   5.741   2.561
 4251WAT      O12994   8.607   1.874   5.155
 4251WAT     H112995   8.706   1.865   5.143
 4251WAT     H212996   8.579   1.826   5.239
 4252WAT      O12997   0.415   4.319   7.038
 4252WAT     H112998   0.464   4.232   7.044
 4252WAT     H212999   0.474   4.393   7.072
 4253WAT      O13000   1.390   1.914   4.680
 4253WAT     H113001   1.394   1.972   4.598
 4253WAT     H213002   1.354   1.824   4.655
 4254WAT      O13003   1.867   9.337   4.300
 4254WAT     H113004   1.781   9.286   4.309
 4254WAT     H213005   1.939   9.291   4.350
 4255WAT      O13006   0.481   3.057   2.202
 4255WAT     H113007   0.527   3.106   2.129
 4255WAT     H213008   0.414   2.994   2.163
 4256WAT      O13009   9.501   0.267   7.096
 4256WAT     H113010   9.520   0.330   7.172
 4256WAT     H213011   9.460   0.318   7.021
 4257WAT      O13012   2.901   7.611   5.489
 4257WAT     H113013   2.810   7.605   5.448
 4257WAT     H213014   2.896   7.584   5.586
 4258WAT      O13015   0.544   5.416   2.450
 4258WAT     H113016   0.508   5.405   2.358
 4258WAT     H213017   0.487   5.366   2.515
 4259WAT      O13018   9.582   1.346   8.627
 4259WAT     H113019   9.515   1.407   8.669
 4259WAT     H213020   9.552   1.323   8.534
 4260WAT      O13021   0.269   1.226   3.171
 4260WAT     H113022   0.259   1.168   3.091
 4260WAT     H213023   0.253   1.322   3.146
 4261WAT      O13024   1.846   1.584   7.461
 4261WAT     H113025   1.891   1.653   7.404
 4261WAT     H213026   1.915   1.529   7.508
 4262WAT      O13027   3.347   5.198   2.170
 4262WAT     H113028   3.292   5.115   2.170
 4262WAT     H213029   3.341   5.241   2.260
 4263WAT      O13030   5.039   9.730   6.929
 4263WAT     H113031   5.024   9.700   6.834
 4263WAT     H213032   4.988   9.815   6.945
 4264WAT      O13033   4.247   1.592   0.391
 4264WAT     H113034   4.211   1.581   0.298
 4264WAT     H213035   4.346   1.580   0.389
 4265WAT      O13036   9.562   6.589   5.581
 4265WAT     H113037   9.511   6.650   5.642
 4265WAT     H213038   9.571   6.632   5.491
 4266WAT      O13039   8.793   1.724   7.983
 4266WAT     H113040   8.811   1.747   7.888
 4266WAT     H213041   8.738   1.796   8.025
 4267WAT      O13042   6.401   8.614   5.850
 4267WAT     H113043   6.395   8.681   5.775
 4267WAT     H213044   6.308   8.586   5.876
 4268WAT      O13045   6.594   1.932   6.319
 4268WAT     H113046   6.499   1.936   6.348
 4268WAT     H213047   6.599   1.931   6.219
 4269WAT      O13048   2.994   2.576   8.342
 4269WAT     H113049   2.904   2.531   8.344
 4269WAT     H213050   3.062   2.514   8.381
 4270WAT      O13051   6.905   1.485   8.760
 4270WAT     H113052   6.987   1.519   8.806
 4270WAT     H213053   6.823   1.522   8.804
 4271WAT      O13054   2.853   0.273   2.444
 4271WAT     H113055   2.828   0.214   2.367
 4271WAT     H213056   2.814   0.364   2.430
 4272WAT      O13057   8.100   6.532   6.661
 4272WAT     H113058   8.175   6.595   6.681
 4272WAT     H213059   8.034   6.576   6.600
 4273WAT      O13060   3.521   0.532   6.722
 4273WAT     H113061   3.612   0.547   6.762
 4273WAT     H213062   3.482   0.621   6.696
 4274WAT      O13063   0.671   4.891   8.084
 4274WAT     H113064   0.592   4.831   8.068
 4274WAT     H213065   0.670   4.967   8.020
 4275WAT      O13066   1.641   3.994   0.912
 4275WAT     H113067   1.693   4.037   0.986
 4275WAT     H213068   1.551   4.037   0.906
 4276WAT      O13069   0.402   4.453   4.675
 4276WAT     H113070   0.491   4.424   4.637
 4276WAT     H213071   0.333   4.384   4.654
 4277WAT      O13072   9.035   7.189   8.381
 4277WAT     H113073   9.052   7.121   8.310
 4277WAT     H213074   8.942   7.178   8.416
 4278WAT      O13075   4.604   6.158   3.458
 4278WAT     H113076   4.563   6.238   3.415
 4278WAT     H213077   4.649   6.186   3.543
 4279WAT      O13078   9.555   8.727   7.306
 4279WAT     H113079   9.506   8.776   7.378
 4279WAT     H213080   9.649   8.709   7.336
 4280WAT      O13081   1.853   2.159   5.441
 4280WAT     H113082   1.873   2.157   5.539
 4280WAT     H213083   1.933   2.125   5.391
 4281WAT      O13084   9.495   2.865   4.960
 4281WAT     H113085   9.537   2.930   4.897
 4281WAT     H213086   9.397   2.860   4.943
 4282WAT      O13087   7.955   5.023   0.213
 4282WAT     H113088   7.874   4.969   0.190
 4282WAT     H213089   7.942   5.118   0.185
 4283WAT      O13090   2.722   1.230   1.682
 4283WAT     H113091   2.749   1.317   1.725
 4283WAT     H213092   2.623   1.218   1.692
 4284WAT      O13093   8.851   9.101   0.130
 4284WAT     H113094   8.852   9.139   0.037
 4284WAT     H213095   8.864   9.002   0.126
 4285WAT      O13096   2.650   5.009   4.073
 4285WAT     H113097   2.604   5.034   4.158
 4285WAT     H213098   2.584   4.966   4.011
 4286WAT      O13099   8.829   3.479   6.674
 4286WAT     H113100   8.758   3.411   6.654
 4286WAT     H213101   8.788   3.558   6.720
 4287WAT      O13102   3.567   1.108   2.073
 4287WAT     H113103   3.512   1.187   2.045
 4287WAT     H213104   3.585   1.050   1.994
 4288WAT      O13105   9.498   6.429   8.948
 4288WAT     H113106   9.554   6.346   8.950
 4288WAT     H213107   9.412   6.412   8.997
 4289WAT      O13108   1.796   5.730   4.010
 4289WAT     H113109   1.775   5.653   3.950
 4289WAT     H213110   1.797   5.815   3.956
 4290WAT      O13111   0.452   4.645   0.999
 4290WAT     H113112   0.466   4.733   1.045
 4290WAT     H213113   0.481   4.571   1.058
 4291WAT      O13114   7.131   8.659   7.412
 4291WAT     H113115   7.151   8.638   7.316
 4291WAT     H213116   7.217   8.667   7.463
 4292WAT      O13117   2.473   8.864   1.125
 4292WAT     H113118   2.442   8.857   1.030
 4292WAT     H213119   2.547   8.930   1.131
 4293WAT      O13120   7.316   3.608   3.088
 4293WAT     H113121   7.378   3.606   3.010
 4293WAT     H213122   7.368   3.598   3.173
 4294WAT      O13123   4.664   3.943   9.227
 4294WAT     H113124   4.607   3.903   9.299
 4294WAT     H213125   4.628   4.033   9.203
 4295WAT      O13126   8.321   3.718   8.362
 4295WAT     H113127   8.254   3.672   8.420
 4295WAT     H213128   8.412   3.710   8.403
 4296WAT      O13129   4.995   2.105   7.521
 4296WAT     H113130   4.954   2.171   7.583
 4296WAT     H213131   5.054   2.042   7.572
 4297WAT      O13132   8.139   9.095   3.416
 4297WAT     H113133   8.058   9.038   3.431
 4297WAT     H213134   8.130   9.143   3.328
 4298WAT      O13135   6.960   7.096   5.725
 4298WAT     H113136   6.914   7.102   5.637
 4298WAT     H213137   7.005   7.183   5.746
 4299WAT      O13138   9.320   3.729   5.558
 4299WAT     H113139   9.372   3.798   5.608
 4299WAT     H213140   9.230   3.717   5.600
 4300WAT      O13141   4.523   5.160   8.933
 4300WAT     H113142   4.526   5.242   8.989
 4300WAT     H213143   4.608   5.152   8.880
 4301WAT      O13144   1.590   8.459   7.888
 4301WAT     H113145   1.498   8.485   7.859
 4301WAT     H213146   1.641   8.426   7.809
 4302WAT      O13147   6.600   8.397   9.577
 4302WAT     H113148   6.613   8.425   9.672
 4302WAT     H213149   6.678   8.426   9.522
 4303WAT      O13150   7.807   0.379   6.083
 4303WAT     H113151   7.878   0.436   6.042
 4303WAT     H213152   7.744   0.436   6.135
 4304WAT      O13153   8.189   8.877   5.622
 4304WAT     H113154   8.122   8.824   5.674
 4304WAT     H213155   8.144   8.957   5.582
 4305WAT      O13156   9.536   5.000   0.476
 4305WAT     H113157   9.632   4.975   0.489
 4305WAT     H213158   9.490   5.005   0.565
 4306WAT      O13159   8.872   9.253   5.591
 4306WAT     H113160   8.855   9.312   5.670
 4306WAT     H213161   8.792   9.196   5.574
 4307WAT      O13162   6.372   1.252   9.681
 4307WAT     H113163   6.399   1.321   9.748
 4307WAT     H213164   6.447   1.236   9.617
 4308WAT      O13165   4.065   4.269   7.981
 4308WAT     H113166   4.119   4.330   8.040
 4308WAT     H213167   3.990   4.320   7.940
 4309WAT      O13168   5.814   3.067   2.733
 4309WAT     H113169   5.842   3.129   2.659
 4309WAT     H213170   5.714   3.068   2.741
 4310WAT      O13171   7.103   2.379   2.043
 4310WAT     H113172   7.142   2.325   1.968
 4310WAT     H213173   7.150   2.357   2.128
 4311WAT      O13174   9.525   7.257   3.072
 4311WAT     H113175   9.604   7.312   3.044
 4311WAT     H213176   9.495   7.287   3.163
 4312WAT      O13177   1.542   8.231   4.701
 4312WAT     H113178   1.630   8.189   4.679
 4312WAT     H213179   1.525   8.222   4.799
 4313WAT      O13180   1.482   1.637   1.595
 4313WAT     H113181   1.520   1.632   1.687
 4313WAT     H213182   1.508   1.555   1.543
 4314WAT      O13183   2.527   6.043   4.868
 4314WAT     H113184   2.587   5.971   4.832
 4314WAT     H213185   2.578   6.097   4.935
 4315WAT      O13186   5.778   2.477   1.777
 4315WAT     H113187   5.765   2.447   1.872
 4315WAT     H213188   5.852   2.426   1.735
 4316WAT      O13189   8.435   2.837   0.118
 4316WAT     H113190   8.347   2.843   0.069
 4316WAT     H213191   8.436   2.754   0.174
 4317WAT      O13192   6.276   3.797   7.684
 4317WAT     H113193   6.354   3.804   7.622
 4317WAT     H213194   6.308   3.811   7.778
 4318WAT      O13195   8.874   5.789   3.258
 4318WAT     H113196   8.874   5.863   3.191
 4318WAT     H213197   8.810   5.718   3.229
 4319WAT      O13198   2.164   5.327   2.228
 4319WAT     H113199   2.125   5.235   2.236
 4319WAT     H213200   2.257   5.319   2.191
 4320WAT      O13201   7.540   8.926   1.262
 4320WAT     H113202   7.633   8.936   1.225
 4320WAT     H213203   7.486   9.007   1.240
 4321WAT      O13204   1.421   0.117   5.445
 4321WAT     H113205   1.476   0.070   5.377
 4321WAT     H213206   1.324   0.095   5.430
 4322WAT      O13207   4.849   8.540   6.240
 4322WAT     H113208   4.941   8.513   6.271
 4322WAT     H213209   4.857   8.610   6.170
 4323WAT      O13210   8.497   8.881   9.236
 4323WAT     H113211   8.468   8.785   9.238
 4323WAT     H213212   8.420   8.939   9.210
 4324WAT      O13213   8.598   4.701   2.147
 4324WAT     H113214   8.620   4.670   2.055
 4324WAT     H213215   8.675   4.754   2.184
 4325WAT      O13216   9.289   2.304   1.992
 4325WAT     H113217   9.263   2.399   2.008
 4325WAT     H213218   9.206   2.247   1.988
 4326WAT      O13219   2.134   5.004   7.497
 4326WAT     H113220   2.178   4.948   7.426
 4326WAT     H213221   2.074   4.946   7.552
 4327WAT      O13222   8.201   3.274   3.567
 4327WAT     H113223   8.108   3.236   3.576
 4327WAT     H213224   8.258   3.240   3.642
 4328WAT      O13225   5.847   9.236   4.718
 4328WAT     H113226   5.840   9.327   4.759
 4328WAT     H213227   5.756   9.195   4.711
 4329WAT      O13228   4.169   2.986   0.588
 4329WAT     H113229   4.149   2.982   0.686
 4329WAT     H213230   4.109   3.053   0.545
 4330WAT      O13231   1.702   3.281   0.221
 4330WAT     H113232   1.721   3.206   0.157
 4330WAT     H213233   1.776   3.288   0.288
 4331WAT      O13234   3.072   9.419   5.565
 4331WAT     H113235   3.122   9.451   5.484
 4331WAT     H213236   3.039   9.326   5.548
 4332WAT      O13237   4.706   1.460   9.213
 4332WAT     H113238   4.741   1.417   9.296
 4332WAT     H213239   4.720   1.398   9.135
 4333WAT      O13240   9.086   2.883   3.015
 4333WAT     H113241   9.096   2.869   3.113
 4333WAT     H213242   8.991   2.909   2.995
 4334WAT      O13243   0.984   2.488   4.688
 4334WAT     H113244   0.911   2.480   4.757
 4334WAT     H213245   1.045   2.409   4.696
 4335WAT      O13246   2.116   8.620   2.795
 4335WAT     H113247   2.165   8.633   2.882
 4335WAT     H213248   2.025   8.583   2.813
 4336WAT      O13249   1.055   6.402   2.810
 4336WAT     H113250   1.131   6.362   2.759
 4336WAT     H213251   1.036   6.494   2.776
 4337WAT      O13252   4.200   5.154   3.229
 4337WAT     H113253   4.264   5.165   3.153
 4337WAT     H213254   4.217   5.066   3.274
 4338WAT      O13255   0.921   8.862   2.693
 4338WAT     H113256   0.846   8.903   2.745
 4338WAT     H213257   0.964   8.932   2.636
 4339WAT      O13258   3.539   7.855   0.361
 4339WAT     H113259   3.523   7.805   0.446
 4339WAT     H213260   3.574   7.792   0.292
 4340WAT      O13261   1.111   4.910   9.657
 4340WAT     H113262   1.054   4.988   9.633
 4340WAT     H213263   1.053   4.832   9.679
 4341WAT      O13264   6.891   2.890   6.250
 4341WAT     H113265   6.799   2.930   6.241
 4341WAT     H213266   6.927   2.870   6.158
 4342WAT      O13267   9.251   4.722   1.128
 4342WAT     H113268   9.215   4.754   1.215
 4342WAT     H213269   9.348   4.743   1.122
 4343WAT      O13270   4.475   1.618   5.044
 4343WAT     H113271   4.446   1.713   5.051
 4343WAT     H213272   4.574   1.612   5.055
 4344WAT      O13273   9.789   9.106   2.100
 4344WAT     H113274   9.732   9.102   2.182
 4344WAT     H213275   9.882   9.133   2.124
 4345WAT      O13276   4.649   1.568   5.452
 4345WAT     H113277   4.684   1.533   5.539
 4345WAT     H213278   4.664   1.667   5.447
 4346WAT      O13279   6.485   8.245   7.087
 4346WAT     H113280   6.538   8.283   7.011
 4346WAT     H213281   6.421   8.177   7.053
 4347WAT      O13282   0.918   0.653   7.096
 4347WAT     H113283   0.971   0.716   7.153
 4347WAT     H213284   0.965   0.565   7.093
 4348WAT      O13285   2.459   4.848   9.880
 4348WAT     H113286   2.522   4.880   9.810
 4348WAT     H213287   2.424   4.926   9.932
 4349WAT      O13288   3.754   2.314   4.067
 4349WAT     H113289   3.699   2.372   4.006
 4349WAT     H213290   3.796   2.241   4.013
 4350WAT      O13291   8.619   6.509   0.788
 4350WAT     H113292   8.635   6.608   0.788
 4350WAT     H213293   8.599   6.478   0.881
 4351WAT      O13294   9.606   0.282   6.252
 4351WAT     H113295   9.648   0.338   6.180
 4351WAT     H213296   9.668   0.278   6.331
 4352WAT      O13297   6.591   6.623   0.367
 4352WAT     H113298   6.594   6.652   0.271
 4352WAT     H213299   6.504   6.649   0.407
 4353WAT      O13300   1.194   8.985   5.863
 4353WAT     H113301   1.271   8.941   5.909
 4353WAT     H213302   1.227   9.029   5.779
 4354WAT      O13303   3.708   2.129   3.818
 4354WAT     H113304   3.738   2.154   3.726
 4354WAT     H213305   3.622   2.079   3.813
 4355WAT      O13306   2.505   3.623   3.950
 4355WAT     H113307   2.555   3.671   4.021
 4355WAT     H213308   2.435   3.683   3.911
 4356WAT      O13309   0.370   4.740   2.180
 4356WAT     H113310   0.440   4.784   2.124
 4356WAT     H213311   0.412   4.704   2.264
 4357WAT      O13312   1.145   8.739   0.057
 4357WAT     H113313   1.182   8.653   0.022
 4357WAT     H213314   1.058   8.758   0.012
 4358WAT      O13315   1.266   4.872   1.117
 4358WAT     H113316   1.333   4.801   1.137
 4358WAT     H213317   1.178   4.847   1.157
 4359WAT      O13318   8.028   1.915   3.294
 4359WAT     H113319   8.080   1.999   3.310
 4359WAT     H213320   8.076   1.838   3.336
 4360WAT      O13321   1.917   9.212   3.279
 4360WAT     H113322   1.847   9.234   3.211
 4360WAT     H213323   1.897   9.260   3.365
 4361WAT      O13324   1.787   7.238   6.484
 4361WAT     H113325   1.769   7.333   6.511
 4361WAT     H213326   1.790   7.232   6.384
 4362WAT      O13327   6.657   6.274   0.677
 4362WAT     H113328   6.658   6.305   0.581
 4362WAT     H213329   6.659   6.353   0.737
 4363WAT      O13330   9.665   3.675   3.916
 4363WAT     H113331   9.614   3.589   3.915
 4363WAT     H213332   9.637   3.731   3.837
 4364WAT      O13333   8.943   8.826   2.156
 4364WAT     H113334   8.899   8.897   2.210
 4364WAT     H213335   8.873   8.763   2.121
 4365WAT      O13336   6.280   2.427   3.036
 4365WAT     H113337   6.264   2.508   2.979
 4365WAT     H213338   6.356   2.444   3.098
 4366WAT      O13339   4.699   2.156   1.549
 4366WAT     H113340   4.680   2.101   1.468
 4366WAT     H213341   4.645   2.121   1.626
 4367WAT      O13342   7.358   3.578   6.935
 4367WAT     H113343   7.317   3.646   6.874
 4367WAT     H213344   7.409   3.624   7.007
 4368WAT      O13345   3.089   0.635   6.986
 4368WAT     H113346   3.154   0.654   7.060
 4368WAT     H213347   3.127   0.564   6.927
 4369WAT      O13348   1.836   3.146   1.140
 4369WAT     H113349   1.834   3.183   1.047
 4369WAT     H213350   1.874   3.054   1.139
 4370WAT      O13351   0.809   6.533   3.546
 4370WAT     H113352   0.823   6.511   3.643
 4370WAT     H213353   0.896   6.564   3.507
 4371WAT      O13354   6.143   6.952   1.240
 4371WAT     H113355   6.110   6.873   1.292
 4371WAT     H213356   6.069   7.018   1.229
 4372WAT      O13357   9.119   2.486   7.714
 4372WAT     H113358   9.147   2.425   7.640
 4372WAT     H213359   9.095   2.575   7.676
 4373WAT      O13360   9.793   2.430   1.116
 4373WAT     H113361   9.805   2.514   1.168
 4373WAT     H213362   9.725   2.373   1.160
 4374WAT      O13363   1.743   7.510   6.534
 4374WAT     H113364   1.705   7.531   6.624
 4374WAT     H213365   1.682   7.545   6.463
 4375WAT      O13366   4.462   7.700   1.513
 4375WAT     H113367   4.498   7.671   1.602
 4375WAT     H213368   4.526   7.763   1.470
 4376WAT      O13369   4.387   7.123   1.896
 4376WAT     H113370   4.413   7.027   1.890
 4376WAT     H213371   4.469   7.179   1.905
 4377WAT      O13372   0.812   1.228   6.751
 4377WAT     H113373   0.764   1.167   6.814
 4377WAT     H213374   0.827   1.316   6.796
 4378WAT      O13375   1.647   1.298   3.199
 4378WAT     H113376   1.726   1.298   3.137
 4378WAT     H213377   1.566   1.327   3.150
 4379WAT      O13378   6.429   2.354   6.758
 4379WAT     H113379   6.457   2.367   6.663
 4379WAT     H213380   6.342   2.306   6.761
 4380WAT      O13381   3.153   0.378   5.876
 4380WAT     H113382   3.114   0.442   5.811
 4380WAT     H213383   3.232   0.332   5.835
 4381WAT      O13384   9.190   4.225   0.119
 4381WAT     H113385   9.114   4.161   0.121
 4381WAT     H213386   9.167   4.306   0.174
 4382WAT      O13387   7.315   3.939   1.588
 4382WAT     H113388   7.395   3.980   1.544
 4382WAT     H213389   7.232   3.964   1.537
 4383WAT      O13390   0.641   5.926   5.055
 4383WAT     H113391   0.702   5.866   5.005
 4383WAT     H213392   0.590   5.873   5.123
 4384WAT      O13393   2.740   2.314   2.871
 4384WAT     H113394   2.823   2.311   2.815
 4384WAT     H213395   2.734   2.231   2.926
 4385WAT      O13396   9.195   5.390   9.194
 4385WAT     H113397   9.191   5.328   9.272
 4385WAT     H213398   9.162   5.342   9.112
 4386WAT      O13399   8.939   5.626   4.921
 4386WAT     H113400   8.998   5.572   4.861
 4386WAT     H213401   8.993   5.699   4.964
 4387WAT      O13402   4.608   9.337   6.238
 4387WAT     H113403   4.677   9.408   6.249
 4387WAT     H213404   4.609   9.303   6.143
 4388WAT      O13405   3.532   1.470   4.053
 4388WAT     H113406   3.434   1.460   4.033
 4388WAT     H213407   3.548   1.561   4.091
 4389WAT      O13408   5.288   4.202   1.987
 4389WAT     H113409   5.200   4.174   1.949
 4389WAT     H213410   5.296   4.167   2.081
 4390WAT      O13411   3.646   6.218   1.124
 4390WAT     H113412   3.696   6.132   1.123
 4390WAT     H213413   3.568   6.211   1.186
 4391WAT      O13414   1.455   3.326   3.218
 4391WAT     H113415   1.421   3.276   3.139
 4391WAT     H213416   1.539   3.284   3.251
 4392WAT      O13417   2.352   9.371   8.928
 4392WAT     H113418   2.372   9.467   8.947
 4392WAT     H213419   2.317   9.327   9.011
 4393WAT      O13420   5.293   4.187   5.787
 4393WAT     H113421   5.342   4.264   5.746
 4393WAT     H213422   5.223   4.222   5.849
 4394WAT      O13423   8.987   4.276   7.833
 4394WAT     H113424   8.985   4.181   7.803
 4394WAT     H213425   8.894   4.309   7.848
 4395WAT      O13426   5.154   9.397   9.313
 4395WAT     H113427   5.208   9.422   9.394
 4395WAT     H213428   5.154   9.473   9.249
 4396WAT      O13429   3.377   6.726   5.530
 4396WAT     H113430   3.324   6.674   5.597
 4396WAT     H213431   3.322   6.804   5.499
 4397WAT      O13432   6.108   2.112   7.155
 4397WAT     H113433   6.098   2.206   7.190
 4397WAT     H213434   6.053   2.101   7.073
 4398WAT      O13435   4.554   6.547   6.506
 4398WAT     H113436   4.594   6.507   6.424
 4398WAT     H213437   4.621   6.607   6.551
 4399WAT      O13438   0.025   7.422   2.105
 4399WAT     H113439   0.014   7.441   2.202
 4399WAT     H213440  -0.025   7.339   2.081
 4400WAT      O13441   8.941   0.923   2.625
 4400WAT     H113442   8.911   0.933   2.530
 4400WAT     H213443   9.038   0.948   2.632
 4401WAT      O13444   3.809   4.156   2.886
 4401WAT     H113445   3.886   4.186   2.829
 4401WAT     H213446   3.724   4.167   2.835
 4402WAT      O13447   5.592   2.894   2.012
 4402WAT     H113448   5.576   2.949   2.093
 4402WAT     H213449   5.508   2.845   1.987
 4403WAT      O13450   7.795   8.807   5.054
 4403WAT     H113451   7.712   8.841   5.099
 4403WAT     H213452   7.875   8.849   5.096
 4404WAT      O13453   9.238   1.677   9.565
 4404WAT     H113454   9.258   1.775   9.566
 4404WAT     H213455   9.306   1.630   9.507
 4405WAT      O13456   1.719   3.626   3.015
 4405WAT     H113457   1.723   3.701   2.949
 4405WAT     H213458   1.798   3.566   3.003
 4406WAT      O13459   6.248   5.229   5.827
 4406WAT     H113460   6.199   5.290   5.764
 4406WAT     H213461   6.203   5.231   5.917
 4407WAT      O13462   1.979   9.451   6.117
 4407WAT     H113463   1.928   9.537   6.111
 4407WAT     H213464   1.915   9.374   6.120
 4408WAT      O13465   7.304   5.388   4.177
 4408WAT     H113466   7.374   5.457   4.197
 4408WAT     H213467   7.286   5.386   4.079
 4409WAT      O13468   9.582   6.754   2.110
 4409WAT     H113469   9.525   6.822   2.065
 4409WAT     H213470   9.524   6.687   2.156
 4410WAT      O13471   3.267   8.173   1.753
 4410WAT     H113472   3.338   8.113   1.718
 4410WAT     H213473   3.240   8.238   1.682
 4411WAT      O13474   1.989   0.707   6.777
 4411WAT     H113475   2.021   0.770   6.706
 4411WAT     H213476   2.012   0.613   6.751
 4412WAT      O13477   9.212   9.423   1.028
 4412WAT     H113478   9.201   9.357   1.103
 4412WAT     H213479   9.307   9.454   1.025
 4413WAT      O13480   5.664   0.347   7.694
 4413WAT     H113481   5.690   0.360   7.790
 4413WAT     H213482   5.735   0.386   7.636
 4414WAT      O13483   4.067   7.802   5.649
 4414WAT     H113484   3.971   7.826   5.657
 4414WAT     H213485   4.079   7.739   5.572
 4415WAT      O13486   6.666   0.560   3.759
 4415WAT     H113487   6.586   0.594   3.709
 4415WAT     H213488   6.727   0.513   3.695
 4416WAT      O13489   7.289   7.959   0.819
 4416WAT     H113490   7.263   7.897   0.745
 4416WAT     H213491   7.220   8.031   0.828
 4417WAT      O13492   1.918   1.281   0.954
 4417WAT     H113493   1.867   1.339   0.891
 4417WAT     H213494   1.943   1.333   1.035
 4418WAT      O13495   5.130   1.129   6.071
 4418WAT     H113496   5.094   1.037   6.054
 4418WAT     H213497   5.141   1.143   6.169
 4419WAT      O13498   2.394   9.117   6.621
 4419WAT     H113499   2.439   9.171   6.693
 4419WAT     H213500   2.299   9.099   6.648
 4420WAT      O13501   1.940   3.555   2.756
 4420WAT     H113502   1.936   3.471   2.811
 4420WAT     H213503   1.889   3.541   2.671
 4421WAT      O13504   1.302   1.583   2.765
 4421WAT     H113505   1.271   1.489   2.752
 4421WAT     H213506   1.402   1.587   2.760
 4422WAT      O13507   4.350   4.589   8.158
 4422WAT     H113508   4.427   4.532   8.187
 4422WAT     H213509   4.293   4.611   8.237
 4423WAT      O13510   5.029   3.988   5.976
 4423WAT     H113511   4.934   3.975   6.007
 4423WAT     H213512   5.044   4.085   5.958
 4424WAT      O13513   1.171   9.468   3.082
 4424WAT     H113514   1.083   9.493   3.042
 4424WAT     H213515   1.216   9.551   3.118
 4425WAT      O13516   0.985   1.943   7.377
 4425WAT     H113517   1.033   1.924   7.463
 4425WAT     H213518   0.928   1.865   7.353
 4426WAT      O13519   7.169   7.035   4.601
 4426WAT     H113520   7.236   6.967   4.632
 4426WAT     H213521   7.131   7.006   4.513
 4427WAT      O13522   5.656   8.357   4.657
 4427WAT     H113523   5.620   8.299   4.584
 4427WAT     H213524   5.604   8.340   4.741
 4428WAT      O13525   4.754   5.513   0.458
 4428WAT     H113526   4.657   5.523   0.481
 4428WAT     H213527   4.763   5.453   0.378
 4429WAT      O13528   5.920   9.667   1.400
 4429WAT     H113529   5.994   9.605   1.374
 4429WAT     H213530   5.944   9.712   1.486
 4430WAT      O13531   3.586   5.391   1.603
 4430WAT     H113532   3.686   5.397   1.607
 4430WAT     H213533   3.557   5.390   1.507
 4431WAT      O13534   3.928   3.447   2.493
 4431WAT     H113535   4.017   3.409   2.467
 4431WAT     H213536   3.865   3.442   2.416
 4432WAT      O13537   3.524   7.407   9.644
 4432WAT     H113538   3.512   7.316   9.684
 4432WAT     H213539   3.606   7.408   9.588
 4433WAT      O13540   3.753   4.502   7.974
 4433WAT     H113541   3.743   4.405   7.952
 4433WAT     H213542   3.785   4.512   8.068
 4434WAT      O13543   5.693   7.600   6.818
 4434WAT     H113544   5.654   7.674   6.872
 4434WAT     H213545   5.620   7.552   6.769
 4435WAT      O13546   1.601   5.515   7.924
 4435WAT     H113547   1.575   5.503   8.020
 4435WAT     H213548   1.532   5.570   7.877
 4436WAT      O13549   4.659   7.696   0.267
 4436WAT     H113550   4.751   7.701   0.228
 4436WAT     H213551   4.593   7.725   0.198
 4437WAT      O13552   6.172   8.382   3.207
 4437WAT     H113553   6.155   8.398   3.305
 4437WAT     H213554   6.271   8.389   3.190
 4438WAT      O13555   4.307   2.929   9.109
 4438WAT     H113556   4.361   2.951   9.191
 4438WAT     H213557   4.308   2.830   9.094
 4439WAT      O13558   6.250   8.332   0.051
 4439WAT     H113559   6.245   8.267  -0.025
 4439WAT     H213560   6.168   8.389   0.051
 4440WAT      O13561   0.370   9.680   5.723
 4440WAT     H113562   0.335   9.771   5.701
 4440WAT     H213563   0.295   9.614   5.722
 4441WAT      O13564   1.959   5.143   2.913
 4441WAT     H113565   2.013   5.125   2.831
 4441WAT     H213566   1.935   5.240   2.917
 4442WAT      O13567   1.778   2.686   1.588
 4442WAT     H113568   1.722   2.736   1.655
 4442WAT     H213569   1.857   2.742   1.563
 4443WAT      O13570   5.227   2.663   5.449
 4443WAT     H113571   5.178   2.681   5.535
 4443WAT     H213572   5.275   2.745   5.420
 4444WAT      O13573   2.997   1.271   6.809
 4444WAT     H113574   2.935   1.342   6.843
 4444WAT     H213575   3.036   1.300   6.722
 4445WAT      O13576   5.929   2.620   2.222
 4445WAT     H113577   5.968   2.598   2.133
 4445WAT     H213578   6.001   2.613   2.292
 4446WAT      O13579   6.953   9.805   6.334
 4446WAT     H113580   6.939   9.895   6.375
 4446WAT     H213581   6.865   9.763   6.313
 4447WAT      O13582   0.198   0.309   9.369
 4447WAT     H113583   0.197   0.393   9.423
 4447WAT     H213584   0.147   0.238   9.419
 4448WAT      O13585   0.118   4.471   8.113
 4448WAT     H113586   0.155   4.557   8.149
 4448WAT     H213587   0.038   4.491   8.057
 4449WAT      O13588   0.348   3.080   3.007
 4449WAT     H113589   0.354   3.174   3.041
 4449WAT     H213590   0.273   3.073   2.941
 4450WAT      O13591   2.714   5.431   7.769
 4450WAT     H113592   2.767   5.424   7.853
 4450WAT     H213593   2.623   5.468   7.789
 4451WAT      O13594   0.030   8.880   3.527
 4451WAT     H113595   0.011   8.959   3.468
 4451WAT     H213596   0.094   8.819   3.481
 4452WAT      O13597   7.463   2.609   0.845
 4452WAT     H113598   7.425   2.649   0.761
 4452WAT     H213599   7.557   2.578   0.827
 4453WAT      O13600   2.032   1.647   6.422
 4453WAT     H113601   1.941   1.608   6.412
 4453WAT     H213602   2.041   1.727   6.363
 4454WAT      O13603   8.660   7.069   2.876
 4454WAT     H113604   8.670   7.156   2.925
 4454WAT     H213605   8.743   7.051   2.824
 4455WAT      O13606   9.424   0.313   4.038
 4455WAT     H113607   9.413   0.227   4.088
 4455WAT     H213608   9.520   0.341   4.041
 4456WAT      O13609   0.226   5.068   7.379
 4456WAT     H113610   0.285   5.074   7.299
 4456WAT     H213611   0.269   5.010   7.448
 4457WAT      O13612   8.783   6.723   6.328
 4457WAT     H113613   8.825   6.750   6.415
 4457WAT     H213614   8.759   6.804   6.276
 4458WAT      O13615   6.737   8.612   5.126
 4458WAT     H113616   6.661   8.548   5.118
 4458WAT     H213617   6.816   8.576   5.076
 4459WAT      O13618   1.479   7.478   8.402
 4459WAT     H113619   1.395   7.475   8.348
 4459WAT     H213620   1.514   7.384   8.414
 4460WAT      O13621   0.808   4.828   0.127
 4460WAT     H113622   0.713   4.853   0.109
 4460WAT     H213623   0.819   4.803   0.223
 4461WAT      O13624   6.346   1.587   2.603
 4461WAT     H113625   6.295   1.671   2.584
 4461WAT     H213626   6.337   1.524   2.526
 4462WAT      O13627   0.639   9.618   0.265
 4462WAT     H113628   0.656   9.524   0.235
 4462WAT     H213629   0.546   9.624   0.302
 4463WAT      O13630   8.936   8.248   0.905
 4463WAT     H113631   8.863   8.180   0.897
 4463WAT     H213632   8.915   8.327   0.848
 4464WAT      O13633   5.437   1.497   6.988
 4464WAT     H113634   5.460   1.556   7.066
 4464WAT     H213635   5.428   1.403   7.019
 4465WAT      O13636   8.136   0.139   7.848
 4465WAT     H113637   8.082   0.167   7.768
 4465WAT     H213638   8.194   0.215   7.877
 4466WAT      O13639   1.273   8.033   8.946
 4466WAT     H113640   1.252   7.956   9.006
 4466WAT     H213641   1.212   8.109   8.968
 4467WAT      O13642   2.868   6.163   2.233
 4467WAT     H113643   2.951   6.216   2.250
 4467WAT     H213644   2.791   6.204   2.282
 4468WAT      O13645   8.295   0.900   6.561
 4468WAT     H113646   8.340   0.945   6.638
 4468WAT     H213647   8.343   0.814   6.540
 4469WAT      O13648   4.781   2.914   5.272
 4469WAT     H113649   4.806   2.980   5.343
 4469WAT     H213650   4.682   2.899   5.274
 4470WAT      O13651   4.469   3.438   5.709
 4470WAT     H113652   4.492   3.367   5.643
 4470WAT     H213653   4.473   3.401   5.801
 4471WAT      O13654   3.189   6.921   3.295
 4471WAT     H113655   3.173   6.917   3.196
 4471WAT     H213656   3.139   6.999   3.334
 4472WAT      O13657   4.575   8.485   3.724
 4472WAT     H113658   4.537   8.518   3.638
 4472WAT     H213659   4.524   8.524   3.800
 4473WAT      O13660   3.981   2.716   3.762
 4473WAT     H113661   4.032   2.706   3.847
 4473WAT     H213662   3.913   2.642   3.754
 4474WAT      O13663   6.877   7.012   1.629
 4474WAT     H113664   6.799   6.951   1.644
 4474WAT     H213665   6.938   7.009   1.708
 4475WAT      O13666   0.910   9.298   7.544
 4475WAT     H113667   0.938   9.227   7.609
 4475WAT     H213668   0.818   9.330   7.568
 4476WAT      O13669   9.330   8.687   7.678
 4476WAT     H113670   9.361   8.765   7.623
 4476WAT     H213671   9.312   8.718   7.772
 4477WAT      O13672   8.617   5.885   3.066
 4477WAT     H113673   8.532   5.909   3.113
 4477WAT     H213674   8.658   5.967   3.026
 4478WAT      O13675   6.373   4.932   2.209
 4478WAT     H113676   6.360   4.978   2.296
 4478WAT     H213677   6.331   4.841   2.212
 4479WAT      O13678   8.676   4.311   1.277
 4479WAT     H113679   8.761   4.345   1.237
 4479WAT     H213680   8.693   4.281   1.371
 4480WAT      O13681   0.518   2.834   5.113
 4480WAT     H113682   0.532   2.920   5.162
 4480WAT     H213683   0.445   2.845   5.046
 4481WAT      O13684   3.089   7.796   4.054
 4481WAT     H113685   3.096   7.723   3.986
 4481WAT     H213686   3.116   7.883   4.011
 4482WAT      O13687   8.175   0.604   2.949
 4482WAT     H113688   8.225   0.607   3.035
 4482WAT     H213689   8.184   0.691   2.901
 4483WAT      O13690   8.759   1.657   9.825
 4483WAT     H113691   8.728   1.752   9.826
 4483WAT     H213692   8.689   1.599   9.868
 4484WAT      O13693   6.798   2.389   3.893
 4484WAT     H113694   6.777   2.331   3.814
 4484WAT     H213695   6.871   2.346   3.947
 4485WAT      O13696   3.867   9.522   3.325
 4485WAT     H113697   3.966   9.537   3.324
 4485WAT     H213698   3.830   9.537   3.233
 4486WAT      O13699   8.632   3.638   6.770
 4486WAT     H113700   8.577   3.556   6.788
 4486WAT     H213701   8.577   3.704   6.719
 4487WAT      O13702   3.227   1.399   5.281
 4487WAT     H113703   3.308   1.395   5.340
 4487WAT     H213704   3.145   1.398   5.338
 4488WAT      O13705   4.685   9.053   6.257
 4488WAT     H113706   4.657   8.977   6.199
 4488WAT     H213707   4.613   9.123   6.257
 4489WAT      O13708   4.337   0.538   4.010
 4489WAT     H113709   4.362   0.448   4.048
 4489WAT     H213710   4.263   0.526   3.944
 4490WAT      O13711   3.776   3.013   6.589
 4490WAT     H113712   3.742   2.926   6.622
 4490WAT     H213713   3.870   3.002   6.555
 4491WAT      O13714   6.208   3.493   8.032
 4491WAT     H113715   6.183   3.538   7.947
 4491WAT     H213716   6.301   3.456   8.024
 4492WAT      O13717   3.786   2.690   5.511
 4492WAT     H113718   3.693   2.654   5.511
 4492WAT     H213719   3.799   2.749   5.591
 4493WAT      O13720   7.716   9.278   3.934
 4493WAT     H113721   7.814   9.261   3.923
 4493WAT     H213722   7.684   9.234   4.018
 4494WAT      O13723   4.873   8.303   6.921
 4494WAT     H113724   4.790   8.293   6.866
 4494WAT     H213725   4.856   8.267   7.013
 4495WAT      O13726   1.413   3.977   7.477
 4495WAT     H113727   1.442   3.898   7.532
 4495WAT     H213728   1.485   4.000   7.412
 4496WAT      O13729   8.988   2.929   6.175
 4496WAT     H113730   8.954   2.849   6.223
 4496WAT     H213731   9.066   2.967   6.224
 4497WAT      O13732   1.875   4.113   7.262
 4497WAT     H113733   1.864   4.101   7.163
 4497WAT     H213734   1.973   4.111   7.285
 4498WAT      O13735   8.461   4.757   1.828
 4498WAT     H113736   8.491   4.662   1.840
 4498WAT     H213737   8.526   4.805   1.769
 4499WAT      O13738   4.210   5.997   4.924
 4499WAT     H113739   4.251   6.077   4.882
 4499WAT     H213740   4.120   5.980   4.884
 4500WAT      O13741   8.741   4.146   2.916
 4500WAT     H113742   8.748   4.053   2.881
 4500WAT     H213743   8.645   4.174   2.917
 4501WAT      O13744   2.672   5.453   5.388
 4501WAT     H113745   2.674   5.356   5.365
 4501WAT     H213746   2.610   5.468   5.465
 4502WAT      O13747   6.175   7.369   4.515
 4502WAT     H113748   6.184   7.323   4.427
 4502WAT     H213749   6.148   7.464   4.500
 4503WAT      O13750   7.469   6.742   5.176
 4503WAT     H113751   7.549   6.787   5.136
 4503WAT     H213752   7.418   6.807   5.231
 4504WAT      O13753   2.877   6.941   7.953
 4504WAT     H113754   2.795   6.964   8.005
 4504WAT     H213755   2.886   6.842   7.947
 4505WAT      O13756   7.094   5.432   1.059
 4505WAT     H113757   7.192   5.415   1.055
 4505WAT     H213758   7.059   5.400   1.147
 4506WAT      O13759   5.636   2.024   0.145
 4506WAT     H113760   5.634   1.991   0.239
 4506WAT     H213761   5.648   2.123   0.144
 4507WAT      O13762   8.946   8.011   3.053
 4507WAT     H113763   8.925   8.041   2.961
 4507WAT     H213764   8.862   7.985   3.100
 4508WAT      O13765   6.138   2.619   2.412
 4508WAT     H113766   6.230   2.586   2.394
 4508WAT     H213767   6.091   2.555   2.473
 4509WAT      O13768   8.891   9.810   9.820
 4509WAT     H113769   8.968   9.833   9.760
 4509WAT     H213770   8.848   9.893   9.854
 4510WAT      O13771   8.842   0.732   7.919
 4510WAT     H113772   8.865   0.768   7.828
 4510WAT     H213773   8.769   0.664   7.910
 4511WAT      O13774   1.791   3.515   2.531
 4511WAT     H113775   1.856   3.508   2.455
 4511WAT     H213776   1.736   3.431   2.535
 4512WAT      O13777   9.057   7.944   9.522
 4512WAT     H113778   9.135   7.894   9.486
 4512WAT     H213779   8.972   7.897   9.495
 4513WAT      O13780   9.103   9.130   4.265
 4513WAT     H113781   9.088   9.188   4.346
 4513WAT     H213782   9.138   9.041   4.294
 4514WAT      O13783   3.213   0.716   5.534
 4514WAT     H113784   3.226   0.736   5.631
 4514WAT     H213785   3.230   0.620   5.517
 4515WAT      O13786   0.459   8.571   8.812
 4515WAT     H113787   0.510   8.496   8.854
 4515WAT     H213788   0.362   8.547   8.809
 4516WAT      O13789   3.569   6.311   1.658
 4516WAT     H113790   3.560   6.281   1.563
 4516WAT     H213791   3.479   6.309   1.702
 4517WAT      O13792   5.286   4.040   3.902
 4517WAT     H113793   5.289   4.095   3.818
 4517WAT     H213794   5.193   4.038   3.937
 4518WAT      O13795   4.726   6.222   3.097
 4518WAT     H113796   4.745   6.246   3.192
 4518WAT     H213797   4.759   6.295   3.037
 4519WAT      O13798   4.569   8.945   2.062
 4519WAT     H113799   4.652   8.995   2.086
 4519WAT     H213800   4.594   8.862   2.012
 4520WAT      O13801   3.960   8.451   3.312
 4520WAT     H113802   3.910   8.451   3.226
 4520WAT     H213803   3.909   8.503   3.381
 4521WAT      O13804   8.777   9.671   1.539
 4521WAT     H113805   8.742   9.693   1.448
 4521WAT     H213806   8.854   9.732   1.560
 4522WAT      O13807   0.629   0.361   5.112
 4522WAT     H113808   0.693   0.339   5.185
 4522WAT     H213809   0.673   0.422   5.046
 4523WAT      O13810   6.055   1.154   1.895
 4523WAT     H113811   6.000   1.126   1.974
 4523WAT     H213812   6.062   1.254   1.894
 4524WAT      O13813   6.535   8.218   7.863
 4524WAT     H113814   6.498   8.142   7.917
 4524WAT     H213815   6.471   8.295   7.864
 4525WAT      O13816   1.748   1.387   6.049
 4525WAT     H113817   1.705   1.427   5.968
 4525WAT     H213818   1.680   1.335   6.100
 4526WAT      O13819   6.005   7.835   0.510
 4526WAT     H113820   6.053   7.863   0.427
 4526WAT     H213821   6.067   7.839   0.588
 4527WAT      O13822   0.322   1.120   1.798
 4527WAT     H113823   0.386   1.076   1.861
 4527WAT     H213824   0.365   1.200   1.757
 4528WAT      O13825   5.695   8.322   0.802
 4528WAT     H113826   5.641   8.293   0.723
 4528WAT     H213827   5.792   8.316   0.781
 4529WAT      O13828   1.324   1.185   6.691
 4529WAT     H113829   1.226   1.204   6.696
 4529WAT     H213830   1.354   1.189   6.596
 4530WAT      O13831   1.113   8.234   6.164
 4530WAT     H113832   1.127   8.143   6.201
 4530WAT     H213833   1.099   8.299   6.239
 4531WAT      O13834   6.820   2.121   3.187
 4531WAT     H113835   6.824   2.165   3.097
 4531WAT     H213836   6.909   2.129   3.231
 4532WAT      O13837   9.165   8.164   5.042
 4532WAT     H113838   9.084   8.206   5.082
 4532WAT     H213839   9.182   8.076   5.086
 4533WAT      O13840   0.966   7.781   2.992
 4533WAT     H113841   1.064   7.765   2.981
 4533WAT     H213842   0.926   7.706   3.044
 4534WAT      O13843   2.690   7.545   0.270
 4534WAT     H113844   2.695   7.519   0.174
 4534WAT     H213845   2.598   7.528   0.305
 4535WAT      O13846   5.107   1.830   0.563
 4535WAT     H113847   5.038   1.760   0.583
 4535WAT     H213848   5.101   1.857   0.467
 4536WAT      O13849   4.744   8.653   1.226
 4536WAT     H113850   4.732   8.727   1.292
 4536WAT     H213851   4.729   8.687   1.134
 4537WAT      O13852   9.342   7.427   4.746
 4537WAT     H113853   9.262   7.483   4.768
 4537WAT     H213854   9.348   7.412   4.648
 4538WAT      O13855   5.704   3.718   2.674
 4538WAT     H113856   5.693   3.803   2.725
 4538WAT     H213857   5.628   3.709   2.609
 4539WAT      O13858   1.353   5.094   3.939
 4539WAT     H113859   1.305   5.111   4.024
 4539WAT     H213860   1.302   5.028   3.884
 4540WAT      O13861   2.370   8.347   9.837
 4540WAT     H113862   2.323   8.430   9.809
 4540WAT     H213863   2.321   8.305   9.914
 4541WAT      O13864   4.374   1.091   1.111
 4541WAT     H113865   4.459   1.116   1.158
 4541WAT     H213866   4.394   1.065   1.017
 4542WAT      O13867   0.804   2.728   6.414
 4542WAT     H113868   0.800   2.760   6.320
 4542WAT     H213869   0.881   2.771   6.462
 4543WAT      O13870   3.954   1.399   3.726
 4543WAT     H113871   3.938   1.371   3.631
 4543WAT     H213872   3.866   1.403   3.774
 4544WAT      O13873   0.118   3.130   6.587
 4544WAT     H113874   0.035   3.144   6.532
 4544WAT     H213875   0.094   3.082   6.672
 4545WAT      O13876   5.405   2.357   7.485
 4545WAT     H113877   5.331   2.293   7.464
 4545WAT     H213878   5.493   2.311   7.475
 4546WAT      O13879   3.343   3.034   9.621
 4546WAT     H113880   3.443   3.024   9.621
 4546WAT     H213881   3.320   3.122   9.664
 4547WAT      O13882   5.568   5.449   9.091
 4547WAT     H113883   5.574   5.457   8.991
 4547WAT     H213884   5.579   5.539   9.132
 4548WAT      O13885   3.146   9.284   5.968
 4548WAT     H113886   3.196   9.370   5.973
 4548WAT     H213887   3.048   9.302   5.966
 4549WAT      O13888   3.680   2.139   2.113
 4549WAT     H113889   3.589   2.169   2.144
 4549WAT     H213890   3.673   2.046   2.075
 4550WAT      O13891   0.184   5.399   1.381
 4550WAT     H113892   0.242   5.317   1.378
 4550WAT     H213893   0.089   5.371   1.389
 4551WAT      O13894   4.733   5.428   3.493
 4551WAT     H113895   4.747   5.330   3.476
 4551WAT     H213896   4.815   5.478   3.465
 4552WAT      O13897   5.623   8.439   2.738
 4552WAT     H113898   5.659   8.499   2.809
 4552WAT     H213899   5.688   8.434   2.662
 4553WAT      O13900   5.000   5.389   7.307
 4553WAT     H113901   5.090   5.433   7.302
 4553WAT     H213902   4.930   5.459   7.325
 4554WAT      O13903   9.735   6.759   6.819
 4554WAT     H113904   9.747   6.709   6.905
 4554WAT     H213905   9.814   6.743   6.760
 4555WAT      O13906   7.682   7.808   0.986
 4555WAT     H113907   7.764   7.863   0.976
 4555WAT     H213908   7.650   7.811   1.081
 4556WAT      O13909   9.670   4.632   7.035
 4556WAT     H113910   9.768   4.651   7.045
 4556WAT     H213911   9.618   4.707   7.076
 4557WAT      O13912   3.384   4.971   8.795
 4557WAT     H113913   3.348   5.016   8.713
 4557WAT     H213914   3.399   4.874   8.775
 4558WAT      O13915   1.900   2.433   8.060
 4558WAT     H113916   1.878   2.370   8.134
 4558WAT     H213917   1.865   2.524   8.082
 4559WAT      O13918   4.018   9.637   6.596
 4559WAT     H113919   3.928   9.593   6.598
 4559WAT     H213920   4.007   9.736   6.607
 4560WAT      O13921   7.219   6.164   8.366
 4560WAT     H113922   7.155   6.178   8.442
 4560WAT     H213923   7.299   6.114   8.398
 4561WAT      O13924   4.813   0.812   1.250
 4561WAT     H113925   4.779   0.845   1.338
 4561WAT     H213926   4.789   0.877   1.178
 4562WAT      O13927   6.598   8.351   4.485
 4562WAT     H113928   6.695   8.360   4.462
 4562WAT     H213929   6.545   8.336   4.401
 4563WAT      O13930   2.926   1.300   1.294
 4563WAT     H113931   2.864   1.259   1.227
 4563WAT     H213932   2.920   1.250   1.380
 4564WAT      O13933   1.746   6.290   2.127
 4564WAT     H113934   1.825   6.230   2.120
 4564WAT     H213935   1.673   6.256   2.068
 4565WAT      O13936   4.071   1.554   4.691
 4565WAT     H113937   3.975   1.560   4.720
 4565WAT     H213938   4.077   1.562   4.592
 4566WAT      O13939   0.934   1.776   3.871
 4566WAT     H113940   0.947   1.677   3.862
 4566WAT     H213941   0.901   1.797   3.963
 4567WAT      O13942   3.722   6.860   3.967
 4567WAT     H113943   3.741   6.894   4.059
 4567WAT     H213944   3.671   6.928   3.915
 4568WAT      O13945   2.788   1.194   1.090
 4568WAT     H113946   2.851   1.116   1.091
 4568WAT     H213947   2.697   1.163   1.064
 4569WAT      O13948   3.638   8.262   4.673
 4569WAT     H113949   3.553   8.309   4.696
 4569WAT     H213950   3.648   8.181   4.732
 4570WAT      O13951   3.358   2.644   0.001
 4570WAT     H113952   3.259   2.651  -0.010
 4570WAT     H213953   3.390   2.718   0.061
 4571WAT      O13954   0.107   7.602   7.801
 4571WAT     H113955   0.051   7.629   7.880
 4571WAT     H213956   0.102   7.673   7.731
 4572WAT      O13957   6.671   0.982   3.903
 4572WAT     H113958   6.766   1.004   3.922
 4572WAT     H213959   6.616   1.066   3.906
 4573WAT      O13960   1.087   7.236   2.951
 4573WAT     H113961   1.052   7.186   2.871
 4573WAT     H213962   1.144   7.175   3.006
 4574WAT      O13963   2.388   7.189   9.772
 4574WAT     H113964   2.325   7.127   9.819
 4574WAT     H213965   2.432   7.249   9.839
 4575WAT      O13966   8.304   2.886   4.501
 4575WAT     H113967   8.221   2.831   4.516
 4575WAT     H213968   8.286   2.953   4.429
 4576WAT      O13969   7.823   3.646   2.464
 4576WAT     H113970   7.897   3.588   2.498
 4576WAT     H213971   7.793   3.709   2.535
 4577WAT      O13972   1.027   5.764   4.617
 4577WAT     H113973   0.985   5.852   4.595
 4577WAT     H213974   0.959   5.706   4.662
 4578WAT      O13975   0.943   7.076   8.061
 4578WAT     H113976   0.886   6.997   8.085
 4578WAT     H213977   1.033   7.045   8.031
 4579WAT      O13978   5.051   1.985   9.422
 4579WAT     H113979   5.097   1.986   9.334
 4579WAT     H213980   4.990   2.064   9.428
 4580WAT      O13981   9.090   9.720   3.132
 4580WAT     H113982   9.069   9.758   3.042
 4580WAT     H213983   9.007   9.720   3.188
 4581WAT      O13984   4.769   2.037   4.130
 4581WAT     H113985   4.854   2.042   4.077
 4581WAT     H213986   4.698   1.994   4.074
 4582WAT      O13987   5.820   5.373   3.481
 4582WAT     H113988   5.722   5.356   3.478
 4582WAT     H213989   5.869   5.287   3.463
 4583WAT      O13990   4.936   5.414   1.149
 4583WAT     H113991   5.011   5.477   1.167
 4583WAT     H213992   4.969   5.320   1.152
 4584WAT      O13993   2.121   5.008   1.482
 4584WAT     H113994   2.129   5.028   1.580
 4584WAT     H213995   2.208   4.974   1.448
 4585WAT      O13996   0.400   6.324   8.004
 4585WAT     H113997   0.417   6.267   7.924
 4585WAT     H213998   0.302   6.325   8.023
 4586WAT      O13999   0.813   2.477   1.657
 4586WAT     H114000   0.907   2.489   1.690
 4586WAT     H214001   0.800   2.381   1.631
 4587WAT      O14002   6.475   0.036   3.607
 4587WAT     H114003   6.547   0.088   3.654
 4587WAT     H214004   6.387   0.056   3.650
 4588WAT      O14005   6.924   3.152   0.704
 4588WAT     H114006   6.834   3.128   0.669
 4588WAT     H214007   6.961   3.228   0.651
 4589WAT      O14008   3.588   7.270   3.167
 4589WAT     H114009   3.508   7.315   3.125
 4589WAT     H214010   3.662   7.336   3.176
 4590WAT      O14011   0.066   4.100   0.125
 4590WAT     H114012   0.028   4.120   0.215
 4590WAT     H214013  -0.004   4.114   0.055
 4591WAT      O14014   1.867   5.235   0.161
 4591WAT     H114015   1.931   5.160   0.148
 4591WAT     H214016   1.899   5.315   0.110
 4592WAT      O14017   6.398   2.464   7.290
 4592WAT     H114018   6.313   2.411   7.285
 4592WAT     H214019   6.381   2.549   7.340
 4593WAT      O14020   3.219   2.234   3.660
 4593WAT     H114021   3.317   2.250   3.648
 4593WAT     H214022   3.178   2.214   3.572
 4594WAT      O14023   4.106   1.217   6.532
 4594WAT     H114024   4.130   1.192   6.626
 4594WAT     H214025   4.190   1.229   6.479
 4595WAT      O14026   2.310   1.219   8.963
 4595WAT     H114027   2.308   1.304   9.016
 4595WAT     H214028   2.389   1.220   8.902
 4596WAT      O14029   8.541   1.509   1.311
 4596WAT     H114030   8.479   1.546   1.380
 4596WAT     H214031   8.562   1.580   1.244
 4597WAT      O14032   7.078   7.918   7.353
 4597WAT     H114033   6.979   7.900   7.348
 4597WAT     H214034   7.118   7.902   7.263
 4598WAT      O14035   2.163   2.719   7.290
 4598WAT     H114036   2.129   2.710   7.197
 4598WAT     H214037   2.222   2.641   7.312
 4599WAT      O14038   5.049   5.769   7.714
 4599WAT     H114039   5.012   5.676   7.717
 4599WAT     H214040   5.140   5.767   7.673
 4600WAT      O14041   2.590   2.809   6.581
 4600WAT     H114042   2.653   2.886   6.563
 4600WAT     H214043   2.500   2.830   6.542
 4601WAT      O14044   6.100   0.352   0.442
 4601WAT     H114045   6.196   0.374   0.456
 4601WAT     H214046   6.064   0.306   0.523
 4602WAT      O14047   2.366   7.140   8.160
 4602WAT     H114048   2.433   7.187   8.217
 4602WAT     H214049   2.295   7.100   8.217
 4603WAT      O14050   1.423   1.353   4.495
 4603WAT     H114051   1.451   1.337   4.401
 4603WAT     H214052   1.323   1.344   4.501
 4604WAT      O14053   5.408   0.932   7.995
 4604WAT     H114054   5.402   0.909   8.093
 4604WAT     H214055   5.459   1.017   7.984
 4605WAT      O14056   0.189   7.945   9.814
 4605WAT     H114057   0.261   7.886   9.852
 4605WAT     H214058   0.151   7.903   9.732
 4606WAT      O14059   5.423   4.509   2.249
 4606WAT     H114060   5.507   4.507   2.302
 4606WAT     H214061   5.435   4.568   2.169
 4607WAT      O14062   9.602   0.500   4.379
 4607WAT     H114063   9.624   0.596   4.364
 4607WAT     H214064   9.598   0.453   4.291
 4608WAT      O14065   7.646   1.050   4.749
 4608WAT     H114066   7.719   1.065   4.815
 4608WAT     H214067   7.673   1.086   4.660
 4609WAT      O14068   7.938   5.093   3.010
 4609WAT     H114069   7.979   5.056   3.093
 4609WAT     H214070   7.965   5.037   2.931
 4610WAT      O14071   1.291   0.432   4.779
 4610WAT     H114072   1.316   0.526   4.801
 4610WAT     H214073   1.222   0.431   4.708
 4611WAT      O14074   4.195   2.926   2.079
 4611WAT     H114075   4.144   2.865   2.019
 4611WAT     H214076   4.185   3.020   2.047
 4612WAT      O14077   1.653   0.519   4.554
 4612WAT     H114078   1.572   0.564   4.592
 4612WAT     H214079   1.672   0.556   4.463
 4613WAT      O14080   6.989   2.256   4.078
 4613WAT     H114081   7.079   2.286   4.046
 4613WAT     H214082   6.965   2.306   4.161
 4614WAT      O14083   0.945   1.782   8.127
 4614WAT     H114084   0.945   1.690   8.165
 4614WAT     H214085   1.017   1.836   8.170
 4615WAT      O14086   4.518   0.025   5.610
 4615WAT     H114087   4.455  -0.011   5.679
 4615WAT     H214088   4.581  -0.047   5.582
 4616WAT      O14089   4.832   6.937   7.409
 4616WAT     H114090   4.892   6.952   7.330
 4616WAT     H214091   4.811   6.840   7.417
 4617WAT      O14092   1.153   5.597   1.405
 4617WAT     H114093   1.135   5.517   1.349
 4617WAT     H214094   1.236   5.582   1.459
 4618WAT      O14095   3.838   0.869   1.644
 4618WAT     H114096   3.907   0.798   1.661
 4618WAT     H214097   3.747   0.828   1.642
 4619WAT      O14098   1.343   8.203   1.244
 4619WAT     H114099   1.257   8.210   1.293
 4619WAT     H214100   1.331   8.236   1.150
 4620WAT      O14101   8.112   9.174   1.321
 4620WAT     H114102   8.184   9.152   1.388
 4620WAT     H214103   8.085   9.269   1.332
 4621WAT      O14104   4.677   7.231   1.677
 4621WAT     H114105   4.697   7.170   1.754
 4621WAT     H214106   4.642   7.178   1.601
 4622WAT      O14107   4.445   2.917   0.629
 4622WAT     H114108   4.470   2.852   0.701
 4622WAT     H214109   4.346   2.913   0.615
 4623WAT      O14110   6.307   2.949   2.697
 4623WAT     H114111   6.331   3.043   2.671
 4623WAT     H214112   6.222   2.923   2.650
 4624WAT      O14113   7.238   3.782   4.279
 4624WAT     H114114   7.178   3.827   4.212
 4624WAT     H214115   7.331   3.779   4.244
 4625WAT      O14116   0.033   4.122   3.285
 4625WAT     H114117  -0.067   4.120   3.285
 4625WAT     H214118   0.068   4.066   3.210
 4626WAT      O14119   9.773   6.217   0.433
 4626WAT     H114120   9.848   6.238   0.371
 4626WAT     H214121   9.708   6.293   0.435
 4627WAT      O14122   3.764   7.649   7.688
 4627WAT     H114123   3.706   7.590   7.744
 4627WAT     H214124   3.778   7.736   7.734
 4628WAT      O14125   3.058   3.293   2.573
 4628WAT     H114126   3.114   3.353   2.517
 4628WAT     H214127   3.043   3.335   2.662
 4629WAT      O14128   7.339   5.433   8.817
 4629WAT     H114129   7.414   5.369   8.834
 4629WAT     H214130   7.377   5.521   8.787
 4630WAT      O14131   4.505   3.926   8.534
 4630WAT     H114132   4.423   3.890   8.580
 4630WAT     H214133   4.575   3.947   8.602
 4631WAT      O14134   8.369   1.975   9.575
 4631WAT     H114135   8.297   1.934   9.518
 4631WAT     H214136   8.457   1.966   9.529
 4632WAT      O14137   5.954   7.031   6.191
 4632WAT     H114138   6.032   6.969   6.183
 4632WAT     H214139   5.933   7.071   6.102
 4633WAT      O14140   5.997   6.590   2.317
 4633WAT     H114141   5.923   6.560   2.257
 4633WAT     H214142   5.969   6.580   2.413
 4634WAT      O14143   3.558   4.828   3.096
 4634WAT     H114144   3.601   4.886   3.166
 4634WAT     H214145   3.627   4.798   3.031
 4635WAT      O14146   5.600   7.462   5.432
 4635WAT     H114147   5.510   7.420   5.446
 4635WAT     H214148   5.602   7.505   5.342
 4636WAT      O14149   4.439   5.316   0.623
 4636WAT     H114150   4.535   5.346   0.631
 4636WAT     H214151   4.383   5.393   0.592
 4637WAT      O14152   2.068   2.326   2.562
 4637WAT     H114153   2.078   2.231   2.590
 4637WAT     H214154   2.025   2.378   2.636
 4638WAT      O14155   9.492   2.554   0.968
 4638WAT     H114156   9.499   2.646   1.007
 4638WAT     H214157   9.410   2.509   1.004
 4639WAT      O14158   4.716   8.148   1.788
 4639WAT     H114159   4.708   8.222   1.721
 4639WAT     H214160   4.769   8.073   1.749
 4640WAT      O14161   0.357   8.565   2.532
 4640WAT     H114162   0.374   8.591   2.627
 4640WAT     H214163   0.437   8.587   2.477
 4641WAT      O14164   9.662   1.036   3.335
 4641WAT     H114165   9.610   1.054   3.252
 4641WAT     H214166   9.615   0.968   3.390
 4642WAT      O14167   7.584   4.952   3.088
 4642WAT     H114168   7.609   4.857   3.074
 4642WAT     H214169   7.587   5.001   3.001
 4643WAT      O14170   6.374   0.583   9.238
 4643WAT     H114171   6.299   0.635   9.279
 4643WAT     H214172   6.459   0.636   9.244
 4644WAT      O14173   5.007   8.691   1.600
 4644WAT     H114174   5.050   8.672   1.689
 4644WAT     H214175   5.073   8.675   1.527
 4645WAT      O14176   4.999   8.885   3.742
 4645WAT     H114177   4.968   8.800   3.699
 4645WAT     H214178   5.059   8.863   3.819
 4646WAT      O14179   4.709   0.714   7.297
 4646WAT     H114180   4.783   0.781   7.292
 4646WAT     H214181   4.738   0.628   7.256
 4647WAT      O14182   1.964   9.349   8.431
 4647WAT     H114183   1.953   9.269   8.490
 4647WAT     H214184   2.025   9.415   8.475
 4648WAT      O14185   8.761   9.534   6.687
 4648WAT     H114186   8.847   9.564   6.646
 4648WAT     H214187   8.776   9.448   6.736
 4649WAT      O14188   4.755   9.389   3.066
 4649WAT     H114189   4.749   9.290   3.063
 4649WAT     H214190   4.850   9.417   3.050
 4650WAT      O14191   7.212   8.872   0.992
 4650WAT     H114192   7.114   8.864   0.974
 4650WAT     H214193   7.255   8.782   0.984
 4651WAT      O14194   1.917   4.942   3.769
 4651WAT     H114195   1.855   4.887   3.713
 4651WAT     H214196   1.869   5.023   3.802
 4652WAT      O14197   6.576   2.136   4.687
 4652WAT     H114198   6.642   2.069   4.652
 4652WAT     H214199   6.620   2.195   4.754
 4653WAT      O14200   5.757   6.166   6.412
 4653WAT     H114201   5.698   6.213   6.347
 4653WAT     H214202   5.841   6.137   6.365
 4654WAT      O14203   7.101   9.568   9.390
 4654WAT     H114204   7.195   9.600   9.376
 4654WAT     H214205   7.056   9.624   9.459
 4655WAT      O14206   6.979   6.659   0.643
 4655WAT     H114207   7.014   6.638   0.735
 4655WAT     H214208   6.879   6.649   0.643
 4656WAT      O14209   7.757   5.073   7.983
 4656WAT     H114210   7.776   5.000   8.048
 4656WAT     H214211   7.692   5.042   7.914
 4657WAT      O14212   6.432   6.500   4.297
 4657WAT     H114213   6.343   6.520   4.258
 4657WAT     H214214   6.469   6.417   4.254
 4658WAT      O14215   3.403   2.989   7.112
 4658WAT     H114216   3.467   2.954   7.181
 4658WAT     H214217   3.369   2.913   7.056
 4659WAT      O14218   8.279   8.765   7.305
 4659WAT     H114219   8.220   8.842   7.279
 4659WAT     H214220   8.352   8.755   7.238
 4660WAT      O14221   3.018   2.074   2.488
 4660WAT     H114222   3.111   2.073   2.526
 4660WAT     H214223   2.999   1.987   2.443
 4661WAT      O14224   4.309   7.202   0.967
 4661WAT     H114225   4.339   7.292   0.999
 4661WAT     H214226   4.261   7.212   0.880
 4662WAT      O14227   7.823   4.840   9.240
 4662WAT     H114228   7.724   4.835   9.243
 4662WAT     H214229   7.851   4.932   9.212
 4663WAT      O14230   2.321   9.071   3.428
 4663WAT     H114231   2.232   9.061   3.383
 4663WAT     H214232   2.306   9.095   3.524
 4664WAT      O14233   4.816   0.506   5.823
 4664WAT     H114234   4.755   0.548   5.891
 4664WAT     H214235   4.765   0.437   5.772
 4665WAT      O14236   6.918   5.237   4.032
 4665WAT     H114237   6.882   5.268   3.944
 4665WAT     H214238   7.014   5.263   4.040
 4666WAT      O14239   8.998   0.122   2.897
 4666WAT     H114240   9.090   0.148   2.867
 4666WAT     H214241   8.957   0.197   2.948
 4667WAT      O14242   4.382   9.154   3.864
 4667WAT     H114243   4.291   9.146   3.824
 4667WAT     H214244   4.451   9.149   3.792
 4668WAT      O14245   8.909   9.531   9.735
 4668WAT     H114246   8.842   9.514   9.663
 4668WAT     H214247   8.879   9.609   9.791
 4669WAT      O14248   2.795   1.876   8.941
 4669WAT     H114249   2.821   1.785   8.973
 4669WAT     H214250   2.871   1.939   8.956
 4670WAT      O14251   5.255   9.060   9.651
 4670WAT     H114252   5.342   9.102   9.626
 4670WAT     H214253   5.267   9.004   9.733
 4671WAT      O14254   3.343   4.662   3.052
 4671WAT     H114255   3.438   4.693   3.052
 4671WAT     H214256   3.322   4.619   2.965
 4672WAT      O14257   2.198   5.834   7.359
 4672WAT     H114258   2.233   5.775   7.287
 4672WAT     H214259   2.156   5.778   7.430
 4673WAT      O14260   9.879   2.632   4.967
 4673WAT     H114261   9.875   2.718   5.019
 4673WAT     H214262   9.896   2.556   5.030
 4674WAT      O14263   6.113   6.754   8.840
 4674WAT     H114264   6.028   6.780   8.793
 4674WAT     H214265   6.157   6.837   8.875
 4675WAT      O14266   0.704   3.515   6.667
 4675WAT     H114267   0.725   3.583   6.597
 4675WAT     H214268   0.605   3.516   6.686
 4676WAT      O14269   7.117   7.810   6.642
 4676WAT     H114270   7.146   7.798   6.737
 4676WAT     H214271   7.195   7.793   6.581
 4677WAT      O14272   6.932   3.188   4.026
 4677WAT     H114273   6.914   3.132   3.945
 4677WAT     H214274   6.921   3.285   4.002
 4678WAT      O14275   8.636   0.918   5.166
 4678WAT     H114276   8.649   0.833   5.115
 4678WAT     H214277   8.564   0.905   5.235
 4679WAT      O14278   6.516   0.770   0.720
 4679WAT     H114279   6.498   0.726   0.808
 4679WAT     H214280   6.454   0.731   0.651
 4680WAT      O14281   2.253   4.749   1.754
 4680WAT     H114282   2.273   4.719   1.847
 4680WAT     H214283   2.231   4.669   1.698
 4681WAT      O14284   2.959   3.846   0.631
 4681WAT     H114285   3.034   3.830   0.567
 4681WAT     H214286   2.995   3.858   0.723
 4682WAT      O14287   0.370   3.383   5.544
 4682WAT     H114288   0.320   3.444   5.604
 4682WAT     H214289   0.459   3.363   5.584
 4683WAT      O14290   5.544   1.273   4.952
 4683WAT     H114291   5.507   1.309   5.037
 4683WAT     H214292   5.644   1.282   4.952
 4684WAT      O14293   6.222   6.716   2.432
 4684WAT     H114294   6.290   6.669   2.489
 4684WAT     H214295   6.160   6.649   2.393
 4685WAT      O14296   3.931   3.718   2.807
 4685WAT     H114297   3.864   3.646   2.788
 4685WAT     H214298   3.896   3.777   2.879
 4686WAT      O14299   3.206   5.335   8.887
 4686WAT     H114300   3.116   5.366   8.917
 4686WAT     H214301   3.231   5.252   8.937
 4687WAT      O14302   4.008   4.423   2.459
 4687WAT     H114303   3.974   4.475   2.380
 4687WAT     H214304   3.938   4.358   2.488
 4688WAT      O14305   4.749   8.469   2.840
 4688WAT     H114306   4.708   8.387   2.881
 4688WAT     H214307   4.849   8.458   2.838
 4689WAT      O14308   8.866   4.662   5.815
 4689WAT     H114309   8.917   4.614   5.743
 4689WAT     H214310   8.768   4.642   5.805
 4690WAT      O14311   4.787   9.351   4.930
 4690WAT     H114312   4.832   9.427   4.885
 4690WAT     H214313   4.793   9.269   4.872
 4691WAT      O14314   1.899   9.076   1.223
 4691WAT     H114315   1.970   9.045   1.287
 4691WAT     H214316   1.825   9.009   1.221
 4692WAT      O14317   6.961   5.300   8.154
 4692WAT     H114318   6.903   5.230   8.195
 4692WAT     H214319   6.953   5.296   8.055
 4693WAT      O14320   9.164   9.333   5.859
 4693WAT     H114321   9.263   9.317   5.854
 4693WAT     H214322   9.147   9.428   5.885
 4694WAT      O14323   6.294   5.535   4.234
 4694WAT     H114324   6.230   5.602   4.270
 4694WAT     H214325   6.329   5.566   4.146
 4695WAT      O14326   4.036   7.359   4.164
 4695WAT     H114327   4.118   7.338   4.111
 4695WAT     H214328   3.982   7.276   4.178
 4696WAT      O14329   1.253   1.893   5.131
 4696WAT     H114330   1.277   1.888   5.034
 4696WAT     H214331   1.174   1.952   5.143
 4697WAT      O14332   2.247   3.300   6.836
 4697WAT     H114333   2.252   3.394   6.869
 4697WAT     H214334   2.300   3.241   6.897
 4698WAT      O14335   8.847   2.923   8.366
 4698WAT     H114336   8.811   2.840   8.408
 4698WAT     H214337   8.928   2.900   8.311
 4699WAT      O14338   6.062   4.190   0.790
 4699WAT     H114339   6.132   4.125   0.821
 4699WAT     H214340   5.973   4.146   0.795
 4700WAT      O14341   5.920   8.501   8.136
 4700WAT     H114342   5.915   8.513   8.235
 4700WAT     H214343   6.015   8.481   8.110
 4701WAT      O14344   8.390   9.114   1.962
 4701WAT     H114345   8.431   9.037   2.010
 4701WAT     H214346   8.301   9.135   2.003
 4702WAT      O14347   8.668   2.202   2.432
 4702WAT     H114348   8.583   2.220   2.481
 4702WAT     H214349   8.672   2.260   2.350
 4703WAT      O14350   4.295   9.619   8.569
 4703WAT     H114351   4.248   9.535   8.543
 4703WAT     H214352   4.259   9.652   8.656
 4704WAT      O14353   0.085   7.974   3.893
 4704WAT     H114354   0.089   8.045   3.823
 4704WAT     H214355   0.000   7.984   3.946
 4705WAT      O14356   2.413   2.273   7.391
 4705WAT     H114357   2.505   2.291   7.355
 4705WAT     H214358   2.384   2.181   7.365
 4706WAT      O14359   7.527   4.449   6.869
 4706WAT     H114360   7.575   4.376   6.918
 4706WAT     H214361   7.590   4.523   6.849
 4707WAT      O14362   4.304   7.423   0.419
 4707WAT     H114363   4.283   7.454   0.512
 4707WAT     H214364   4.234   7.456   0.356
 4708WAT      O14365   8.299   6.183   6.443
 4708WAT     H114366   8.272   6.250   6.374
 4708WAT     H214367   8.251   6.097   6.426
 4709WAT      O14368   4.063   1.601   8.915
 4709WAT     H114369   3.996   1.558   8.855
 4709WAT     H214370   4.150   1.551   8.910
 4710WAT      O14371   6.716   0.765   5.239
 4710WAT     H114372   6.625   0.807   5.241
 4710WAT     H214373   6.750   0.754   5.332
 4711WAT      O14374   1.296   1.953   1.831
 4711WAT     H114375   1.252   1.911   1.910
 4711WAT     H214376   1.394   1.964   1.848
 4712WAT      O14377   5.929   5.049   8.458
 4712WAT     H114378   5.846   5.017   8.413
 4712WAT     H214379   5.915   5.143   8.491
 4713WAT      O14380   6.906   7.230   6.600
 4713WAT     H114381   6.851   7.302   6.642
 4713WAT     H214382   6.870   7.210   6.508
 4714WAT      O14383   6.937   5.660   1.600
 4714WAT     H114384   7.000   5.737   1.610
 4714WAT     H214385   6.974   5.594   1.536
 4715WAT      O14386   7.402   9.146   5.379
 4715WAT     H114387   7.346   9.222   5.347
 4715WAT     H214388   7.398   9.142   5.479
 4716WAT      O14389   5.330   1.800   2.981
 4716WAT     H114390   5.324   1.851   2.895
 4716WAT     H214391   5.314   1.862   3.057
 4717WAT      O14392   0.586   2.064   7.417
 4717WAT     H114393   0.652   2.135   7.390
 4717WAT     H214394   0.591   2.051   7.516
 4718WAT      O14395   9.588   4.909   3.681
 4718WAT     H114396   9.687   4.890   3.685
 4718WAT     H214397   9.551   4.867   3.598
 4719WAT      O14398   8.640   1.901   8.129
 4719WAT     H114399   8.560   1.842   8.142
 4719WAT     H214400   8.671   1.935   8.218
 4720WAT      O14401   7.816   9.440   4.711
 4720WAT     H114402   7.782   9.508   4.645
 4720WAT     H214403   7.910   9.416   4.689
 4721WAT      O14404   9.823   7.334   6.196
 4721WAT     H114405   9.766   7.412   6.169
 4721WAT     H214406   9.914   7.367   6.222
 4722WAT      O14407   8.585   4.332   6.794
 4722WAT     H114408   8.628   4.243   6.777
 4722WAT     H214409   8.560   4.374   6.706
 4723WAT      O14410   2.638   4.789   1.625
 4723WAT     H114411   2.697   4.862   1.589
 4723WAT     H214412   2.646   4.708   1.568
 4724WAT      O14413   6.710   2.582   1.380
 4724WAT     H114414   6.665   2.660   1.336
 4724WAT     H214415   6.722   2.508   1.314
 4725WAT      O14416   6.381   3.468   1.978
 4725WAT     H114417   6.437   3.548   1.959
 4725WAT     H214418   6.371   3.412   1.896
 4726WAT      O14419   3.276   8.120   4.337
 4726WAT     H114420   3.310   8.189   4.401
 4726WAT     H214421   3.177   8.110   4.348
 4727WAT      O14422   6.308   1.568   9.045
 4727WAT     H114423   6.255   1.585   9.128
 4727WAT     H214424   6.357   1.652   9.020
 4728WAT      O14425   8.467   1.020   0.162
 4728WAT     H114426   8.417   0.982   0.084
 4728WAT     H214427   8.512   1.105   0.134
 4729WAT      O14428   2.211   8.203   1.501
 4729WAT     H114429   2.201   8.248   1.413
 4729WAT     H214430   2.166   8.114   1.498
 4730WAT      O14431   5.586   6.671   5.487
 4730WAT     H114432   5.641   6.587   5.482
 4730WAT     H214433   5.588   6.716   5.398
 4731WAT      O14434   4.966   8.679   1.927
 4731WAT     H114435   4.987   8.617   2.002
 4731WAT     H214436   5.026   8.758   1.931
 4732WAT      O14437   2.325   4.749   9.219
 4732WAT     H114438   2.389   4.702   9.159
 4732WAT     H214439   2.276   4.682   9.275
 4733WAT      O14440   8.224   8.766   7.766
 4733WAT     H114441   8.264   8.832   7.829
 4733WAT     H214442   8.296   8.731   7.705
 4734WAT      O14443   2.237   0.521   0.991
 4734WAT     H114444   2.162   0.576   1.028
 4734WAT     H214445   2.239   0.531   0.891
 4735WAT      O14446   2.979   9.699   8.820
 4735WAT     H114447   2.910   9.689   8.749
 4735WAT     H214448   3.070   9.681   8.781
 4736WAT      O14449   5.753   8.537   0.370
 4736WAT     H114450   5.761   8.527   0.469
 4736WAT     H214451   5.822   8.481   0.325
 4737WAT      O14452   5.786   4.941   5.710
 4737WAT     H114453   5.810   5.020   5.653
 4737WAT     H214454   5.702   4.899   5.675
 4738WAT      O14455   8.855   4.688   5.484
 4738WAT     H114456   8.897   4.607   5.524
 4738WAT     H214457   8.860   4.764   5.548
 4739WAT      O14458   0.321   6.399   5.320
 4739WAT     H114459   0.400   6.404   5.382
 4739WAT     H214460   0.250   6.461   5.353
 4740WAT      O14461   7.156  -0.001   8.153
 4740WAT     H114462   7.127   0.010   8.058
 4740WAT     H214463   7.129   0.079   8.206
 4741WAT      O14464   6.974   2.811   5.488
 4741WAT     H114465   7.021   2.740   5.541
 4741WAT     H214466   7.019   2.822   5.400
 4742WAT      O14467   0.675   0.777   0.232
 4742WAT     H114468   0.642   0.856   0.284
 4742WAT     H214469   0.607   0.753   0.162
 4743WAT      O14470   9.847   6.337   0.726
 4743WAT     H114471   9.924   6.274   0.715
 4743WAT     H214472   9.846   6.401   0.650
 4744WAT      O14473   9.281   9.280   9.080
 4744WAT     H114474   9.331   9.194   9.069
 4744WAT     H214475   9.284   9.309   9.175
 4745WAT      O14476   7.580   9.223   9.289
 4745WAT     H114477   7.623   9.150   9.341
 4745WAT     H214478   7.496   9.188   9.247
 4746WAT      O14479   9.264   9.029   3.585
 4746WAT     H114480   9.303   9.045   3.675
 4746WAT     H214481   9.245   8.932   3.574
 4747WAT      O14482   1.304   7.786   8.149
 4747WAT     H114483   1.277   7.882   8.144
 4747WAT     H214484   1.403   7.779   8.163
 4748WAT      O14485   0.376   3.591   7.947
 4748WAT     H114486   0.457   3.533   7.934
 4748WAT     H214487   0.386   3.673   7.891
 4749WAT      O14488   3.483   1.782   3.847
 4749WAT     H114489   3.540   1.711   3.806
 4749WAT     H214490   3.448   1.842   3.774
 4750WAT      O14491   0.903   9.218   0.838
 4750WAT     H114492   0.883   9.136   0.784
 4750WAT     H214493   0.829   9.233   0.904
 4751WAT      O14494   6.671   4.798   5.003
 4751WAT     H114495   6.637   4.806   4.909
 4751WAT     H214496   6.695   4.702   5.021
 4752WAT      O14497   9.463   7.155   0.296
 4752WAT     H114498   9.523   7.230   0.268
 4752WAT     H214499   9.491   7.122   0.386
 4753WAT      O14500   1.824   0.589   3.578
 4753WAT     H114501   1.742   0.647   3.578
 4753WAT     H214502   1.827   0.534   3.661
 4754WAT      O14503   4.356   4.706   0.212
 4754WAT     H114504   4.282   4.691   0.277
 4754WAT     H214505   4.440   4.728   0.261
 4755WAT      O14506   6.485   0.334   0.934
 4755WAT     H114507   6.523   0.272   0.866
 4755WAT     H214508   6.555   0.360   1.000
 4756WAT      O14509   1.011   6.406   1.044
 4756WAT     H114510   1.025   6.315   1.005
 4756WAT     H214511   1.031   6.404   1.142
 4757WAT      O14512   8.128   0.842   0.955
 4757WAT     H114513   8.061   0.791   0.902
 4757WAT     H214514   8.215   0.793   0.955
 4758WAT      O14515   7.463   5.647   8.152
 4758WAT     H114516   7.488   5.654   8.056
 4758WAT     H214517   7.506   5.567   8.193
 4759WAT      O14518   1.610   4.417   7.040
 4759WAT     H114519   1.648   4.493   7.094
 4759WAT     H214520   1.554   4.359   7.099
 4760WAT      O14521   5.860   9.721   0.677
 4760WAT     H114522   5.799   9.716   0.756
 4760WAT     H214523   5.859   9.634   0.629
 4761WAT      O14524   7.114   3.961   7.315
 4761WAT     H114525   7.025   3.916   7.306
 4761WAT     H214526   7.150   3.984   7.225
 4762WAT      O14527   8.961   7.034   1.647
 4762WAT     H114528   8.932   7.034   1.743
 4762WAT     H214529   9.055   7.068   1.640
 4763WAT      O14530   2.899   6.388   2.749
 4763WAT     H114531   2.837   6.373   2.672
 4763WAT     H214532   2.943   6.301   2.774
 4764WAT      O14533   4.679   6.849   1.318
 4764WAT     H114534   4.708   6.938   1.282
 4764WAT     H214535   4.579   6.843   1.315
 4765WAT      O14536   6.088   5.936   1.688
 4765WAT     H114537   6.070   6.012   1.626
 4765WAT     H214538   6.129   5.861   1.637
 4766WAT      O14539   3.398   7.902   8.557
 4766WAT     H114540   3.362   7.845   8.484
 4766WAT     H214541   3.462   7.969   8.519
 4767WAT      O14542   1.761   7.958   2.268
 4767WAT     H114543   1.677   7.967   2.322
 4767WAT     H214544   1.808   8.046   2.265
 4768WAT      O14545   9.569   0.911   0.594
 4768WAT     H114546   9.589   0.813   0.603
 4768WAT     H214547   9.619   0.948   0.516
 4769WAT      O14548   9.867   2.614   8.405
 4769WAT     H114549   9.934   2.544   8.382
 4769WAT     H214550   9.783   2.598   8.353
 4770WAT      O14551   7.460   6.044   9.716
 4770WAT     H114552   7.425   6.039   9.623
 4770WAT     H214553   7.511   6.130   9.727
 4771WAT      O14554   0.472   0.311   5.950
 4771WAT     H114555   0.512   0.219   5.942
 4771WAT     H214556   0.535   0.370   5.999
 4772WAT      O14557   0.028   0.137   3.501
 4772WAT     H114558  -0.015   0.208   3.556
 4772WAT     H214559   0.107   0.175   3.453
 4773WAT      O14560   7.013   4.201   3.752
 4773WAT     H114561   7.091   4.245   3.797
 4773WAT     H214562   7.044   4.122   3.700
 4774WAT      O14563   9.600   7.071   4.342
 4774WAT     H114564   9.677   7.129   4.317
 4774WAT     H214565   9.623   6.975   4.325
 4775WAT      O14566   3.463   5.950   4.109
 4775WAT     H114567   3.530   5.877   4.121
 4775WAT     H214568   3.372   5.911   4.099
 4776WAT      O14569   1.975   4.360   4.658
 4776WAT     H114570   1.955   4.328   4.751
 4776WAT     H214571   1.981   4.460   4.658
 4777WAT      O14572   2.634   8.323   2.561
 4777WAT     H114573   2.574   8.357   2.488
 4777WAT     H214574   2.658   8.228   2.543
 4778WAT      O14575   3.565   2.045   0.863
 4778WAT     H114576   3.618   2.118   0.906
 4778WAT     H214577   3.625   1.992   0.802
 4779WAT      O14578   6.143   7.087   5.678
 4779WAT     H114579   6.164   6.995   5.711
 4779WAT     H214580   6.048   7.090   5.648
 4780WAT      O14581   2.007   4.935   1.110
 4780WAT     H114582   2.025   4.854   1.054
 4780WAT     H214583   1.955   4.908   1.191
 4781WAT      O14584   2.437   1.470   8.087
 4781WAT     H114585   2.508   1.462   8.017
 4781WAT     H214586   2.477   1.453   8.177
 4782WAT      O14587   4.078   4.551   8.075
 4782WAT     H114588   4.049   4.622   8.012
 4782WAT     H214589   4.178   4.546   8.077
 4783WAT      O14590   0.914   1.378   6.068
 4783WAT     H114591   0.891   1.359   5.972
 4783WAT     H214592   1.010   1.355   6.084
 4784WAT      O14593   1.889   2.631   2.357
 4784WAT     H114594   1.833   2.702   2.400
 4784WAT     H214595   1.861   2.541   2.391
 4785WAT      O14596   8.541   5.461   9.477
 4785WAT     H114597   8.617   5.484   9.418
 4785WAT     H214598   8.492   5.382   9.439
 4786WAT      O14599   6.675   8.647   8.013
 4786WAT     H114600   6.759   8.644   7.959
 4786WAT     H214601   6.695   8.682   8.105
 4787WAT      O14602   0.716   7.612   9.672
 4787WAT     H114603   0.752   7.587   9.582
 4787WAT     H214604   0.618   7.595   9.675
 4788WAT      O14605   7.498   8.484   7.351
 4788WAT     H114606   7.556   8.460   7.273
 4788WAT     H214607   7.500   8.583   7.363
 4789WAT      O14608   5.717   2.388   8.164
 4789WAT     H114609   5.743   2.331   8.242
 4789WAT     H214610   5.625   2.423   8.177
 4790WAT      O14611   0.445   0.411   3.733
 4790WAT     H114612   0.494   0.327   3.754
 4790WAT     H214613   0.452   0.475   3.810
 4791WAT      O14614   6.844   7.696   2.475
 4791WAT     H114615   6.859   7.790   2.446
 4791WAT     H214616   6.777   7.653   2.416
 4792WAT      O14617   7.345   6.744   1.389
 4792WAT     H114618   7.348   6.786   1.298
 4792WAT     H214619   7.252   6.748   1.425
 4793WAT      O14620   5.334   7.567   5.013
 4793WAT     H114621   5.422   7.613   5.001
 4793WAT     H214622   5.261   7.634   5.015
 4794WAT      O14623   4.974   2.632   8.381
 4794WAT     H114624   4.891   2.688   8.381
 4794WAT     H214625   4.983   2.585   8.293
 4795WAT      O14626   4.416   4.894   8.947
 4795WAT     H114627   4.415   4.990   8.976
 4795WAT     H214628   4.323   4.860   8.941
 4796WAT      O14629   6.884   0.346   4.000
 4796WAT     H114630   6.899   0.247   4.008
 4796WAT     H214631   6.905   0.375   3.907
 4797WAT      O14632   8.036   0.253   7.567
 4797WAT     H114633   8.013   0.176   7.508
 4797WAT     H214634   8.121   0.295   7.535
 4798WAT      O14635   7.744   8.425   1.199
 4798WAT     H114636   7.687   8.502   1.168
 4798WAT     H214637   7.743   8.353   1.130
 4799WAT      O14638   7.785   4.212   5.939
 4799WAT     H114639   7.851   4.152   5.893
 4799WAT     H214640   7.823   4.243   6.026
 4800WAT      O14641   0.220   0.414   6.040
 4800WAT     H114642   0.309   0.386   6.004
 4800WAT     H214643   0.149   0.359   5.997
 4801WAT      O14644   0.695   0.070   8.170
 4801WAT     H114645   0.611   0.117   8.196
 4801WAT     H214646   0.757   0.066   8.248
 4802WAT      O14647   1.327   0.541   0.451
 4802WAT     H114648   1.388   0.467   0.483
 4802WAT     H214649   1.322   0.612   0.522
 4803WAT      O14650   7.142   6.932   2.966
 4803WAT     H114651   7.097   6.984   2.893
 4803WAT     H214652   7.241   6.934   2.951
 4804WAT      O14653   6.969   6.333   2.919
 4804WAT     H114654   6.890   6.388   2.944
 4804WAT     H214655   6.953   6.290   2.830
 4805WAT      O14656   5.358   4.952   9.703
 4805WAT     H114657   5.408   4.941   9.617
 4805WAT     H214658   5.288   4.882   9.711
 4806WAT      O14659   3.080   6.723   8.882
 4806WAT     H114660   3.115   6.649   8.940
 4806WAT     H214661   3.047   6.686   8.796
 4807WAT      O14662   2.090   8.201   5.910
 4807WAT     H114663   1.996   8.231   5.926
 4807WAT     H214664   2.152   8.252   5.969
 4808WAT      O14665   5.344   7.693   8.693
 4808WAT     H114666   5.428   7.658   8.653
 4808WAT     H214667   5.362   7.732   8.783
 4809WAT      O14668   3.262   0.510   3.809
 4809WAT     H114669   3.337   0.526   3.745
 4809WAT     H214670   3.179   0.552   3.773
 4810WAT      O14671   7.013   4.000   0.306
 4810WAT     H114672   6.942   4.047   0.357
 4810WAT     H214673   7.008   3.902   0.325
 4811WAT      O14674   8.669   7.196   2.270
 4811WAT     H114675   8.637   7.288   2.249
 4811WAT     H214676   8.691   7.191   2.368
 4812WAT      O14677   0.747   2.975   7.206
 4812WAT     H114678   0.710   2.960   7.298
 4812WAT     H214679   0.672   2.997   7.143
 4813WAT      O14680   9.818   9.831   5.943
 4813WAT     H114681   9.775   9.759   5.997
 4813WAT     H214682   9.747   9.884   5.896
 4814WAT      O14683   6.094   8.916   1.366
 4814WAT     H114684   6.054   8.947   1.279
 4814WAT     H214685   6.021   8.895   1.430
 4815WAT      O14686   4.541   0.335   0.846
 4815WAT     H114687   4.635   0.371   0.847
 4815WAT     H214688   4.484   0.395   0.790
 4816WAT      O14689   3.863   1.654   9.302
 4816WAT     H114690   3.920   1.574   9.322
 4816WAT     H214691   3.767   1.627   9.306
 4817WAT      O14692   1.045   1.558   4.704
 4817WAT     H114693   1.048   1.631   4.637
 4817WAT     H214694   1.031   1.470   4.658
 4818WAT      O14695   8.976   2.172   0.873
 4818WAT     H114696   9.023   2.132   0.952
 4818WAT     H214697   9.025   2.254   0.843
 4819WAT      O14698   7.777   2.144   8.167
 4819WAT     H114699   7.845   2.100   8.226
 4819WAT     H214700   7.786   2.244   8.174
 4820WAT      O14701   5.831   7.002   2.450
 4820WAT     H114702   5.843   7.027   2.545
 4820WAT     H214703   5.749   6.944   2.441
 4821WAT      O14704   5.561   4.190   4.010
 4821WAT     H114705   5.512   4.166   4.094
 4821WAT     H214706   5.508   4.257   3.959
 4822WAT      O14707   9.186   8.311   6.582
 4822WAT     H114708   9.277   8.274   6.567
 4822WAT     H214709   9.167   8.383   6.515
 4823WAT      O14710   5.359   5.550   4.963
 4823WAT     H114711   5.435   5.514   5.018
 4823WAT     H214712   5.300   5.474   4.934
 4824WAT      O14713   7.098   6.906   0.727
 4824WAT     H114714   7.020   6.962   0.699
 4824WAT     H214715   7.070   6.811   0.734
 4825WAT      O14716   6.673   9.508   0.614
 4825WAT     H114717   6.680   9.600   0.575
 4825WAT     H214718   6.644   9.514   0.709
 4826WAT      O14719   4.296   2.683   4.604
 4826WAT     H114720   4.328   2.775   4.623
 4826WAT     H214721   4.355   2.639   4.537
 4827WAT      O14722   2.429   8.622   9.730
 4827WAT     H114723   2.482   8.622   9.815
 4827WAT     H214724   2.351   8.684   9.740
 4828WAT      O14725   7.711   5.504   8.829
 4828WAT     H114726   7.792   5.477   8.881
 4828WAT     H214727   7.670   5.585   8.872
 4829WAT      O14728   4.894   1.479   0.995
 4829WAT     H114729   4.840   1.395   0.994
 4829WAT     H214730   4.834   1.557   1.013
 4830WAT      O14731   5.821   2.088   4.141
 4830WAT     H114732   5.868   2.165   4.097
 4830WAT     H214733   5.741   2.063   4.087
 4831WAT      O14734   7.268   1.586   7.383
 4831WAT     H114735   7.198   1.638   7.334
 4831WAT     H214736   7.354   1.638   7.382
 4832WAT      O14737   8.842   7.708   8.090
 4832WAT     H114738   8.838   7.737   8.186
 4832WAT     H214739   8.750   7.681   8.060
 4833WAT      O14740   8.213   7.519   0.172
 4833WAT     H114741   8.215   7.420   0.165
 4833WAT     H214742   8.303   7.556   0.147
 4834WAT      O14743   4.104   1.425   3.047
 4834WAT     H114744   4.025   1.457   2.995
 4834WAT     H214745   4.088   1.332   3.079
 4835WAT      O14746   3.245   7.263   9.684
 4835WAT     H114747   3.214   7.178   9.641
 4835WAT     H214748   3.303   7.241   9.763
 4836WAT      O14749   4.049   2.130   5.126
 4836WAT     H114750   4.026   2.099   5.218
 4836WAT     H214751   4.056   2.050   5.065
 4837WAT      O14752   2.649   3.108   2.180
 4837WAT     H114753   2.667   3.153   2.093
 4837WAT     H214754   2.674   3.169   2.255
 4838WAT      O14755   6.601   9.097   4.044
 4838WAT     H114756   6.538   9.094   4.122
 4838WAT     H214757   6.625   9.004   4.018
 4839WAT      O14758   9.301   7.691   6.415
 4839WAT     H114759   9.327   7.601   6.378
 4839WAT     H214760   9.317   7.692   6.513
 4840WAT      O14761   7.055   8.445   2.429
 4840WAT     H114762   7.020   8.390   2.354
 4840WAT     H214763   6.990   8.517   2.451
 4841WAT      O14764   5.849   0.835   7.022
 4841WAT     H114765   5.939   0.804   6.991
 4841WAT     H214766   5.783   0.823   6.948
 4842WAT      O14767   1.459   0.485   5.372
 4842WAT     H114768   1.465   0.430   5.289
 4842WAT     H214769   1.364   0.489   5.402
 4843WAT      O14770   2.894   4.098   9.065
 4843WAT     H114771   2.820   4.042   9.027
 4843WAT     H214772   2.950   4.042   9.125
 4844WAT      O14773   6.589   4.133   1.406
 4844WAT     H114774   6.559   4.094   1.319
 4844WAT     H214775   6.666   4.194   1.390
 4845WAT      O14776   6.775   3.248   5.375
 4845WAT     H114777   6.753   3.215   5.283
 4845WAT     H214778   6.793   3.170   5.434
 4846WAT      O14779   5.874   5.926   3.174
 4846WAT     H114780   5.834   5.841   3.140
 4846WAT     H214781   5.845   6.002   3.115
 4847WAT      O14782   8.561   2.029   5.409
 4847WAT     H114783   8.555   2.043   5.311
 4847WAT     H214784   8.568   1.932   5.429
 4848WAT      O14785   2.727   6.418   0.349
 4848WAT     H114786   2.710   6.496   0.410
 4848WAT     H214787   2.825   6.403   0.340
 4849WAT      O14788   6.257   7.104   3.435
 4849WAT     H114789   6.337   7.160   3.414
 4849WAT     H214790   6.275   7.048   3.515
 4850WAT      O14791   1.251   1.186   7.385
 4850WAT     H114792   1.225   1.089   7.394
 4850WAT     H214793   1.182   1.243   7.428
 4851WAT      O14794   0.707   6.184   1.206
 4851WAT     H114795   0.756   6.229   1.281
 4851WAT     H214796   0.737   6.089   1.199
 4852WAT      O14797   4.171   5.438   0.411
 4852WAT     H114798   4.146   5.366   0.346
 4852WAT     H214799   4.226   5.508   0.365
 4853WAT      O14800   7.523   6.755   2.908
 4853WAT     H114801   7.580   6.714   2.979
 4853WAT     H214802   7.521   6.695   2.828
 4854WAT      O14803   8.665   7.385   8.721
 4854WAT     H114804   8.747   7.348   8.676
 4854WAT     H214805   8.692   7.431   8.806
 4855WAT      O14806   7.964   9.439   8.265
 4855WAT     H114807   7.959   9.428   8.364
 4855WAT     H214808   7.968   9.349   8.221
 4856WAT      O14809   1.557   7.911   2.448
 4856WAT     H114810   1.541   7.964   2.531
 4856WAT     H214811   1.551   7.813   2.469
 4857WAT      O14812   9.588   9.578   1.424
 4857WAT     H114813   9.540   9.560   1.338
 4857WAT     H214814   9.610   9.491   1.469
 4858WAT      O14815   2.223   6.491   5.279
 4858WAT     H114816   2.241   6.588   5.293
 4858WAT     H214817   2.134   6.479   5.234
 4859WAT      O14818   3.929   2.937   9.438
 4859WAT     H114819   3.902   2.846   9.470
 4859WAT     H214820   4.029   2.946   9.444
 4860WAT      O14821   7.957   0.972   3.808
 4860WAT     H114822   7.999   1.047   3.757
 4860WAT     H214823   7.925   1.006   3.897
 4861WAT      O14824   3.670   2.889   4.160
 4861WAT     H114825   3.741   2.826   4.192
 4861WAT     H214826   3.602   2.838   4.107
 4862WAT      O14827   0.374   0.948   9.355
 4862WAT     H114828   0.440   0.992   9.294
 4862WAT     H214829   0.316   0.886   9.303
 4863WAT      O14830   7.782   1.850   9.008
 4863WAT     H114831   7.813   1.868   8.914
 4863WAT     H214832   7.820   1.920   9.069
 4864WAT      O14833   4.495   5.720   8.485
 4864WAT     H114834   4.570   5.784   8.499
 4864WAT     H214835   4.416   5.748   8.540
 4865WAT      O14836   8.296   0.469   8.917
 4865WAT     H114837   8.347   0.554   8.904
 4865WAT     H214838   8.354   0.391   8.894
 4866WAT      O14839   8.878   3.874   9.137
 4866WAT     H114840   8.937   3.927   9.077
 4866WAT     H214841   8.821   3.812   9.083
 4867WAT      O14842   3.760   2.060   9.173
 4867WAT     H114843   3.716   2.025   9.090
 4867WAT     H214844   3.713   2.025   9.253
 4868WAT      O14845   4.420   6.800   9.143
 4868WAT     H114846   4.465   6.716   9.112
 4868WAT     H214847   4.337   6.816   9.089
 4869WAT      O14848   9.689   0.206   3.697
 4869WAT     H114849   9.707   0.152   3.779
 4869WAT     H214850   9.617   0.162   3.644
 4870WAT      O14851   4.863   9.740   3.173
 4870WAT     H114852   4.887   9.674   3.244
 4870WAT     H214853   4.823   9.822   3.215
 4871WAT      O14854   8.017   9.381   5.448
 4871WAT     H114855   7.955   9.448   5.489
 4871WAT     H214856   7.964   9.305   5.410
 4872WAT      O14857   3.901   8.234   4.285
 4872WAT     H114858   3.901   8.249   4.186
 4872WAT     H214859   3.954   8.306   4.330
 4873WAT      O14860   6.358   2.162   2.353
 4873WAT     H114861   6.347   2.092   2.424
 4873WAT     H214862   6.456   2.179   2.339
 4874WAT      O14863   5.289   0.076   7.818
 4874WAT     H114864   5.251   0.160   7.779
 4874WAT     H214865   5.342   0.099   7.900
 4875WAT      O14866   1.466   9.312   7.879
 4875WAT     H114867   1.392   9.295   7.814
 4875WAT     H214868   1.549   9.266   7.849
 4876WAT      O14869   7.451   4.769   2.465
 4876WAT     H114870   7.418   4.805   2.552
 4876WAT     H214871   7.402   4.686   2.442
 4877WAT      O14872   4.179   0.880   0.540
 4877WAT     H114873   4.223   0.967   0.519
 4877WAT     H214874   4.185   0.820   0.460
 4878WAT      O14875   9.527   7.372   3.315
 4878WAT     H114876   9.617   7.417   3.320
 4878WAT     H214877   9.459   7.438   3.285
 4879WAT      O14878   9.409   0.325   7.724
 4879WAT     H114879   9.382   0.335   7.819
 4879WAT     H214880   9.337   0.278   7.673
 4880WAT      O14881   7.466   6.418   4.645
 4880WAT     H114882   7.507   6.508   4.636
 4880WAT     H214883   7.419   6.411   4.733
 4881WAT      O14884   7.725   9.475   0.243
 4881WAT     H114885   7.784   9.487   0.164
 4881WAT     H214886   7.632   9.453   0.213
 4882WAT      O14887   8.516   5.099   2.750
 4882WAT     H114888   8.522   5.081   2.652
 4882WAT     H214889   8.595   5.154   2.778
 4883WAT      O14890   7.353   6.598   3.445
 4883WAT     H114891   7.447   6.604   3.410
 4883WAT     H214892   7.301   6.678   3.416
 4884WAT      O14893   8.909   6.242   5.186
 4884WAT     H114894   9.005   6.267   5.175
 4884WAT     H214895   8.866   6.302   5.253
 4885WAT      O14896   4.611   4.318   0.301
 4885WAT     H114897   4.602   4.226   0.264
 4885WAT     H214898   4.597   4.385   0.228
 4886WAT      O14899   5.764   0.148   6.027
 4886WAT     H114900   5.862   0.159   6.012
 4886WAT     H214901   5.748   0.113   6.120
 4887WAT      O14902   9.180   7.537   0.990
 4887WAT     H114903   9.084   7.538   0.962
 4887WAT     H214904   9.200   7.617   1.047
 4888WAT      O14905   1.510   9.462   1.333
 4888WAT     H114906   1.463   9.510   1.408
 4888WAT     H214907   1.543   9.373   1.366
 4889WAT      O14908   7.801   9.633   8.445
 4889WAT     H114909   7.859   9.624   8.526
 4889WAT     H214910   7.725   9.568   8.451
 4890WAT      O14911   5.398   6.924   6.464
 4890WAT     H114912   5.354   7.012   6.447
 4890WAT     H214913   5.330   6.851   6.454
 4891WAT      O14914   8.072   6.759   5.502
 4891WAT     H114915   8.039   6.668   5.476
 4891WAT     H214916   8.028   6.787   5.588
 4892WAT      O14917   7.433   2.270   0.665
 4892WAT     H114918   7.484   2.205   0.609
 4892WAT     H214919   7.429   2.359   0.618
 4893WAT      O14920   7.416   8.398   1.182
 4893WAT     H114921   7.454   8.408   1.090
 4893WAT     H214922   7.437   8.480   1.236
 4894WAT      O14923   8.684   0.151   6.481
 4894WAT     H114924   8.709   0.246   6.497
 4894WAT     H214925   8.735   0.116   6.402
 4895WAT      O14926   7.425   6.723   9.727
 4895WAT     H114927   7.501   6.690   9.783
 4895WAT     H214928   7.445   6.708   9.631
 4896WAT      O14929   9.374   5.050   8.922
 4896WAT     H114930   9.296   5.106   8.951
 4896WAT     H214931   9.405   5.080   8.831
 4897WAT      O14932   2.584   9.453   1.103
 4897WAT     H114933   2.492   9.480   1.075
 4897WAT     H214934   2.580   9.367   1.154
 4898WAT      O14935   9.010   1.138   3.322
 4898WAT     H114936   8.971   1.105   3.408
 4898WAT     H214937   9.043   1.061   3.268
 4899WAT      O14938   0.672   6.993   9.479
 4899WAT     H114939   0.580   6.968   9.447
 4899WAT     H214940   0.698   7.081   9.440
 4900WAT      O14941   3.067   8.101   1.914
 4900WAT     H114942   2.977   8.136   1.887
 4900WAT     H214943   3.134   8.124   1.843
 4901WAT      O14944   5.564   1.150   1.900
 4901WAT     H114945   5.646   1.127   1.849
 4901WAT     H214946   5.585   1.159   1.997
 4902WAT      O14947   1.369   1.874   6.619
 4902WAT     H114948   1.331   1.816   6.691
 4902WAT     H214949   1.363   1.970   6.648
 4903WAT      O14950   5.171   7.000   4.199
 4903WAT     H114951   5.258   7.048   4.188
 4903WAT     H214952   5.102   7.044   4.141
 4904WAT      O14953   2.886   3.439   7.899
 4904WAT     H114954   2.893   3.527   7.852
 4904WAT     H214955   2.977   3.401   7.915
 4905WAT      O14956   5.058   4.087   1.809
 4905WAT     H114957   5.010   4.073   1.895
 4905WAT     H214958   5.002   4.142   1.747
 4906WAT      O14959   3.965   4.034   1.681
 4906WAT     H114960   4.010   4.122   1.662
 4906WAT     H214961   3.977   3.974   1.602
 4907WAT      O14962   2.540   8.192   4.676
 4907WAT     H114963   2.523   8.135   4.757
 4907WAT     H214964   2.511   8.286   4.695
 4908WAT      O14965   3.767   3.299   8.405
 4908WAT     H114966   3.865   3.287   8.395
 4908WAT     H214967   3.739   3.385   8.361
 4909WAT      O14968   8.357   8.299   7.107
 4909WAT     H114969   8.383   8.324   7.200
 4909WAT     H214970   8.290   8.224   7.110
 4910WAT      O14971   8.779   8.950   3.305
 4910WAT     H114972   8.794   8.913   3.213
 4910WAT     H214973   8.853   9.014   3.327
 4911WAT      O14974   9.498   3.509   4.216
 4911WAT     H114975   9.550   3.508   4.302
 4911WAT     H214976   9.422   3.444   4.223
 4912WAT      O14977   9.760   6.345   2.633
 4912WAT     H114978   9.731   6.441   2.638
 4912WAT     H214979   9.860   6.341   2.630
 4913WAT      O14980   7.919   0.595   1.996
 4913WAT     H114981   7.945   0.550   1.910
 4913WAT     H214982   8.001   0.622   2.046
 4914WAT      O14983   1.629   9.515   2.334
 4914WAT     H114984   1.688   9.505   2.414
 4914WAT     H214985   1.612   9.612   2.317
 4915WAT      O14986   9.056   1.273   4.812
 4915WAT     H114987   9.108   1.243   4.732
 4915WAT     H214988   9.065   1.205   4.885
 4916WAT      O14989   5.875   2.505   1.445
 4916WAT     H114990   5.790   2.458   1.421
 4916WAT     H214991   5.924   2.453   1.515
 4917WAT      O14992   1.009   3.016   3.506
 4917WAT     H114993   1.001   3.114   3.486
 4917WAT     H214994   1.042   3.004   3.600
 4918WAT      O14995   8.052   6.718   8.159
 4918WAT     H114996   8.131   6.723   8.221
 4918WAT     H214997   8.083   6.732   8.065
 4919WAT      O14998   9.215   8.788   6.436
 4919WAT     H114999   9.263   8.710   6.476
 4919WAT     H215000   9.240   8.797   6.340
 4920WAT      O15001   1.965   7.132   5.311
 4920WAT     H115002   1.975   7.129   5.410
 4920WAT     H215003   1.875   7.167   5.287
 4921WAT      O15004   0.019   2.427   5.150
 4921WAT     H115005   0.057   2.334   5.148
 4921WAT     H215006  -0.081   2.422   5.151
 4922WAT      O15007   6.640   1.825   4.473
 4922WAT     H115008   6.552   1.847   4.432
 4922WAT     H215009   6.631   1.745   4.531
 4923WAT      O15010   9.440   1.824   0.572
 4923WAT     H115011   9.380   1.905   0.578
 4923WAT     H215012   9.486   1.810   0.660
 4924WAT      O15013   9.563   6.416   9.362
 4924WAT     H115014   9.598   6.450   9.449
 4924WAT     H215015   9.475   6.371   9.377
 4925WAT      O15016   8.962   1.261   8.146
 4925WAT     H115017   8.903   1.331   8.108
 4925WAT     H215018   9.022   1.225   8.075
 4926WAT      O15019   8.713   1.469   8.473
 4926WAT     H115020   8.683   1.378   8.444
 4926WAT     H215021   8.737   1.468   8.570
 4927WAT      O15022   2.799   2.330   6.661
 4927WAT     H115023   2.871   2.290   6.717
 4927WAT     H215024   2.711   2.289   6.687
 4928WAT      O15025   9.837   9.581   8.554
 4928WAT     H115026   9.919   9.625   8.592
 4928WAT     H215027   9.756   9.634   8.581
 4929WAT      O15028   3.606   5.725   1.596
 4929WAT     H115029   3.674   5.724   1.522
 4929WAT     H215030   3.644   5.683   1.678
 4930WAT      O15031   8.766   5.806   8.328
 4930WAT     H115032   8.744   5.709   8.318
 4930WAT     H215033   8.865   5.819   8.322
 4931WAT      O15034   2.214   4.787   4.814
 4931WAT     H115035   2.140   4.820   4.873
 4931WAT     H215036   2.253   4.863   4.763
 4932WAT      O15037   2.396   5.608   4.466
 4932WAT     H115038   2.394   5.570   4.559
 4932WAT     H215039   2.409   5.707   4.471
 4933WAT      O15040   8.136   5.969   4.546
 4933WAT     H115041   8.059   5.968   4.610
 4933WAT     H215042   8.206   5.904   4.576
 4934WAT      O15043   4.105   5.844   8.026
 4934WAT     H115044   4.008   5.838   8.002
 4934WAT     H215045   4.121   5.924   8.083
 4935WAT      O15046   7.542   3.438   2.383
 4935WAT     H115047   7.628   3.387   2.383
 4935WAT     H215048   7.499   3.431   2.293
 4936WAT      O15049   3.834   0.513   3.606
 4936WAT     H115050   3.794   0.456   3.534
 4936WAT     H215051   3.926   0.541   3.579
 4937WAT      O15052   4.727   2.452   2.906
 4937WAT     H115053   4.805   2.462   2.968
 4937WAT     H215054   4.660   2.525   2.925
 4938WAT      O15055   4.097   7.030   7.750
 4938WAT     H115056   4.084   7.055   7.846
 4938WAT     H215057   4.038   7.087   7.692
 4939WAT      O15058   4.834   0.227   3.892
 4939WAT     H115059   4.753   0.202   3.839
 4939WAT     H215060   4.867   0.148   3.943
 4940WAT      O15061   7.429   1.665   0.491
 4940WAT     H115062   7.504   1.607   0.458
 4940WAT     H215063   7.414   1.646   0.588
 4941WAT      O15064   7.700   6.190   1.134
 4941WAT     H115065   7.628   6.154   1.074
 4941WAT     H215066   7.749   6.263   1.086
 4942WAT      O15067   7.812   9.174   6.782
 4942WAT     H115068   7.730   9.125   6.755
 4942WAT     H215069   7.854   9.216   6.702
 4943WAT      O15070   2.538   7.285   7.288
 4943WAT     H115071   2.571   7.339   7.211
 4943WAT     H215072   2.521   7.191   7.257
 4944WAT      O15073   0.971   9.783   1.281
 4944WAT     H115074   0.973   9.692   1.241
 4944WAT     H215075   0.971   9.852   1.209
 4945WAT      O15076   1.921   7.413   9.199
 4945WAT     H115077   1.912   7.449   9.292
 4945WAT     H215078   1.976   7.475   9.144
 4946WAT      O15079   4.630   1.980   6.441
 4946WAT     H115080   4.720   1.940   6.424
 4946WAT     H215081   4.642   2.072   6.478
 4947WAT      O15082   3.295   9.008   4.860
 4947WAT     H115083   3.391   9.010   4.833
 4947WAT     H215084   3.238   9.036   4.783
 4948WAT      O15085   0.233   6.092   5.034
 4948WAT     H115086   0.283   6.173   5.066
 4948WAT     H215087   0.280   6.053   4.955
 4949WAT      O15088   2.776   9.035   7.582
 4949WAT     H115089   2.731   8.957   7.628
 4949WAT     H215090   2.721   9.117   7.596
 4950WAT      O15091   1.672   7.402   1.093
 4950WAT     H115092   1.713   7.387   1.183
 4950WAT     H215093   1.723   7.474   1.045
 4951WAT      O15094   6.854   0.428   6.623
 4951WAT     H115095   6.820   0.347   6.576
 4951WAT     H215096   6.888   0.403   6.714
 4952WAT      O15097   4.131   0.278   0.881
 4952WAT     H115098   4.165   0.365   0.915
 4952WAT     H215099   4.197   0.239   0.817
 4953WAT      O15100   0.971   3.770   2.059
 4953WAT     H115101   1.043   3.837   2.074
 4953WAT     H215102   0.974   3.701   2.131
 4954WAT      O15103   1.209   4.307   5.914
 4954WAT     H115104   1.204   4.240   5.988
 4954WAT     H215105   1.305   4.321   5.889
 4955WAT      O15106   8.770   8.950   4.994
 4955WAT     H115107   8.675   8.969   4.969
 4955WAT     H215108   8.797   8.862   4.956
 4956WAT      O15109   1.034   9.411   4.687
 4956WAT     H115110   1.006   9.472   4.612
 4956WAT     H215111   1.011   9.454   4.774
 4957WAT      O15112   5.303   5.942   9.640
 4957WAT     H115113   5.335   5.862   9.690
 4957WAT     H215114   5.321   6.024   9.695
 4958WAT      O15115   6.595   6.999   4.560
 4958WAT     H115116   6.525   6.947   4.609
 4958WAT     H215117   6.686   6.971   4.590
 4959WAT      O15118   8.440   7.211   1.970
 4959WAT     H115119   8.373   7.266   2.020
 4959WAT     H215120   8.413   7.115   1.972
 4960WAT      O15121   5.437   8.390   9.027
 4960WAT     H115122   5.353   8.339   9.008
 4960WAT     H215123   5.500   8.332   9.079
 4961WAT      O15124   6.884   2.081   1.860
 4961WAT     H115125   6.944   2.006   1.889
 4961WAT     H215126   6.832   2.054   1.779
 4962WAT      O15127   9.090   9.755   7.689
 4962WAT     H115128   9.080   9.669   7.738
 4962WAT     H215129   9.034   9.754   7.606
 4963WAT      O15130   9.159   6.639   8.852
 4963WAT     H115131   9.180   6.717   8.793
 4963WAT     H215132   9.213   6.646   8.936
 4964WAT      O15133   9.274   3.251   9.194
 4964WAT     H115134   9.222   3.335   9.174
 4964WAT     H215135   9.316   3.218   9.110
 4965WAT      O15136   1.130   8.502   2.749
 4965WAT     H115137   1.224   8.469   2.740
 4965WAT     H215138   1.113   8.529   2.844
 4966WAT      O15139   4.624   4.401   7.098
 4966WAT     H115140   4.662   4.313   7.128
 4966WAT     H215141   4.655   4.421   7.005
 4967WAT      O15142   5.315   0.919   3.358
 4967WAT     H115143   5.406   0.885   3.383
 4967WAT     H215144   5.324   1.008   3.314
 4968WAT      O15145   9.698   0.520   1.050
 4968WAT     H115146   9.775   0.475   1.095
 4968WAT     H215147   9.729   0.560   0.963
 4969WAT      O15148   3.185   1.941   4.748
 4969WAT     H115149   3.197   1.949   4.847
 4969WAT     H215150   3.133   2.020   4.715
 4970WAT      O15151   0.086   6.899   3.220
 4970WAT     H115152  -0.007   6.881   3.186
 4970WAT     H215153   0.083   6.975   3.285
 4971WAT      O15154   7.749   8.460   6.733
 4971WAT     H115155   7.802   8.516   6.670
 4971WAT     H215156   7.658   8.500   6.744
 4972WAT      O15157   8.424   8.173   9.304
 4972WAT     H115158   8.427   8.074   9.320
 4972WAT     H215159   8.333   8.207   9.325
 4973WAT      O15160   9.152   3.924   1.295
 4973WAT     H115161   9.242   3.909   1.335
 4973WAT     H215162   9.134   4.023   1.291
 4974WAT      O15163   0.603   4.997   1.722
 4974WAT     H115164   0.657   4.919   1.753
 4974WAT     H215165   0.507   4.982   1.744
 4975WAT      O15166   0.693   9.694   9.521
 4975WAT     H115167   0.707   9.651   9.610
 4975WAT     H215168   0.746   9.645   9.452
 4976WAT      O15169   4.057   3.552   3.677
 4976WAT     H115170   4.012   3.626   3.726
 4976WAT     H215171   3.992   3.479   3.658
 4977WAT      O15172   5.003   4.227   6.791
 4977WAT     H115173   5.006   4.309   6.847
 4977WAT     H215174   5.085   4.223   6.733
 4978WAT      O15175   1.094   4.033   0.215
 4978WAT     H115176   1.096   4.084   0.129
 4978WAT     H215177   1.181   3.986   0.229
 4979WAT      O15178   0.320   8.436   8.087
 4979WAT     H115179   0.297   8.527   8.122
 4979WAT     H215180   0.263   8.415   8.008
 4980WAT      O15181   4.066   7.108   7.992
 4980WAT     H115182   3.992   7.110   8.059
 4980WAT     H215183   4.154   7.097   8.039
 4981WAT      O15184   4.350   5.983   6.063
 4981WAT     H115185   4.264   5.975   6.113
 4981WAT     H215186   4.368   5.898   6.014
 4982WAT      O15187   6.213   7.947   6.656
 4982WAT     H115188   6.149   7.990   6.720
 4982WAT     H215189   6.218   8.002   6.572
 4983WAT      O15190   1.560   9.732   9.184
 4983WAT     H115191   1.509   9.817   9.198
 4983WAT     H215192   1.522   9.683   9.106
 4984WAT      O15193   4.727   9.089   0.296
 4984WAT     H115194   4.662   9.050   0.230
 4984WAT     H215195   4.697   9.069   0.389
 4985WAT      O15196   6.741   5.465   5.967
 4985WAT     H115197   6.799   5.416   6.032
 4985WAT     H215198   6.736   5.561   5.993
 4986WAT      O15199   8.664   4.720   8.005
 4986WAT     H115200   8.652   4.743   7.908
 4986WAT     H215201   8.576   4.692   8.044
 4987WAT      O15202   8.225   3.379   9.839
 4987WAT     H115203   8.280   3.357   9.758
 4987WAT     H215204   8.222   3.478   9.852
 4988WAT      O15205   4.057   7.576   7.091
 4988WAT     H115206   4.102   7.612   7.172
 4988WAT     H215207   4.021   7.652   7.036
 4989WAT      O15208   8.258   4.625   3.449
 4989WAT     H115209   8.209   4.539   3.433
 4989WAT     H215210   8.263   4.642   3.548
 4990WAT      O15211   7.102   9.286   0.084
 4990WAT     H115212   7.051   9.354   0.032
 4990WAT     H215213   7.118   9.319   0.177
 4991WAT      O15214   7.260   7.915   2.119
 4991WAT     H115215   7.351   7.889   2.085
 4991WAT     H215216   7.268   7.995   2.178
 4992WAT      O15217   3.273   1.229   7.245
 4992WAT     H115218   3.329   1.203   7.324
 4992WAT     H215219   3.307   1.182   7.164
 4993WAT      O15220   2.492   6.475   7.635
 4993WAT     H115221   2.508   6.376   7.639
 4993WAT     H215222   2.394   6.493   7.635
 4994WAT      O15223   9.787   4.654   2.235
 4994WAT     H115224   9.845   4.618   2.163
 4994WAT     H215225   9.719   4.585   2.261
 4995WAT      O15226   6.773   7.461   8.203
 4995WAT     H115227   6.702   7.395   8.227
 4995WAT     H215228   6.862   7.425   8.229
 4996WAT      O15229   7.353   9.256   0.435
 4996WAT     H115230   7.362   9.315   0.515
 4996WAT     H215231   7.346   9.160   0.464
 4997WAT      O15232   9.584   9.787   9.622
 4997WAT     H115233   9.559   9.879   9.590
 4997WAT     H215234   9.669   9.759   9.578
 4998WAT      O15235   6.117   9.493   0.696
 4998WAT     H115236   6.161   9.406   0.719
 4998WAT     H215237   6.107   9.548   0.779
 4999WAT      O15238   8.791   2.857   5.085
 4999WAT     H115239   8.734   2.803   5.024
 4999WAT     H215240   8.818   2.942   5.038
 5000WAT      O15241   2.514   5.645   0.790
 5000WAT     H115242   2.557   5.665   0.879
 5000WAT     H215243   2.526   5.549   0.768
 5001WAT      O15244   2.950   9.304   3.253
 5001WAT     H115245   2.926   9.375   3.319
 5001WAT     H215246   3.015   9.240   3.295
 5002WAT      O15247   0.800   0.160   3.540
 5002WAT     H115248   0.857   0.087   3.577
 5002WAT     H215249   0.711   0.160   3.585
 5003WAT      O15250   7.120   5.929   6.496
 5003WAT     H115251   7.102   5.977   6.581
 5003WAT     H215252   7.035   5.893   6.458
 5004WAT      O15253   1.799   2.451   1.141
 5004WAT     H115254   1.887   2.407   1.125
 5004WAT     H215255   1.738   2.389   1.190
 5005WAT      O15256   2.551   9.359   2.152
 5005WAT     H115257   2.541   9.381   2.054
 5005WAT     H215258   2.520   9.266   2.168
 5006WAT      O15259   0.625   6.476   7.986
 5006WAT     H115260   0.545   6.416   7.979
 5006WAT     H215261   0.659   6.496   7.894
 5007WAT      O15262   8.412   6.946   2.001
 5007WAT     H115263   8.395   6.850   1.976
 5007WAT     H215264   8.495   6.952   2.057
 5008WAT      O15265   0.754   3.250   1.072
 5008WAT     H115266   0.841   3.221   1.033
 5008WAT     H215267   0.681   3.187   1.043
 5009WAT      O15268   9.340   1.053   5.075
 5009WAT     H115269   9.329   0.953   5.073
 5009WAT     H215270   9.354   1.086   4.981
 5010WAT      O15271   9.818   6.054   0.182
 5010WAT     H115272   9.888   6.125   0.179
 5010WAT     H215273   9.828   6.000   0.265
 5011WAT      O15274   0.994   5.191   0.287
 5011WAT     H115275   0.928   5.127   0.326
 5011WAT     H215276   1.009   5.266   0.351
 5012WAT      O15277   9.255   6.704   6.929
 5012WAT     H115278   9.283   6.760   6.851
 5012WAT     H215279   9.166   6.664   6.911
 5013WAT      O15280   0.481   7.725   0.919
 5013WAT     H115281   0.440   7.636   0.902
 5013WAT     H215282   0.432   7.772   0.992
 5014WAT      O15283   4.209   4.490   3.313
 5014WAT     H115284   4.304   4.519   3.300
 5014WAT     H215285   4.191   4.410   3.256
 5015WAT      O15286   9.314   0.553   9.159
 5015WAT     H115287   9.331   0.485   9.087
 5015WAT     H215288   9.348   0.642   9.129
 5016WAT      O15289   5.806   4.964   0.199
 5016WAT     H115290   5.821   4.896   0.271
 5016WAT     H215291   5.718   5.010   0.214
 5017WAT      O15292   1.428   6.379   8.911
 5017WAT     H115293   1.350   6.318   8.926
 5017WAT     H215294   1.506   6.346   8.965
 5018WAT      O15295   2.804   3.984   3.531
 5018WAT     H115296   2.863   4.037   3.591
 5018WAT     H215297   2.761   3.910   3.583
 5019WAT      O15298   6.264   5.483   2.023
 5019WAT     H115299   6.211   5.555   2.066
 5019WAT     H215300   6.246   5.482   1.925
 5020WAT      O15301   6.149   4.869   4.157
 5020WAT     H115302   6.056   4.904   4.148
 5020WAT     H215303   6.151   4.772   4.134
 5021WAT      O15304   0.065   5.768   3.827
 5021WAT     H115305   0.154   5.724   3.837
 5021WAT     H215306  -0.008   5.701   3.839
 5022WAT      O15307   5.210   4.548   6.032
 5022WAT     H115308   5.288   4.485   6.033
 5022WAT     H215309   5.127   4.498   6.057
 5023WAT      O15310   1.959   5.202   7.490
 5023WAT     H115311   2.036   5.140   7.474
 5023WAT     H215312   1.969   5.284   7.432
 5024WAT      O15313   1.598   1.135   5.346
 5024WAT     H115314   1.667   1.095   5.407
 5024WAT     H215315   1.519   1.164   5.400
 5025WAT      O15316   1.206   0.505   3.497
 5025WAT     H115317   1.267   0.528   3.573
 5025WAT     H215318   1.165   0.415   3.514
 5026WAT      O15319   1.051   8.671   2.954
 5026WAT     H115320   1.083   8.765   2.946
 5026WAT     H215321   1.064   8.639   3.047
 5027WAT      O15322   1.608   7.369   9.252
 5027WAT     H115323   1.700   7.399   9.228
 5027WAT     H215324   1.612   7.277   9.292
 5028WAT      O15325   4.888   5.128   2.116
 5028WAT     H115326   4.820   5.055   2.124
 5028WAT     H215327   4.903   5.169   2.206
 5029WAT      O15328   4.708   3.908   6.879
 5029WAT     H115329   4.677   3.926   6.972
 5029WAT     H215330   4.807   3.918   6.875
 5030WAT      O15331   4.364   2.398   9.542
 5030WAT     H115332   4.271   2.363   9.550
 5030WAT     H215333   4.401   2.416   9.633
 5031WAT      O15334   6.872   5.002   3.456
 5031WAT     H115335   6.957   4.950   3.470
 5031WAT     H215336   6.879   5.054   3.371
 5032WAT      O15337   9.212   8.676   9.006
 5032WAT     H115338   9.142   8.638   8.946
 5032WAT     H215339   9.228   8.772   8.982
 5033WAT      O15340   4.683   0.881   4.580
 5033WAT     H115341   4.723   0.791   4.595
 5033WAT     H215342   4.753   0.942   4.543
 5034WAT      O15343   7.492   1.268   3.250
 5034WAT     H115344   7.429   1.340   3.222
 5034WAT     H215345   7.541   1.296   3.333
 5035WAT      O15346   9.733   0.655   3.958
 5035WAT     H115347   9.637   0.661   3.986
 5035WAT     H215348   9.753   0.725   3.890
 5036WAT      O15349   8.460   7.239   5.515
 5036WAT     H115350   8.471   7.240   5.614
 5036WAT     H215351   8.382   7.181   5.491
 5037WAT      O15352   8.904   2.415   4.445
 5037WAT     H115353   8.811   2.384   4.426
 5037WAT     H215354   8.951   2.348   4.503
 5038WAT      O15355   4.798   8.469   4.601
 5038WAT     H115356   4.760   8.558   4.574
 5038WAT     H215357   4.875   8.483   4.663
 5039WAT      O15358   5.479   8.108   7.916
 5039WAT     H115359   5.473   8.144   8.009
 5039WAT     H215360   5.439   8.174   7.852
 5040WAT      O15361   9.193   6.223   1.731
 5040WAT     H115362   9.238   6.185   1.812
 5040WAT     H215363   9.119   6.283   1.759
 5041WAT      O15364   4.317   6.873   3.605
 5041WAT     H115365   4.405   6.864   3.653
 5041WAT     H215366   4.243   6.879   3.672
 5042WAT      O15367   6.877   7.288   4.279
 5042WAT     H115368   6.885   7.386   4.298
 5042WAT     H215369   6.819   7.246   4.348
 5043WAT      O15370   5.522   9.355   2.006
 5043WAT     H115371   5.471   9.441   2.003
 5043WAT     H215372   5.492   9.296   1.931
 5044WAT      O15373   6.258   6.083   8.592
 5044WAT     H115374   6.235   6.050   8.501
 5044WAT     H215375   6.244   6.181   8.597
 5045WAT      O15376   6.916   3.167   8.414
 5045WAT     H115377   6.992   3.146   8.476
 5045WAT     H215378   6.869   3.249   8.446
 5046WAT      O15379   4.243   8.442   2.130
 5046WAT     H115380   4.180   8.369   2.100
 5046WAT     H215381   4.251   8.510   2.057
 5047WAT      O15382   0.284   6.081   9.519
 5047WAT     H115383   0.382   6.090   9.538
 5047WAT     H215384   0.253   6.159   9.464
 5048WAT      O15385   6.699   4.479   3.174
 5048WAT     H115386   6.646   4.470   3.259
 5048WAT     H215387   6.719   4.576   3.158
 5049WAT      O15388   1.157   5.827   8.799
 5049WAT     H115389   1.128   5.818   8.703
 5049WAT     H215390   1.157   5.738   8.843
 5050WAT      O15391   0.319   6.872   7.455
 5050WAT     H115392   0.322   6.938   7.381
 5050WAT     H215393   0.232   6.881   7.504
 5051WAT      O15394   0.733   8.714   8.270
 5051WAT     H115395   0.714   8.754   8.181
 5051WAT     H215396   0.744   8.786   8.338
 5052WAT      O15397   7.037   0.496   8.499
 5052WAT     H115398   7.059   0.592   8.512
 5052WAT     H215399   6.971   0.486   8.424
 5053WAT      O15400   4.022   5.174   1.253
 5053WAT     H115401   4.114   5.135   1.256
 5053WAT     H215402   3.958   5.106   1.217
 5054WAT      O15403   9.878   0.923   3.203
 5054WAT     H115404   9.801   0.966   3.249
 5054WAT     H215405   9.919   0.989   3.140
 5055WAT      O15406   5.893   5.647   1.915
 5055WAT     H115407   5.981   5.691   1.901
 5055WAT     H215408   5.903   5.548   1.905
 5056WAT      O15409   3.936   8.384   1.014
 5056WAT     H115410   3.900   8.330   1.090
 5056WAT     H215411   4.014   8.438   1.045
 5057WAT      O15412   3.289   7.749   4.993
 5057WAT     H115413   3.376   7.799   4.998
 5057WAT     H215414   3.277   7.695   5.076
 5058WAT      O15415   5.092   1.573   1.180
 5058WAT     H115416   5.079   1.659   1.229
 5058WAT     H215417   5.007   1.547   1.134
 5059WAT      O15418   7.639   2.827   3.201
 5059WAT     H115419   7.722   2.848   3.253
 5059WAT     H215420   7.663   2.791   3.111
 5060WAT      O15421   2.591   1.119   2.448
 5060WAT     H115422   2.686   1.127   2.419
 5060WAT     H215423   2.585   1.056   2.525
 5061WAT      O15424   0.193   4.564   8.436
 5061WAT     H115425   0.165   4.476   8.472
 5061WAT     H215426   0.122   4.632   8.454
 5062WAT      O15427   3.874   8.765   8.262
 5062WAT     H115428   3.965   8.806   8.262
 5062WAT     H215429   3.817   8.808   8.332
 5063WAT      O15430   9.011   0.916   7.203
 5063WAT     H115431   8.980   0.832   7.159
 5063WAT     H215432   9.079   0.961   7.145
 5064WAT      O15433   9.816   5.432   2.601
 5064WAT     H115434   9.719   5.450   2.586
 5064WAT     H215435   9.867   5.517   2.587
 5065WAT      O15436   0.794   0.918   6.508
 5065WAT     H115437   0.749   1.003   6.536
 5065WAT     H215438   0.763   0.843   6.567
 5066WAT      O15439   4.277   8.229   3.031
 5066WAT     H115440   4.253   8.317   2.990
 5066WAT     H215441   4.205   8.201   3.094
 5067WAT      O15442   0.627   1.911   6.228
 5067WAT     H115443   0.645   1.888   6.324
 5067WAT     H215444   0.688   1.985   6.200
 5068WAT      O15445   8.105   4.503   2.885
 5068WAT     H115446   8.021   4.451   2.893
 5068WAT     H215447   8.106   4.553   2.799
 5069WAT      O15448  -0.003   6.688   0.136
 5069WAT     H115449   0.086   6.647   0.157
 5069WAT     H215450  -0.005   6.782   0.172
 5070WAT      O15451   5.986   3.465   6.509
 5070WAT     H115452   6.042   3.520   6.448
 5070WAT     H215453   5.919   3.523   6.554
 5071WAT      O15454   1.277   7.503   3.142
 5071WAT     H115455   1.254   7.543   3.231
 5071WAT     H215456   1.204   7.525   3.077
 5072WAT      O15457   3.165   8.316   0.680
 5072WAT     H115458   3.229   8.248   0.645
 5072WAT     H215459   3.092   8.330   0.613
 5073WAT      O15460   0.937   1.464   2.774
 5073WAT     H115461   0.990   1.465   2.689
 5073WAT     H215462   0.842   1.486   2.754
 5074WAT      O15463   6.657   1.276   8.092
 5074WAT     H115464   6.659   1.332   8.175
 5074WAT     H215465   6.646   1.335   8.013
 5075WAT      O15466   8.210   7.320   1.422
 5075WAT     H115467   8.216   7.220   1.423
 5075WAT     H215468   8.148   7.349   1.350
 5076WAT      O15469   5.450   9.621   1.280
 5076WAT     H115470   5.383   9.547   1.290
 5076WAT     H215471   5.418   9.686   1.210
 5077WAT      O15472   3.901   1.464   2.888
 5077WAT     H115473   3.830   1.479   2.957
 5077WAT     H215474   3.906   1.543   2.827
 5078WAT      O15475   7.048   9.566   0.081
 5078WAT     H115476   6.952   9.537   0.086
 5078WAT     H215477   7.068   9.629   0.156
 5079WAT      O15478   0.719   8.852   2.160
 5079WAT     H115479   0.627   8.860   2.121
 5079WAT     H215480   0.777   8.924   2.123
 5080WAT      O15481   8.114   2.114   9.347
 5080WAT     H115482   8.144   2.021   9.366
 5080WAT     H215483   8.146   2.175   9.420
 5081WAT      O15484   3.094   1.774   5.784
 5081WAT     H115485   3.117   1.698   5.845
 5081WAT     H215486   3.148   1.766   5.700
 5082WAT      O15487   6.067   0.826   7.467
 5082WAT     H115488   6.123   0.743   7.465
 5082WAT     H215489   6.113   0.897   7.413
 5083WAT      O15490   9.077   1.951   3.953
 5083WAT     H115491   9.150   2.002   3.909
 5083WAT     H215492   9.046   1.999   4.035
 5084WAT      O15493   5.259   8.985   1.124
 5084WAT     H115494   5.236   8.940   1.038
 5084WAT     H215495   5.350   8.955   1.154
 5085WAT      O15496   8.351   6.985   8.360
 5085WAT     H115497   8.411   7.058   8.392
 5085WAT     H215498   8.259   6.998   8.397
 5086WAT      O15499   9.262   2.847   5.852
 5086WAT     H115500   9.281   2.878   5.759
 5086WAT     H215501   9.169   2.876   5.877
 5087WAT      O15502   3.878   5.285   6.924
 5087WAT     H115503   3.827   5.208   6.963
 5087WAT     H215504   3.813   5.355   6.894
 5088WAT      O15505   7.243   7.399   1.759
 5088WAT     H115506   7.289   7.487   1.767
 5088WAT     H215507   7.311   7.325   1.763
 5089WAT      O15508   0.044   4.930   6.725
 5089WAT     H115509   0.055   4.979   6.811
 5089WAT     H215510   0.117   4.956   6.662
 5090WAT      O15511   5.286   9.308   8.744
 5090WAT     H115512   5.314   9.311   8.841
 5090WAT     H215513   5.236   9.224   8.727
 5091WAT      O15514   1.042   8.989   0.123
 5091WAT     H115515   1.108   8.924   0.084
 5091WAT     H215516   1.004   8.952   0.208
 5092WAT      O15517   6.453   3.990   7.295
 5092WAT     H115518   6.524   3.942   7.242
 5092WAT     H215519   6.365   3.979   7.249
 5093WAT      O15520   5.894   5.980   1.165
 5093WAT     H115521   5.949   6.033   1.229
 5093WAT     H215522   5.841   5.912   1.216
 5094WAT      O15523   9.326   3.747   3.866
 5094WAT     H115524   9.390   3.684   3.821
 5094WAT     H215525   9.232   3.718   3.848
 5095WAT      O15526   9.861   3.511   9.218
 5095WAT     H115527   9.894   3.600   9.188
 5095WAT     H215528   9.938   3.447   9.225
 5096WAT      O15529   0.079   0.690   3.119
 5096WAT     H115530   0.051   0.779   3.155
 5096WAT     H215531   0.046   0.617   3.179
 5097WAT      O15532   4.726   6.845   8.669
 5097WAT     H115533   4.772   6.823   8.583
 5097WAT     H215534   4.717   6.944   8.678
 5098WAT      O15535   6.074   6.404   7.197
 5098WAT     H115536   6.128   6.487   7.214
 5098WAT     H215537   6.135   6.330   7.168
 5099WAT      O15538   8.991   4.272   1.988
 5099WAT     H115539   8.984   4.235   2.081
 5099WAT     H215540   8.938   4.357   1.982
 5100WAT      O15541   8.815   3.720   1.923
 5100WAT     H115542   8.720   3.695   1.944
 5100WAT     H215543   8.820   3.761   1.832
 5101WAT      O15544   0.006   0.462   2.151
 5101WAT     H115545  -0.056   0.428   2.081
 5101WAT     H215546  -0.045   0.479   2.236
 5102WAT      O15547   8.099   6.254   5.219
 5102WAT     H115548   8.050   6.196   5.155
 5102WAT     H215549   8.143   6.329   5.169
 5103WAT      O15550   4.256   8.032   0.152
 5103WAT     H115551   4.163   7.994   0.150
 5103WAT     H215552   4.298   8.021   0.062
 5104WAT      O15553   9.468   1.300   4.615
 5104WAT     H115554   9.487   1.298   4.517
 5104WAT     H215555   9.398   1.369   4.634
 5105WAT      O15556   1.880   4.399   1.025
 5105WAT     H115557   1.812   4.473   1.028
 5105WAT     H215558   1.967   4.433   1.059
 5106WAT      O15559   8.173   2.240   1.138
 5106WAT     H115560   8.238   2.316   1.146
 5106WAT     H215561   8.103   2.264   1.071
 5107WAT      O15562   2.677   8.096   1.328
 5107WAT     H115563   2.710   8.182   1.288
 5107WAT     H215564   2.754   8.038   1.351
 5108WAT      O15565   0.561   8.090   3.539
 5108WAT     H115566   0.486   8.101   3.474
 5108WAT     H215567   0.605   8.179   3.555
 5109WAT      O15568   0.334   8.006   8.524
 5109WAT     H115569   0.248   7.978   8.481
 5109WAT     H215570   0.320   8.021   8.621
 5110WAT      O15571   1.333   6.665   9.539
 5110WAT     H115572   1.247   6.696   9.498
 5110WAT     H215573   1.386   6.745   9.569
 5111WAT      O15574   5.379   4.296   9.768
 5111WAT     H115575   5.326   4.253   9.695
 5111WAT     H215576   5.379   4.237   9.849
 5112WAT      O15577   2.760   2.190   8.320
 5112WAT     H115578   2.737   2.148   8.408
 5112WAT     H215579   2.677   2.202   8.266
 5113WAT      O15580   6.752   3.326   7.219
 5113WAT     H115581   6.738   3.236   7.262
 5113WAT     H215582   6.830   3.321   7.157
 5114WAT      O15583   9.547   1.658   3.563
 5114WAT     H115584   9.548   1.724   3.488
 5114WAT     H215585   9.641   1.630   3.584
 5115WAT      O15586   8.845   9.324   7.460
 5115WAT     H115587   8.908   9.252   7.490
 5115WAT     H215588   8.759   9.316   7.510
 5116WAT      O15589   0.415   1.810   6.999
 5116WAT     H115590   0.399   1.905   6.975
 5116WAT     H215591   0.436   1.758   6.916
 5117WAT      O15592   7.216   0.464   9.708
 5117WAT     H115593   7.276   0.506   9.639
 5117WAT     H215594   7.177   0.379   9.670
 5118WAT      O15595   0.697   3.373   8.850
 5118WAT     H115596   0.600   3.383   8.872
 5118WAT     H215597   0.715   3.409   8.759
 5119WAT      O15598   2.718   0.241   0.621
 5119WAT     H115599   2.654   0.318   0.617
 5119WAT     H215600   2.781   0.254   0.697
 5120WAT      O15601   2.250   6.540   7.300
 5120WAT     H115602   2.236   6.635   7.326
 5120WAT     H215603   2.346   6.525   7.278
 5121WAT      O15604   1.321   1.603   5.781
 5121WAT     H115605   1.368   1.676   5.830
 5121WAT     H215606   1.224   1.627   5.771
 5122WAT      O15607   8.850   3.783   3.446
 5122WAT     H115608   8.873   3.690   3.474
 5122WAT     H215609   8.876   3.847   3.519
 5123WAT      O15610   4.318   6.016   1.126
 5123WAT     H115611   4.357   6.085   1.066
 5123WAT     H215612   4.369   5.930   1.116
 5124WAT      O15613   7.805   1.826   3.747
 5124WAT     H115614   7.753   1.822   3.661
 5124WAT     H215615   7.874   1.754   3.747
 5125WAT      O15616   3.985   6.327   5.043
 5125WAT     H115617   4.079   6.341   5.013
 5125WAT     H215618   3.980   6.335   5.143
 5126WAT      O15619   5.902   7.395   6.809
 5126WAT     H115620   5.990   7.442   6.813
 5126WAT     H215621   5.828   7.462   6.811
 5127WAT      O15622   6.204   0.959   7.296
 5127WAT     H115623   6.197   0.997   7.204
 5127WAT     H215624   6.284   0.899   7.301
 5128WAT      O15625   7.340   7.485   4.012
 5128WAT     H115626   7.360   7.576   4.049
 5128WAT     H215627   7.246   7.460   4.034
 5129WAT      O15628   0.009   7.617   2.636
 5129WAT     H115629   0.107   7.628   2.654
 5129WAT     H215630  -0.037   7.705   2.645
 5130WAT      O15631   3.142   4.056   0.142
 5130WAT     H115632   3.044   4.037   0.139
 5130WAT     H215633   3.191   3.989   0.086
 5131WAT      O15634   8.101   6.050   8.509
 5131WAT     H115635   8.185   5.996   8.503
 5131WAT     H215636   8.121   6.144   8.481
 5132WAT      O15637   5.476   5.451   0.260
 5132WAT     H115638   5.575   5.453   0.248
 5132WAT     H215639   5.445   5.357   0.274
 5133WAT      O15640   8.412   9.735   3.119
 5133WAT     H115641   8.371   9.820   3.084
 5133WAT     H215642   8.442   9.679   3.042
 5134WAT      O15643   2.884   4.776   2.451
 5134WAT     H115644   2.853   4.723   2.530
 5134WAT     H215645   2.973   4.741   2.421
 5135WAT      O15646   0.677   2.450   3.398
 5135WAT     H115647   0.688   2.406   3.309
 5135WAT     H215648   0.732   2.401   3.466
 5136WAT      O15649   6.405   3.127   0.074
 5136WAT     H115650   6.358   3.174   0.148
 5136WAT     H215651   6.387   3.173  -0.013
 5137WAT      O15652   3.370   3.145   6.185
 5137WAT     H115653   3.404   3.203   6.260
 5137WAT     H215654   3.443   3.131   6.118
 5138WAT      O15655   2.155   5.807   9.197
 5138WAT     H115656   2.148   5.902   9.167
 5138WAT     H215657   2.064   5.765   9.198
 5139WAT      O15658   8.506   2.599   2.885
 5139WAT     H115659   8.526   2.520   2.827
 5139WAT     H215660   8.515   2.683   2.832
 5140WAT      O15661   9.291   8.937   3.139
 5140WAT     H115662   9.310   8.884   3.057
 5140WAT     H215663   9.203   8.911   3.177
 5141WAT      O15664   2.158   3.378   4.639
 5141WAT     H115665   2.219   3.304   4.667
 5141WAT     H215666   2.065   3.342   4.628
 5142WAT      O15667   4.731   2.506   7.223
 5142WAT     H115668   4.810   2.543   7.272
 5142WAT     H215669   4.735   2.407   7.225
 5143WAT      O15670   7.869   1.784   5.272
 5143WAT     H115671   7.877   1.686   5.286
 5143WAT     H215672   7.827   1.826   5.353
 5144WAT      O15673   4.302   1.414   4.440
 5144WAT     H115674   4.220   1.426   4.385
 5144WAT     H215675   4.363   1.348   4.395
 5145WAT      O15676   4.913   3.815   2.788
 5145WAT     H115677   4.957   3.902   2.769
 5145WAT     H215678   4.858   3.822   2.871
 5146WAT      O15679   9.101   8.724   1.578
 5146WAT     H115680   9.113   8.667   1.659
 5146WAT     H215681   9.006   8.755   1.574
 5147WAT      O15682   7.357   5.647   7.315
 5147WAT     H115683   7.355   5.721   7.247
 5147WAT     H215684   7.449   5.609   7.320
 5148WAT      O15685   4.884   6.665   2.727
 5148WAT     H115686   4.861   6.642   2.633
 5148WAT     H215687   4.800   6.683   2.778
 5149WAT      O15688   5.829   3.837   0.898
 5149WAT     H115689   5.857   3.860   0.991
 5149WAT     H215690   5.889   3.767   0.861
 5150WAT      O15691   6.403   7.776   6.277
 5150WAT     H115692   6.423   7.786   6.179
 5150WAT     H215693   6.480   7.732   6.322
 5151WAT      O15694   8.593   8.911   2.049
 5151WAT     H115695   8.672   8.966   2.021
 5151WAT     H215696   8.617   8.814   2.047
 5152WAT      O15697   6.722   6.911   5.550
 5152WAT     H115698   6.771   6.909   5.462
 5152WAT     H215699   6.671   6.996   5.557
 5153WAT      O15700   2.699   8.856   3.326
 5153WAT     H115701   2.659   8.891   3.411
 5153WAT     H215702   2.764   8.924   3.291
 5154WAT      O15703   8.605   8.851   5.723
 5154WAT     H115704   8.641   8.762   5.754
 5154WAT     H215705   8.520   8.837   5.672
 5155WAT      O15706   2.594   9.790   8.514
 5155WAT     H115707   2.613   9.884   8.487
 5155WAT     H215708   2.537   9.788   8.596
 5156WAT      O15709   9.548   4.038   0.096
 5156WAT     H115710   9.529   3.943   0.072
 5156WAT     H215711   9.630   4.069   0.048
 5157WAT      O15712   5.397   8.116   1.425
 5157WAT     H115713   5.439   8.106   1.516
 5157WAT     H215714   5.386   8.212   1.404
 5158WAT      O15715   0.166   0.395   7.724
 5158WAT     H115716   0.072   0.388   7.693
 5158WAT     H215717   0.221   0.439   7.654
 5159WAT      O15718   8.595   2.135   5.022
 5159WAT     H115719   8.526   2.162   4.955
 5159WAT     H215720   8.595   2.035   5.030
 5160WAT      O15721   9.165   0.443   6.634
 5160WAT     H115722   9.088   0.497   6.668
 5160WAT     H215723   9.250   0.492   6.648
 5161WAT      O15724   9.511   9.045   6.557
 5161WAT     H115725   9.519   8.981   6.481
 5161WAT     H215726   9.598   9.093   6.570
 5162WAT      O15727   6.888   3.977   6.398
 5162WAT     H115728   6.864   4.037   6.474
 5162WAT     H215729   6.934   4.030   6.327
 5163WAT      O15730   8.350   8.763   8.833
 5163WAT     H115731   8.254   8.766   8.807
 5163WAT     H215732   8.373   8.671   8.866
 5164WAT      O15733   8.098   3.124   0.924
 5164WAT     H115734   8.188   3.110   0.882
 5164WAT     H215735   8.047   3.193   0.873
 5165WAT      O15736   5.028   6.343   5.828
 5165WAT     H115737   4.975   6.420   5.792
 5165WAT     H215738   5.001   6.325   5.922
 5166WAT      O15739   1.236   1.037   8.173
 5166WAT     H115740   1.139   1.012   8.184
 5166WAT     H215741   1.253   1.124   8.219
 5167WAT      O15742   5.530   7.857   4.716
 5167WAT     H115743   5.486   7.946   4.726
 5167WAT     H215744   5.487   7.807   4.641
 5168WAT      O15745   5.777   7.261   2.693
 5168WAT     H115746   5.748   7.353   2.666
 5168WAT     H215747   5.872   7.246   2.666
 5169WAT      O15748   7.608   4.431   1.938
 5169WAT     H115749   7.676   4.368   1.900
 5169WAT     H215750   7.528   4.380   1.967
 5170WAT      O15751   7.000   3.387   8.020
 5170WAT     H115752   7.070   3.373   7.950
 5170WAT     H215753   6.955   3.300   8.039
 5171WAT      O15754   8.672   3.747   1.650
 5171WAT     H115755   8.596   3.684   1.644
 5171WAT     H215756   8.722   3.748   1.563
 5172WAT      O15757   4.799   0.203   5.925
 5172WAT     H115758   4.817   0.147   6.006
 5172WAT     H215759   4.714   0.253   5.937
 5173WAT      O15760   3.653   4.585   2.763
 5173WAT     H115761   3.639   4.556   2.858
 5173WAT     H215762   3.599   4.526   2.702
 5174WAT      O15763   7.823   0.645   6.466
 5174WAT     H115764   7.901   0.621   6.525
 5174WAT     H215765   7.857   0.692   6.384
 5175WAT      O15766   1.347   0.755   9.233
 5175WAT     H115767   1.400   0.834   9.262
 5175WAT     H215768   1.274   0.784   9.171
 5176WAT      O15769   7.183   6.522   6.825
 5176WAT     H115770   7.135   6.542   6.910
 5176WAT     H215771   7.155   6.433   6.790
 5177WAT      O15772   1.268   8.621   3.707
 5177WAT     H115773   1.343   8.609   3.641
 5177WAT     H215774   1.304   8.661   3.791
 5178WAT      O15775   7.961   3.164   3.594
 5178WAT     H115776   7.973   3.175   3.692
 5178WAT     H215777   7.868   3.191   3.568
 5179WAT      O15778   2.400   6.063   4.623
 5179WAT     H115779   2.440   6.073   4.714
 5179WAT     H215780   2.392   6.153   4.580
 5180WAT      O15781   3.722   7.746   1.884
 5180WAT     H115782   3.717   7.718   1.788
 5180WAT     H215783   3.815   7.731   1.917
 5181WAT      O15784   4.080   9.359   3.096
 5181WAT     H115785   3.991   9.372   3.052
 5181WAT     H215786   4.152   9.359   3.026
 5182WAT      O15787   5.700   3.371   6.779
 5182WAT     H115788   5.797   3.382   6.800
 5182WAT     H215789   5.679   3.417   6.693
 5183WAT      O15790   2.719   2.906   9.696
 5183WAT     H115791   2.744   2.876   9.604
 5183WAT     H215792   2.705   2.827   9.754
 5184WAT      O15793   0.998   4.044   7.897
 5184WAT     H115794   1.063   3.974   7.924
 5184WAT     H215795   1.005   4.060   7.798
 5185WAT      O15796   4.212   5.602   0.988
 5185WAT     H115797   4.183   5.552   1.070
 5185WAT     H215798   4.267   5.682   1.015
 5186WAT      O15799   9.400   6.837   2.375
 5186WAT     H115800   9.406   6.845   2.474
 5186WAT     H215801   9.392   6.741   2.350
 5187WAT      O15802   9.594   3.126   7.683
 5187WAT     H115803   9.563   3.151   7.775
 5187WAT     H215804   9.652   3.045   7.688
 5188WAT      O15805   5.310   4.249   2.293
 5188WAT     H115806   5.216   4.258   2.325
 5188WAT     H215807   5.336   4.331   2.242
 5189WAT      O15808   0.182   1.720   3.580
 5189WAT     H115809   0.225   1.804   3.548
 5189WAT     H215810   0.252   1.659   3.617
 5190WAT      O15811   5.653   6.788   6.690
 5190WAT     H115812   5.651   6.713   6.624
 5190WAT     H215813   5.560   6.822   6.704
 5191WAT      O15814   8.678   3.394   4.487
 5191WAT     H115815   8.706   3.455   4.561
 5191WAT     H215816   8.706   3.433   4.399
 5192WAT      O15817   2.100   2.307   6.209
 5192WAT     H115818   2.076   2.314   6.306
 5192WAT     H215819   2.017   2.321   6.154
 5193WAT      O15820   7.971   2.656   5.457
 5193WAT     H115821   7.922   2.741   5.440
 5193WAT     H215822   8.064   2.676   5.487
 5194WAT      O15823   5.830   0.047   9.051
 5194WAT     H115824   5.778   0.123   9.089
 5194WAT     H215825   5.779   0.003   8.977
 5195WAT      O15826   2.671   1.327   3.813
 5195WAT     H115827   2.602   1.399   3.803
 5195WAT     H215828   2.697   1.319   3.909
 5196WAT      O15829   6.196   2.171   6.744
 5196WAT     H115830   6.145   2.161   6.658
 5196WAT     H215831   6.131   2.182   6.820
 5197WAT      O15832   2.319   3.983   6.534
 5197WAT     H115833   2.305   4.057   6.468
 5197WAT     H215834   2.322   3.895   6.487
 5198WAT      O15835   3.906   0.730   2.864
 5198WAT     H115836   3.876   0.808   2.810
 5198WAT     H215837   3.961   0.761   2.942
 5199WAT      O15838   1.992   2.930   8.772
 5199WAT     H115839   2.053   3.010   8.778
 5199WAT     H215840   2.037   2.858   8.719
 5200WAT      O15841   3.258   0.288   7.111
 5200WAT     H115842   3.212   0.244   7.189
 5200WAT     H215843   3.330   0.348   7.145
 5201WAT      O15844   2.140   4.493   0.633
 5201WAT     H115845   2.237   4.497   0.606
 5201WAT     H215846   2.092   4.572   0.593
 5202WAT      O15847   1.185   2.261   2.959
 5202WAT     H115848   1.167   2.168   2.927
 5202WAT     H215849   1.192   2.261   3.059
 5203WAT      O15850   9.090   2.322   3.019
 5203WAT     H115851   9.062   2.255   2.950
 5203WAT     H215852   9.132   2.274   3.097
 5204WAT      O15853   5.079   4.459   7.974
 5204WAT     H115854   5.179   4.459   7.973
 5204WAT     H215855   5.045   4.367   7.952
 5205WAT      O15856   4.568   9.606   3.488
 5205WAT     H115857   4.637   9.557   3.434
 5205WAT     H215858   4.595   9.603   3.585
 5206WAT      O15859   3.388   7.262   4.476
 5206WAT     H115860   3.338   7.344   4.449
 5206WAT     H215861   3.462   7.245   4.411
 5207WAT      O15862   8.475   7.907   9.793
 5207WAT     H115863   8.544   7.859   9.848
 5207WAT     H215864   8.414   7.840   9.751
 5208WAT      O15865   1.905   1.060   5.472
 5208WAT     H115866   1.878   0.969   5.440
 5208WAT     H215867   1.935   1.055   5.567
 5209WAT      O15868   8.249   7.934   0.541
 5209WAT     H115869   8.342   7.935   0.579
 5209WAT     H215870   8.234   7.848   0.493
 5210WAT      O15871   6.871   9.166   0.161
 5210WAT     H115872   6.950   9.222   0.138
 5210WAT     H215873   6.894   9.105   0.237
 5211WAT      O15874   4.187   7.930   7.032
 5211WAT     H115875   4.246   7.874   7.091
 5211WAT     H215876   4.212   7.914   6.936
 5212WAT      O15877   0.971   7.638   4.428
 5212WAT     H115878   0.958   7.730   4.463
 5212WAT     H215879   0.898   7.579   4.460
 5213WAT      O15880   4.270   8.468   8.165
 5213WAT     H115881   4.277   8.405   8.087
 5213WAT     H215882   4.314   8.427   8.245
 5214WAT      O15883   6.501   3.558   1.685
 5214WAT     H115884   6.469   3.614   1.761
 5214WAT     H215885   6.424   3.534   1.626
 5215WAT      O15886   0.875   1.102   1.573
 5215WAT     H115887   0.895   1.007   1.596
 5215WAT     H215888   0.812   1.140   1.641
 5216WAT      O15889   6.753   0.070   6.623
 5216WAT     H115890   6.824   0.126   6.581
 5216WAT     H215891   6.696   0.030   6.551
 5217WAT      O15892   0.884   6.575   2.177
 5217WAT     H115893   0.797   6.552   2.133
 5217WAT     H215894   0.868   6.599   2.272
 5218WAT      O15895   1.765   4.767   9.485
 5218WAT     H115896   1.861   4.794   9.481
 5218WAT     H215897   1.734   4.738   9.395
 5219WAT      O15898   7.146   9.523   3.637
 5219WAT     H115899   7.246   9.523   3.640
 5219WAT     H215900   7.115   9.549   3.546
 5220WAT      O15901   3.853   5.758   4.805
 5220WAT     H115902   3.814   5.673   4.769
 5220WAT     H215903   3.907   5.738   4.887
 5221WAT      O15904   9.240   3.882   5.351
 5221WAT     H115905   9.191   3.961   5.390
 5221WAT     H215906   9.289   3.835   5.424
 5222WAT      O15907   8.262   5.916   2.421
 5222WAT     H115908   8.338   5.943   2.481
 5222WAT     H215909   8.257   5.816   2.418
 5223WAT      O15910   3.427   9.826   3.003
 5223WAT     H115911   3.329   9.808   3.004
 5223WAT     H215912   3.472   9.769   3.072
 5224WAT      O15913   3.216   2.157   2.896
 5224WAT     H115914   3.242   2.175   2.801
 5224WAT     H215915   3.121   2.127   2.900
 5225WAT      O15916   8.936   1.215   0.581
 5225WAT     H115917   8.886   1.239   0.498
 5225WAT     H215918   9.027   1.255   0.578
 5226WAT      O15919   1.554   5.657   8.687
 5226WAT     H115920   1.613   5.584   8.652
 5226WAT     H215921   1.537   5.643   8.784
 5227WAT      O15922   3.737   7.749   9.563
 5227WAT     H115923   3.657   7.744   9.502
 5227WAT     H215924   3.796   7.671   9.547
 5228WAT      O15925   6.193   7.275   4.260
 5228WAT     H115926   6.210   7.209   4.186
 5228WAT     H215927   6.159   7.360   4.221
 5229WAT      O15928   9.849   3.507   3.490
 5229WAT     H115929   9.948   3.495   3.500
 5229WAT     H215930   9.830   3.599   3.456
 5230WAT      O15931   5.402   5.532   2.620
 5230WAT     H115932   5.326   5.554   2.681
 5230WAT     H215933   5.377   5.557   2.526
 5231WAT      O15934   9.857   1.814   6.544
 5231WAT     H115935   9.953   1.836   6.557
 5231WAT     H215936   9.800   1.891   6.574
 5232WAT      O15937   0.571   2.931   4.071
 5232WAT     H115938   0.556   2.982   3.986
 5232WAT     H215939   0.669   2.931   4.093
 5233WAT      O15940   9.438   4.204   3.618
 5233WAT     H115941   9.413   4.292   3.578
 5233WAT     H215942   9.391   4.193   3.706
 5234WAT      O15943   8.325   4.347   2.989
 5234WAT     H115944   8.258   4.418   2.967
 5234WAT     H215945   8.344   4.348   3.087
 5235WAT      O15946   7.303   0.471   5.360
 5235WAT     H115947   7.329   0.472   5.456
 5235WAT     H215948   7.354   0.400   5.312
 5236WAT      O15949   5.894   0.031   7.742
 5236WAT     H115950   5.879  -0.049   7.683
 5236WAT     H215951   5.957   0.094   7.696
 5237WAT      O15952   3.614   0.349   7.885
 5237WAT     H115953   3.628   0.337   7.786
 5237WAT     H215954   3.667   0.427   7.917
 5238WAT      O15955   8.000   7.489   5.492
 5238WAT     H115956   7.986   7.413   5.428
 5238WAT     H215957   8.021   7.453   5.583
 5239WAT      O15958   5.572   5.339   4.733
 5239WAT     H115959   5.524   5.409   4.679
 5239WAT     H215960   5.611   5.271   4.671
 5240WAT      O15961   0.339   0.074   0.989
 5240WAT     H115962   0.408   0.100   0.922
 5240WAT     H215963   0.283  -0.000   0.953
 5241WAT      O15964   6.851   7.110   1.382
 5241WAT     H115965   6.915   7.048   1.337
 5241WAT     H215966   6.839   7.081   1.477
 5242WAT      O15967   5.933   9.380   8.841
 5242WAT     H115968   5.944   9.477   8.861
 5242WAT     H215969   5.981   9.357   8.757
 5243WAT      O15970   3.401   6.506   6.990
 5243WAT     H115971   3.415   6.463   7.078
 5243WAT     H215972   3.379   6.603   7.003
 5244WAT      O15973   1.702   2.218   1.984
 5244WAT     H115974   1.759   2.203   2.065
 5244WAT     H215975   1.687   2.131   1.937
 5245WAT      O15976   4.799   3.883   6.046
 5245WAT     H115977   4.814   3.801   5.991
 5245WAT     H215978   4.725   3.867   6.111
 5246WAT      O15979   9.119   5.258   7.752
 5246WAT     H115980   9.035   5.308   7.773
 5246WAT     H215981   9.191   5.285   7.816
 5247WAT      O15982   9.352   0.441   6.901
 5247WAT     H115983   9.255   0.439   6.927
 5247WAT     H215984   9.366   0.508   6.828
 5248WAT      O15985   5.090   3.685   9.534
 5248WAT     H115986   5.127   3.714   9.622
 5248WAT     H215987   5.118   3.591   9.516
 5249WAT      O15988   1.567   3.086   9.414
 5249WAT     H115989   1.562   2.986   9.411
 5249WAT     H215990   1.577   3.122   9.321
 5250WAT      O15991   3.286   4.041   3.591
 5250WAT     H115992   3.351   4.086   3.652
 5250WAT     H215993   3.211   4.004   3.646
 5251WAT      O15994   0.071   5.654   1.233
 5251WAT     H115995   0.077   5.656   1.332
 5251WAT     H215996   0.050   5.561   1.203
 5252WAT      O15997   4.166   2.335   0.080
 5252WAT     H115998   4.158   2.430   0.110
 5252WAT     H215999   4.088   2.311   0.021
 5253WAT      O16000   2.517   3.871   3.466
 5253WAT     H116001   2.577   3.889   3.388
 5253WAT     H216002   2.433   3.827   3.434
 5254WAT      O16003   7.459   7.971   6.538
 5254WAT     H116004   7.558   7.957   6.535
 5254WAT     H216005   7.412   7.884   6.528
 5255WAT      O16006   8.532   1.948   3.824
 5255WAT     H116007   8.470   1.909   3.756
 5255WAT     H216008   8.603   1.882   3.847
 5256WAT      O16009   1.344   7.513   1.730
 5256WAT     H116010   1.337   7.489   1.827
 5256WAT     H216011   1.257   7.551   1.699
 5257WAT      O16012   3.031   9.398   2.982
 5257WAT     H116013   3.018   9.348   3.068
 5257WAT     H216014   3.024   9.334   2.905
 5258WAT      O16015   8.598   1.087   7.897
 5258WAT     H116016   8.596   0.997   7.853
 5258WAT     H216017   8.648   1.081   7.983
 5259WAT      O16018   2.711   3.450   6.036
 5259WAT     H116019   2.648   3.523   6.008
 5259WAT     H216020   2.805   3.479   6.016
 5260WAT      O16021   7.000   8.826   5.286
 5260WAT     H116022   6.905   8.840   5.311
 5260WAT     H216023   7.057   8.831   5.369
 5261WAT      O16024   5.513   5.149   8.534
 5261WAT     H116025   5.529   5.148   8.632
 5261WAT     H216026   5.420   5.120   8.514
 5262WAT      O16027   3.963   2.287   3.665
 5262WAT     H116028   4.048   2.263   3.712
 5262WAT     H216029   3.921   2.204   3.628
 5263WAT      O16030   9.447   2.369   4.791
 5263WAT     H116031   9.411   2.279   4.767
 5263WAT     H216032   9.477   2.416   4.708
 5264WAT      O16033   8.541   1.998   2.612
 5264WAT     H116034   8.522   2.023   2.707
 5264WAT     H216035   8.498   2.065   2.551
 5265WAT      O16036   5.015   4.185   7.882
 5265WAT     H116037   5.050   4.117   7.946
 5265WAT     H216038   5.049   4.164   7.790
 5266WAT      O16039   8.594   8.679   0.642
 5266WAT     H116040   8.619   8.587   0.613
 5266WAT     H216041   8.621   8.745   0.571
 5267WAT      O16042   4.849   8.824   4.379
 5267WAT     H116043   4.874   8.870   4.464
 5267WAT     H216044   4.808   8.890   4.316
 5268WAT      O16045   6.373   2.363   7.790
 5268WAT     H116046   6.301   2.431   7.791
 5268WAT     H216047   6.333   2.271   7.787
 5269WAT      O16048   4.577   7.013   0.706
 5269WAT     H116049   4.567   7.112   0.721
 5269WAT     H216050   4.486   6.970   0.708
 5270WAT      O16051   6.026   7.135   2.648
 5270WAT     H116052   6.022   7.101   2.742
 5270WAT     H216053   6.080   7.072   2.593
 5271WAT      O16054   9.296   4.119   1.057
 5271WAT     H116055   9.356   4.141   0.981
 5271WAT     H216056   9.350   4.091   1.136
 5272WAT      O16057   5.305   7.521   3.016
 5272WAT     H116058   5.230   7.579   3.047
 5272WAT     H216059   5.268   7.448   2.958
 5273WAT      O16060   4.332   9.590   4.602
 5273WAT     H116061   4.420   9.579   4.555
 5273WAT     H216062   4.277   9.659   4.554
 5274WAT      O16063   1.140   8.615   0.677
 5274WAT     H116064   1.125   8.530   0.627
 5274WAT     H216065   1.238   8.630   0.689
 5275WAT      O16066   1.786   4.957   3.139
 5275WAT     H116067   1.758   5.053   3.136
 5275WAT     H216068   1.885   4.951   3.154
 5276WAT      O16069   5.714   9.473   7.524
 5276WAT     H116070   5.772   9.551   7.549
 5276WAT     H216071   5.622   9.488   7.560
 5277WAT      O16072   3.655   2.904   8.226
 5277WAT     H116073   3.657   2.813   8.266
 5277WAT     H216074   3.723   2.909   8.153
 5278WAT      O16075   1.716   1.717   0.406
 5278WAT     H116076   1.760   1.627   0.400
 5278WAT     H216077   1.716   1.760   0.316
 5279WAT      O16078   4.531   9.139   4.880
 5279WAT     H116079   4.630   9.132   4.878
 5279WAT     H216080   4.499   9.132   4.975
 5280WAT      O16081   2.668   1.402   7.087
 5280WAT     H116082   2.580   1.363   7.059
 5280WAT     H216083   2.725   1.330   7.126
 5281WAT      O16084   8.314   9.433   7.457
 5281WAT     H116085   8.377   9.357   7.448
 5281WAT     H216086   8.224   9.405   7.423
 5282WAT      O16087   7.636   8.990   2.561
 5282WAT     H116088   7.646   9.074   2.615
 5282WAT     H216089   7.711   8.927   2.583
 5283WAT      O16090   2.737   6.046   2.669
 5283WAT     H116091   2.816   5.994   2.703
 5283WAT     H216092   2.662   5.984   2.648
 5284WAT      O16093   1.977   6.265   4.991
 5284WAT     H116094   1.891   6.301   5.026
 5284WAT     H216095   1.961   6.175   4.950
 5285WAT      O16096   7.410   2.903   4.935
 5285WAT     H116097   7.491   2.869   4.887
 5285WAT     H216098   7.392   2.845   5.015
 5286WAT      O16099   3.271   6.508   0.427
 5286WAT     H116100   3.337   6.495   0.501
 5286WAT     H216101   3.227   6.421   0.405
 5287WAT      O16102   3.295   2.065   7.617
 5287WAT     H116103   3.269   2.066   7.520
 5287WAT     H216104   3.320   1.971   7.643
 5288WAT      O16105   3.178   1.548   3.007
 5288WAT     H116106   3.100   1.608   3.025
 5288WAT     H216107   3.215   1.514   3.093
 5289WAT      O16108   2.220   6.528   7.649
 5289WAT     H116109   2.204   6.442   7.698
 5289WAT     H216110   2.164   6.530   7.566
 5290WAT      O16111   3.650   9.802   5.758
 5290WAT     H116112   3.631   9.741   5.835
 5290WAT     H216113   3.725   9.863   5.781
 5291WAT      O16114   0.694   0.510   5.484
 5291WAT     H116115   0.698   0.558   5.396
 5291WAT     H216116   0.747   0.561   5.552
 5292WAT      O16117   9.121   2.138   5.849
 5292WAT     H116118   9.181   2.065   5.881
 5292WAT     H216119   9.126   2.143   5.749
 5293WAT      O16120   8.420   0.844   0.544
 5293WAT     H116121   8.373   0.904   0.478
 5293WAT     H216122   8.471   0.900   0.609
 5294WAT      O16123   1.641   0.703   5.365
 5294WAT     H116124   1.635   0.735   5.459
 5294WAT     H216125   1.585   0.621   5.355
 5295WAT      O16126   3.873   0.981   2.746
 5295WAT     H116127   3.823   0.984   2.832
 5295WAT     H216128   3.914   1.071   2.729
 5296WAT      O16129   5.695   6.529   4.516
 5296WAT     H116130   5.721   6.529   4.612
 5296WAT     H216131   5.750   6.596   4.466
 5297WAT      O16132   6.702   8.212   3.058
 5297WAT     H116133   6.743   8.293   3.100
 5297WAT     H216134   6.616   8.190   3.105
 5298WAT      O16135   7.036   7.775   4.269
 5298WAT     H116136   7.096   7.764   4.189
 5298WAT     H216137   7.061   7.858   4.318
 5299WAT      O16138   9.715   4.757   0.673
 5299WAT     H116139   9.755   4.817   0.603
 5299WAT     H216140   9.745   4.788   0.764
 5300WAT      O16141   8.971   8.266   5.179
 5300WAT     H116142   8.881   8.270   5.135
 5300WAT     H216143   8.982   8.344   5.240
 5301WAT      O16144   2.530   6.352   7.112
 5301WAT     H116145   2.545   6.395   7.201
 5301WAT     H216146   2.436   6.367   7.083
 5302WAT      O16147   9.699   8.449   7.155
 5302WAT     H116148   9.690   8.350   7.143
 5302WAT     H216149   9.748   8.468   7.240
 5303WAT      O16150   0.858   4.767   6.561
 5303WAT     H116151   0.946   4.760   6.513
 5303WAT     H216152   0.869   4.738   6.656
 5304WAT      O16153   3.202   3.312   6.039
 5304WAT     H116154   3.254   3.252   6.100
 5304WAT     H216155   3.260   3.340   5.962
 5305WAT      O16156   2.140   4.661   9.448
 5305WAT     H116157   2.210   4.591   9.460
 5305WAT     H216158   2.106   4.690   9.537
 5306WAT      O16159   1.354   7.479   6.889
 5306WAT     H116160   1.345   7.544   6.965
 5306WAT     H216161   1.348   7.529   6.802
 5307WAT      O16162   6.161   8.194   0.614
 5307WAT     H116163   6.070   8.160   0.590
 5307WAT     H216164   6.229   8.123   0.596
 5308WAT      O16165   5.651   6.429   5.173
 5308WAT     H116166   5.608   6.519   5.176
 5308WAT     H216167   5.745   6.436   5.206
 5309WAT      O16168   0.556   2.081   1.600
 5309WAT     H116169   0.506   2.124   1.525
 5309WAT     H216170   0.646   2.125   1.609
 5310WAT      O16171   0.337   0.854   6.178
 5310WAT     H116172   0.270   0.827   6.246
 5310WAT     H216173   0.309   0.940   6.135
 5311WAT      O16174   2.511   7.149   1.782
 5311WAT     H116175   2.609   7.169   1.795
 5311WAT     H216176   2.468   7.137   1.871
 5312WAT      O16177   7.752   3.348   1.518
 5312WAT     H116178   7.808   3.339   1.436
 5312WAT     H216179   7.806   3.388   1.592
 5313WAT      O16180   3.329   9.661   6.109
 5313WAT     H116181   3.274   9.593   6.159
 5313WAT     H216182   3.423   9.658   6.141
 5314WAT      O16183   7.942   9.297   9.781
 5314WAT     H116184   7.906   9.232   9.848
 5314WAT     H216185   8.001   9.249   9.716
 5315WAT      O16186   9.028   0.156   1.880
 5315WAT     H116187   9.061   0.178   1.972
 5315WAT     H216188   9.076   0.213   1.813
 5316WAT      O16189   0.947   1.349   9.833
 5316WAT     H116190   0.965   1.390   9.922
 5316WAT     H216191   0.903   1.260   9.845
 5317WAT      O16192   6.689   2.994   7.824
 5317WAT     H116193   6.788   2.993   7.812
 5317WAT     H216194   6.644   3.013   7.736
 5318WAT      O16195   5.421   9.332   2.753
 5318WAT     H116196   5.413   9.344   2.654
 5318WAT     H216197   5.332   9.304   2.790
 5319WAT      O16198   6.314   8.769   1.464
 5319WAT     H116199   6.246   8.825   1.416
 5319WAT     H216200   6.384   8.829   1.503
 5320WAT      O16201   1.247   0.109   0.526
 5320WAT     H116202   1.233   0.206   0.548
 5320WAT     H216203   1.207   0.089   0.437
 5321WAT      O16204   6.096   6.434   4.633
 5321WAT     H116205   6.023   6.370   4.657
 5321WAT     H216206   6.097   6.510   4.698
 5322WAT      O16207   2.630   0.023   8.957
 5322WAT     H116208   2.727   0.017   8.981
 5322WAT     H216209   2.574   0.003   9.038
 5323WAT      O16210   7.259   8.727   8.203
 5323WAT     H116211   7.332   8.793   8.218
 5323WAT     H216212   7.174   8.763   8.242
 5324WAT      O16213   7.932   7.511   7.027
 5324WAT     H116214   8.020   7.510   7.075
 5324WAT     H216215   7.924   7.595   6.974
 5325WAT      O16216   1.935   8.115   3.503
 5325WAT     H116217   1.836   8.121   3.488
 5325WAT     H216218   1.954   8.097   3.599
 5326WAT      O16219   4.698   3.591   2.278
 5326WAT     H116220   4.702   3.599   2.377
 5326WAT     H216221   4.615   3.636   2.244
 5327WAT      O16222   2.454   1.351   4.157
 5327WAT     H116223   2.394   1.396   4.091
 5327WAT     H216224   2.442   1.252   4.152
 5328WAT      O16225   7.359   7.768   8.336
 5328WAT     H116226   7.360   7.797   8.431
 5328WAT     H216227   7.273   7.720   8.316
 5329WAT      O16228   9.627   0.430   9.380
 5329WAT     H116229   9.601   0.432   9.477
 5329WAT     H216230   9.633   0.335   9.349
 5330WAT      O16231   3.182   5.787   4.154
 5330WAT     H116232   3.096   5.784   4.103
 5330WAT     H216233   3.171   5.844   4.235
 5331WAT      O16234   4.933   8.310   3.244
 5331WAT     H116235   4.952   8.401   3.206
 5331WAT     H216236   4.854   8.316   3.306
 5332WAT      O16237   1.814   5.935   8.361
 5332WAT     H116238   1.794   6.027   8.327
 5332WAT     H216239   1.791   5.930   8.458
 5333WAT      O16240   2.707   3.499   0.932
 5333WAT     H116241   2.683   3.540   1.020
 5333WAT     H216242   2.670   3.556   0.858
 5334WAT      O16243   7.396   1.591   0.759
 5334WAT     H116244   7.426   1.677   0.800
 5334WAT     H216245   7.439   1.515   0.806
 5335WAT      O16246   4.939   5.141   7.021
 5335WAT     H116247   4.912   5.145   6.925
 5335WAT     H216248   4.871   5.090   7.073
 5336WAT      O16249   8.709   3.412   2.386
 5336WAT     H116250   8.638   3.371   2.443
 5336WAT     H216251   8.694   3.510   2.379
 5337WAT      O16252   5.041   1.949   8.083
 5337WAT     H116253   5.032   2.006   8.001
 5337WAT     H216254   4.952   1.908   8.105
 5338WAT      O16255   7.605   1.046   9.096
 5338WAT     H116256   7.572   0.990   9.019
 5338WAT     H216257   7.640   1.133   9.061
 5339WAT      O16258   5.710   2.553   4.803
 5339WAT     H116259   5.781   2.520   4.741
 5339WAT     H216260   5.742   2.636   4.848
 5340WAT      O16261   3.371   1.093   2.790
 5340WAT     H116262   3.419   1.130   2.711
 5340WAT     H216263   3.322   1.166   2.837
 5341WAT      O16264   4.030   6.804   8.660
 5341WAT     H116265   4.055   6.723   8.712
 5341WAT     H216266   3.966   6.860   8.714
 5342WAT      O16267   9.335   3.087   2.277
 5342WAT     H116268   9.283   3.039   2.207
 5342WAT     H216269   9.272   3.127   2.344
 5343WAT      O16270   5.466   7.761   6.590
 5343WAT     H116271   5.435   7.776   6.496
 5343WAT     H216272   5.464   7.663   6.610
 5344WAT      O16273   5.001   9.500   4.785
 5344WAT     H116274   5.029   9.406   4.765
 5344WAT     H216275   5.082   9.554   4.809
 5345WAT      O16276   1.280   9.481   1.160
 5345WAT     H116277   1.365   9.483   1.213
 5345WAT     H216278   1.298   9.448   1.068
 5346WAT      O16279   0.158   6.366   3.562
 5346WAT     H116280   0.152   6.440   3.496
 5346WAT     H216281   0.251   6.360   3.599
 5347WAT      O16282   1.429   6.296   4.660
 5347WAT     H116283   1.332   6.279   4.644
 5347WAT     H216284   1.479   6.210   4.652
 5348WAT      O16285   2.673   7.853   5.598
 5348WAT     H116286   2.691   7.911   5.519
 5348WAT     H216287   2.747   7.786   5.608
 5349WAT      O16288   5.434   1.172   7.065
 5349WAT     H116289   5.502   1.119   7.117
 5349WAT     H216290   5.401   1.117   6.989
 5350WAT      O16291   6.466   0.060   4.767
 5350WAT     H116292   6.495   0.145   4.812
 5350WAT     H216293   6.367   0.058   4.760
 5351WAT      O16294   0.828   4.391   9.867
 5351WAT     H116295   0.840   4.333   9.948
 5351WAT     H216296   0.731   4.396   9.844
 5352WAT      O16297   2.375   4.603   7.884
 5352WAT     H116298   2.422   4.516   7.865
 5352WAT     H216299   2.427   4.679   7.846
 5353WAT      O16300   8.500   1.313   9.474
 5353WAT     H116301   8.464   1.228   9.513
 5353WAT     H216302   8.490   1.387   9.541
 5354WAT      O16303   7.835   2.300   6.146
 5354WAT     H116304   7.879   2.389   6.139
 5354WAT     H216305   7.736   2.313   6.154
 5355WAT      O16306   8.740   7.925   1.717
 5355WAT     H116307   8.723   7.834   1.754
 5355WAT     H216308   8.668   7.987   1.748
 5356WAT      O16309   3.840   5.121   6.568
 5356WAT     H116310   3.911   5.105   6.499
 5356WAT     H216311   3.783   5.198   6.540
 5357WAT      O16312   4.163   0.150   7.812
 5357WAT     H116313   4.075   0.114   7.844
 5357WAT     H216314   4.156   0.248   7.798
 5358WAT      O16315   6.901   3.980   9.157
 5358WAT     H116316   6.856   4.056   9.110
 5358WAT     H216317   6.905   3.999   9.255
 5359WAT      O16318   5.044   5.810   0.097
 5359WAT     H116319   5.010   5.744   0.030
 5359WAT     H216320   5.142   5.825   0.084
 5360WAT      O16321   0.349   7.574   6.364
 5360WAT     H116322   0.430   7.626   6.336
 5360WAT     H216323   0.371   7.514   6.440
 5361WAT      O16324   5.088   2.783   4.738
 5361WAT     H116325   5.152   2.843   4.690
 5361WAT     H216326   5.046   2.719   4.673
 5362WAT      O16327   0.316   6.572   6.378
 5362WAT     H116328   0.222   6.582   6.412
 5362WAT     H216329   0.315   6.572   6.278
 5363WAT      O16330   9.569   1.053   0.813
 5363WAT     H116331   9.595   1.003   0.731
 5363WAT     H216332   9.580   0.995   0.893
 5364WAT      O16333   6.209   3.503   6.867
 5364WAT     H116334   6.279   3.431   6.874
 5364WAT     H216335   6.212   3.561   6.948
 5365WAT      O16336   2.062   6.358   2.106
 5365WAT     H116337   2.007   6.408   2.038
 5365WAT     H216338   2.031   6.263   2.110
 5366WAT      O16339   8.870   7.935   7.934
 5366WAT     H116340   8.892   8.022   7.979
 5366WAT     H216341   8.853   7.865   8.003
 5367WAT      O16342   4.588   1.422   8.100
 5367WAT     H116343   4.506   1.383   8.141
 5367WAT     H216344   4.662   1.355   8.101
 5368WAT      O16345   0.960   2.555   6.892
 5368WAT     H116346   0.892   2.581   6.961
 5368WAT     H216347   0.980   2.634   6.834
 5369WAT      O16348   3.920   3.365   6.713
 5369WAT     H116349   3.992   3.313   6.759
 5369WAT     H216350   3.832   3.318   6.724
 5370WAT      O16351   4.187   4.147   4.010
 5370WAT     H116352   4.158   4.228   4.061
 5370WAT     H216353   4.263   4.104   4.058
 5371WAT      O16354   8.427   4.808   2.816
 5371WAT     H116355   8.477   4.873   2.874
 5371WAT     H216356   8.485   4.780   2.740
 5372WAT      O16357   7.741   8.634   0.254
 5372WAT     H116358   7.657   8.589   0.283
 5372WAT     H216359   7.729   8.673   0.163
 5373WAT      O16360   8.235   6.343   1.900
 5373WAT     H116361   8.147   6.298   1.911
 5373WAT     H216362   8.268   6.332   1.807
 5374WAT      O16363   6.585   5.087   8.113
 5374WAT     H116364   6.596   4.991   8.086
 5374WAT     H216365   6.595   5.146   8.033
 5375WAT      O16366   6.458   8.343   8.984
 5375WAT     H116367   6.361   8.366   8.996
 5375WAT     H216368   6.476   8.321   8.888
 5376WAT      O16369   9.105   6.388   8.753
 5376WAT     H116370   9.183   6.326   8.746
 5376WAT     H216371   9.137   6.481   8.772
 5377WAT      O16372   1.911   5.643   6.271
 5377WAT     H116373   1.890   5.623   6.366
 5377WAT     H216374   1.827   5.665   6.221
 5378WAT      O16375   5.998   5.429   3.079
 5378WAT     H116376   6.086   5.463   3.046
 5378WAT     H216377   5.974   5.477   3.164
 5379WAT      O16378   9.168   5.341   3.981
 5379WAT     H116379   9.153   5.300   3.891
 5379WAT     H216380   9.232   5.286   4.033
 5380WAT      O16381   4.288   9.124   9.307
 5380WAT     H116382   4.376   9.079   9.318
 5380WAT     H216383   4.296   9.221   9.331
 5381WAT      O16384   3.085   9.127   3.951
 5381WAT     H116385   3.017   9.075   4.003
 5381WAT     H216386   3.039   9.188   3.887
 5382WAT      O16387   9.679   5.892   5.386
 5382WAT     H116388   9.594   5.927   5.426
 5382WAT     H216389   9.720   5.963   5.329
 5383WAT      O16390   2.736   7.951   5.325
 5383WAT     H116391   2.730   7.864   5.275
 5383WAT     H216392   2.819   8.000   5.297
 5384WAT      O16393   6.433   2.027   9.843
 5384WAT     H116394   6.509   1.973   9.879
 5384WAT     H216395   6.349   2.000   9.890
 5385WAT      O16396   3.751   7.101   9.431
 5385WAT     H116397   3.806   7.023   9.460
 5385WAT     H216398   3.709   7.082   9.342
 5386WAT      O16399   5.369   3.794   3.825
 5386WAT     H116400   5.336   3.884   3.853
 5386WAT     H216401   5.468   3.798   3.808
 5387WAT      O16402   1.274   0.764   2.255
 5387WAT     H116403   1.367   0.749   2.287
 5387WAT     H216404   1.210   0.759   2.332
 5388WAT      O16405   6.331   6.936   8.489
 5388WAT     H116406   6.234   6.924   8.468
 5388WAT     H216407   6.384   6.923   8.405
 5389WAT      O16408   6.041   8.327   8.641
 5389WAT     H116409   6.005   8.235   8.651
 5389WAT     H216410   6.023   8.379   8.725
 5390WAT      O16411   6.039   9.450   7.320
 5390WAT     H116412   6.061   9.497   7.234
 5390WAT     H216413   6.123   9.435   7.372
 5391WAT      O16414   0.455   0.563   3.022
 5391WAT     H116415   0.401   0.512   2.954
 5391WAT     H216416   0.429   0.659   3.020
 5392WAT      O16417   9.272   3.050   9.855
 5392WAT     H116418   9.355   3.102   9.872
 5392WAT     H216419   9.296   2.955   9.831
 5393WAT      O16420   9.101   4.472   8.319
 5393WAT     H116421   9.036   4.437   8.252
 5393WAT     H216422   9.143   4.555   8.285
 5394WAT      O16423   7.552   9.425   2.939
 5394WAT     H116424   7.599   9.433   2.851
 5394WAT     H216425   7.551   9.329   2.968
 5395WAT      O16426   7.034   0.094   1.344
 5395WAT     H116427   6.966   0.024   1.365
 5395WAT     H216428   7.100   0.058   1.279
 5396WAT      O16429   6.360   8.091   3.181
 5396WAT     H116430   6.373   8.189   3.197
 5396WAT     H216431   6.265   8.067   3.199
 5397WAT      O16432   2.224   5.324   0.146
 5397WAT     H116433   2.222   5.308   0.245
 5397WAT     H216434   2.181   5.412   0.126
 5398WAT      O16435   1.227   8.647   6.309
 5398WAT     H116436   1.244   8.648   6.210
 5398WAT     H216437   1.162   8.574   6.331
 5399WAT      O16438   5.380   5.144   2.982
 5399WAT     H116439   5.304   5.206   2.961
 5399WAT     H216440   5.345   5.054   3.006
 5400WAT      O16441   5.605   9.366   8.444
 5400WAT     H116442   5.672   9.373   8.370
 5400WAT     H216443   5.589   9.456   8.484
 5401WAT      O16444   2.153   1.351   6.441
 5401WAT     H116445   2.104   1.417   6.384
 5401WAT     H216446   2.093   1.316   6.512
 5402WAT      O16447   0.916   1.915   0.700
 5402WAT     H116448   0.873   1.985   0.757
 5402WAT     H216449   0.986   1.867   0.753
 5403WAT      O16450   5.830   4.904   4.538
 5403WAT     H116451   5.893   4.889   4.614
 5403WAT     H216452   5.845   4.836   4.467
 5404WAT      O16453   4.422   6.317   2.868
 5404WAT     H116454   4.481   6.361   2.799
 5404WAT     H216455   4.458   6.336   2.959
 5405WAT      O16456   9.784   2.824   6.721
 5405WAT     H116457   9.734   2.771   6.653
 5405WAT     H216458   9.769   2.785   6.812
 5406WAT      O16459   5.324   0.589   7.501
 5406WAT     H116460   5.249   0.565   7.439
 5406WAT     H216461   5.349   0.685   7.488
 5407WAT      O16462   4.652   6.603   9.387
 5407WAT     H116463   4.653   6.703   9.381
 5407WAT     H216464   4.690   6.575   9.475
 5408WAT      O16465   1.553   8.895   5.253
 5408WAT     H116466   1.457   8.867   5.242
 5408WAT     H216467   1.613   8.820   5.225
 5409WAT      O16468   9.500   1.625   6.993
 5409WAT     H116469   9.566   1.595   6.924
 5409WAT     H216470   9.533   1.709   7.036
 5410WAT      O16471   7.839   4.325   5.602
 5410WAT     H116472   7.796   4.235   5.609
 5410WAT     H216473   7.809   4.369   5.517
 5411WAT      O16474   7.035   2.272   6.686
 5411WAT     H116475   7.011   2.207   6.614
 5411WAT     H216476   7.060   2.360   6.645
 5412WAT      O16477   8.496   3.818   3.684
 5412WAT     H116478   8.409   3.859   3.710
 5412WAT     H216479   8.545   3.788   3.766
 5413WAT      O16480   4.538   4.804   8.727
 5413WAT     H116481   4.485   4.876   8.772
 5413WAT     H216482   4.554   4.730   8.792
 5414WAT      O16483   7.717   2.709   2.980
 5414WAT     H116484   7.633   2.663   2.952
 5414WAT     H216485   7.750   2.767   2.906
 5415WAT      O16486   8.013   7.597   8.724
 5415WAT     H116487   8.107   7.608   8.690
 5415WAT     H216488   7.958   7.549   8.656
 5416WAT      O16489   4.662   6.439   5.844
 5416WAT     H116490   4.686   6.348   5.877
 5416WAT     H216491   4.723   6.507   5.884
 5417WAT      O16492   9.457   7.475   1.997
 5417WAT     H116493   9.493   7.394   2.044
 5417WAT     H216494   9.461   7.460   1.898
 5418WAT      O16495   3.452   3.858   4.934
 5418WAT     H116496   3.493   3.776   4.895
 5418WAT     H216497   3.368   3.880   4.885
 5419WAT      O16498   9.037   2.313   2.553
 5419WAT     H116499   9.022   2.247   2.479
 5419WAT     H216500   8.959   2.377   2.557
 5420WAT      O16501   0.182   3.922   2.821
 5420WAT     H116502   0.201   3.959   2.912
 5420WAT     H216503   0.084   3.904   2.811
 5421WAT      O16504   8.945   0.731   1.604
 5421WAT     H116505   8.889   0.701   1.527
 5421WAT     H216506   8.888   0.778   1.671
 5422WAT      O16507   0.737   7.945   9.123
 5422WAT     H116508   0.788   7.999   9.056
 5422WAT     H216509   0.760   7.848   9.111
 5423WAT      O16510   6.066   6.833   1.728
 5423WAT     H116511   6.029   6.856   1.819
 5423WAT     H216512   6.017   6.886   1.659
 5424WAT      O16513   7.455   2.714   5.124
 5424WAT     H116514   7.549   2.723   5.093
 5424WAT     H216515   7.449   2.732   5.222
 5425WAT      O16516   3.803   7.212   1.059
 5425WAT     H116517   3.823   7.304   1.027
 5425WAT     H216518   3.775   7.155   0.981
 5426WAT      O16519   0.733   0.805   8.787
 5426WAT     H116520   0.736   0.738   8.860
 5426WAT     H216521   0.797   0.880   8.807
 5427WAT      O16522   9.189   9.477   6.217
 5427WAT     H116523   9.182   9.568   6.176
 5427WAT     H216524   9.229   9.484   6.308
 5428WAT      O16525   0.212   3.988   7.641
 5428WAT     H116526   0.194   4.026   7.550
 5428WAT     H216527   0.193   4.059   7.709
 5429WAT      O16528   1.614   8.398   8.674
 5429WAT     H116529   1.588   8.377   8.580
 5429WAT     H216530   1.544   8.456   8.716
 5430WAT      O16531   3.722   8.863   1.051
 5430WAT     H116532   3.670   8.894   0.971
 5430WAT     H216533   3.723   8.935   1.120
 5431WAT      O16534   0.780   7.010   3.971
 5431WAT     H116535   0.835   7.059   3.904
 5431WAT     H216536   0.836   6.942   4.019
 5432WAT      O16537   4.234   0.777   0.978
 5432WAT     H116538   4.331   0.766   0.958
 5432WAT     H216539   4.222   0.839   1.055
 5433WAT      O16540   0.239   4.701   7.323
 5433WAT     H116541   0.156   4.646   7.326
 5433WAT     H216542   0.235   4.762   7.244
 5434WAT      O16543   4.256   4.361   3.561
 5434WAT     H116544   4.250   4.437   3.625
 5434WAT     H216545   4.217   4.388   3.473
 5435WAT      O16546   8.641   9.831   9.153
 5435WAT     H116547   8.693   9.840   9.068
 5435WAT     H216548   8.656   9.741   9.193
 5436WAT      O16549   1.530   5.454   8.172
 5436WAT     H116550   1.519   5.486   8.266
 5436WAT     H216551   1.550   5.356   8.172
 5437WAT      O16552   3.310   1.232   3.318
 5437WAT     H116553   3.212   1.223   3.332
 5437WAT     H216554   3.357   1.228   3.407
 5438WAT      O16555   7.966   1.819   5.006
 5438WAT     H116556   7.940   1.818   5.102
 5438WAT     H216557   7.890   1.854   4.951
 5439WAT      O16558   2.558   6.495   4.695
 5439WAT     H116559   2.531   6.540   4.780
 5439WAT     H216560   2.479   6.448   4.656
 5440WAT      O16561   2.983   2.730   4.806
 5440WAT     H116562   2.918   2.702   4.876
 5440WAT     H216563   3.072   2.688   4.823
 5441WAT      O16564   1.842   3.781   8.007
 5441WAT     H116565   1.893   3.700   8.037
 5441WAT     H216566   1.825   3.775   7.909
 5442WAT      O16567   6.613   7.347   7.412
 5442WAT     H116568   6.602   7.286   7.491
 5442WAT     H216569   6.708   7.342   7.379
 5443WAT      O16570   8.263   5.898   9.339
 5443WAT     H116571   8.290   5.820   9.396
 5443WAT     H216572   8.199   5.956   9.390
 5444WAT      O16573   4.402   6.826   1.284
 5444WAT     H116574   4.351   6.740   1.287
 5444WAT     H216575   4.345   6.898   1.246
 5445WAT      O16576   6.248   3.561   4.850
 5445WAT     H116577   6.169   3.515   4.892
 5445WAT     H216578   6.330   3.505   4.865
 5446WAT      O16579   4.569   1.781   9.526
 5446WAT     H116580   4.562   1.739   9.617
 5446WAT     H216581   4.528   1.872   9.528
 5447WAT      O16582   1.959   0.891   8.769
 5447WAT     H116583   1.959   0.956   8.846
 5447WAT     H216584   2.050   0.852   8.758
 5448WAT      O16585   4.274   6.217   8.918
 5448WAT     H116586   4.269   6.312   8.887
 5448WAT     H216587   4.326   6.163   8.852
 5449WAT      O16588   9.608   9.270   2.583
 5449WAT     H116589   9.635   9.352   2.532
 5449WAT     H216590   9.539   9.295   2.652
 5450WAT      O16591   1.081   5.092   7.619
 5450WAT     H116592   1.028   5.017   7.579
 5450WAT     H216593   1.023   5.143   7.682
 5451WAT      O16594   8.787   1.504   4.518
 5451WAT     H116595   8.746   1.463   4.600
 5451WAT     H216596   8.872   1.550   4.544
 5452WAT      O16597   2.751   0.691   2.575
 5452WAT     H116598   2.668   0.645   2.543
 5452WAT     H216599   2.825   0.677   2.510
 5453WAT      O16600   1.219   6.073   5.574
 5453WAT     H116601   1.173   6.155   5.607
 5453WAT     H216602   1.269   6.094   5.490
 5454WAT      O16603   9.172   4.719   4.746
 5454WAT     H116604   9.247   4.709   4.812
 5454WAT     H216605   9.153   4.630   4.705
 5455WAT      O16606   5.259   7.848   3.720
 5455WAT     H116607   5.350   7.849   3.761
 5455WAT     H216608   5.266   7.869   3.622
 5456WAT      O16609   4.867   4.103   8.486
 5456WAT     H116610   4.798   4.124   8.417
 5456WAT     H216611   4.958   4.116   8.446
 5457WAT      O16612   6.482   1.408   5.294
 5457WAT     H116613   6.550   1.371   5.357
 5457WAT     H216614   6.419   1.467   5.344
 5458WAT      O16615   3.104   7.642   8.354
 5458WAT     H116616   3.012   7.680   8.349
 5458WAT     H216617   3.112   7.564   8.292
 5459WAT      O16618   1.222   5.761   0.447
 5459WAT     H116619   1.152   5.695   0.475
 5459WAT     H216620   1.188   5.815   0.370
 5460WAT      O16621   1.016   7.682   2.225
 5460WAT     H116622   1.095   7.642   2.273
 5460WAT     H216623   0.938   7.686   2.288
 5461WAT      O16624   2.409   4.108   5.131
 5461WAT     H116625   2.482   4.173   5.109
 5461WAT     H216626   2.426   4.069   5.222
 5462WAT      O16627   1.400   6.188   7.237
 5462WAT     H116628   1.500   6.191   7.228
 5462WAT     H216629   1.375   6.135   7.317
 5463WAT      O16630   0.813   2.962   2.581
 5463WAT     H116631   0.877   2.895   2.544
 5463WAT     H216632   0.719   2.933   2.565
 5464WAT      O16633   7.675   6.817   7.517
 5464WAT     H116634   7.636   6.820   7.609
 5464WAT     H216635   7.673   6.909   7.478
 5465WAT      O16636   6.167   6.254   3.499
 5465WAT     H116637   6.207   6.273   3.410
 5465WAT     H216638   6.152   6.155   3.508
 5466WAT      O16639   5.433   3.499   9.653
 5466WAT     H116640   5.396   3.406   9.656
 5466WAT     H216641   5.436   3.531   9.558
 5467WAT      O16642   8.531   7.243   1.706
 5467WAT     H116643   8.463   7.315   1.689
 5467WAT     H216644   8.516   7.204   1.797
 5468WAT      O16645   5.468   7.045   1.786
 5468WAT     H116646   5.472   7.091   1.875
 5468WAT     H216647   5.419   7.102   1.721
 5469WAT      O16648   1.875   4.272   4.908
 5469WAT     H116649   1.918   4.213   4.976
 5469WAT     H216650   1.801   4.324   4.951
 5470WAT      O16651   5.723   8.645   2.894
 5470WAT     H116652   5.747   8.637   2.991
 5470WAT     H216653   5.807   8.644   2.839
 5471WAT      O16654   4.707   4.026   8.681
 5471WAT     H116655   4.766   4.081   8.622
 5471WAT     H216656   4.745   4.025   8.774
 5472WAT      O16657   8.810   0.756   1.849
 5472WAT     H116658   8.766   0.700   1.779
 5472WAT     H216659   8.868   0.698   1.907
 5473WAT      O16660   6.657   5.135   6.133
 5473WAT     H116661   6.600   5.214   6.110
 5473WAT     H216662   6.621   5.089   6.214
 5474WAT      O16663   0.555   6.637   5.634
 5474WAT     H116664   0.645   6.676   5.653
 5474WAT     H216665   0.501   6.637   5.718
 5475WAT      O16666   8.786   7.714   6.707
 5475WAT     H116667   8.778   7.648   6.633
 5475WAT     H216668   8.707   7.775   6.705
 5476WAT      O16669   6.275   1.803   7.631
 5476WAT     H116670   6.302   1.841   7.719
 5476WAT     H216671   6.356   1.780   7.577
 5477WAT      O16672   2.798   7.907   2.747
 5477WAT     H116673   2.886   7.876   2.710
 5477WAT     H216674   2.810   7.998   2.788
 5478WAT      O16675   3.816   1.624   4.764
 5478WAT     H116676   3.878   1.701   4.745
 5478WAT     H216677   3.744   1.621   4.695
 5479WAT      O16678   5.953   6.141   7.023
 5479WAT     H116679   5.955   6.239   7.002
 5479WAT     H216680   6.047   6.108   7.033
 5480WAT      O16681   9.463   2.341   3.121
 5480WAT     H116682   9.448   2.320   3.217
 5480WAT     H216683   9.453   2.439   3.106
 5481WAT      O16684   4.011   5.390   2.789
 5481WAT     H116685   4.052   5.326   2.724
 5481WAT     H216686   3.974   5.469   2.740
 5482WAT      O16687   4.567   0.546   6.664
 5482WAT     H116688   4.655   0.530   6.621
 5482WAT     H216689   4.528   0.631   6.629
 5483WAT      O16690   6.581   4.105   5.435
 5483WAT     H116691   6.524   4.104   5.517
 5483WAT     H216692   6.570   4.192   5.388
 5484WAT      O16693   7.892   6.788   7.780
 5484WAT     H116694   7.802   6.804   7.821
 5484WAT     H216695   7.912   6.860   7.714
 5485WAT      O16696   2.770   5.259   4.038
 5485WAT     H116697   2.863   5.275   4.006
 5485WAT     H216698   2.747   5.162   4.026
 5486WAT      O16699   7.300   8.484   8.288
 5486WAT     H116700   7.332   8.428   8.211
 5486WAT     H216701   7.274   8.574   8.254
 5487WAT      O16702   9.081   5.020   4.181
 5487WAT     H116703   9.161   5.080   4.189
 5487WAT     H216704   9.063   5.003   4.084
 5488WAT      O16705   4.960   0.990   6.640
 5488WAT     H116706   4.980   1.084   6.668
 5488WAT     H216707   4.923   0.939   6.718
 5489WAT      O16708   0.770   3.353   2.066
 5489WAT     H116709   0.717   3.275   2.034
 5489WAT     H216710   0.835   3.381   1.994
 5490WAT      O16711   2.875   7.120   1.578
 5490WAT     H116712   2.867   7.022   1.597
 5490WAT     H216713   2.830   7.172   1.651
 5491WAT      O16714   9.704   7.912   2.086
 5491WAT     H116715   9.651   7.948   2.163
 5491WAT     H216716   9.648   7.847   2.035
 5492WAT      O16717   9.368   5.214   4.141
 5492WAT     H116718   9.330   5.226   4.232
 5492WAT     H216719   9.452   5.268   4.132
 5493WAT      O16720   8.441   4.582   0.393
 5493WAT     H116721   8.499   4.647   0.345
 5493WAT     H216722   8.459   4.587   0.491
 5494WAT      O16723   7.526   9.814   1.147
 5494WAT     H116724   7.557   9.768   1.063
 5494WAT     H216725   7.544   9.756   1.226
 5495WAT      O16726   7.480   5.585   3.653
 5495WAT     H116727   7.498   5.515   3.585
 5495WAT     H216728   7.543   5.662   3.640
 5496WAT      O16729   1.478   2.453   3.810
 5496WAT     H116730   1.559   2.399   3.785
 5496WAT     H216731   1.398   2.416   3.761
 5497WAT      O16732   2.937   1.379   0.908
 5497WAT     H116733   2.955   1.363   0.811
 5497WAT     H216734   2.902   1.296   0.950
 5498WAT      O16735   8.452   6.308   9.673
 5498WAT     H116736   8.438   6.285   9.576
 5498WAT     H216737   8.549   6.302   9.695
 5499WAT      O16738   1.167   8.558   3.290
 5499WAT     H116739   1.178   8.506   3.205
 5499WAT     H216740   1.082   8.610   3.286
 5500WAT      O16741   1.335   2.746   4.644
 5500WAT     H116742   1.338   2.796   4.558
 5500WAT     H216743   1.242   2.745   4.679
 5501WAT      O16744   9.151   5.187   9.747
 5501WAT     H116745   9.185   5.196   9.654
 5501WAT     H216746   9.149   5.090   9.773
 5502WAT      O16747   7.098   8.653   5.087
 5502WAT     H116748   7.053   8.724   5.142
 5502WAT     H216749   7.106   8.683   4.992
 5503WAT      O16750   5.625   2.651   2.568
 5503WAT     H116751   5.532   2.672   2.600
 5503WAT     H216752   5.685   2.639   2.647
 5504WAT      O16753   5.319   0.595   5.846
 5504WAT     H116754   5.362   0.633   5.764
 5504WAT     H216755   5.281   0.505   5.825
 5505WAT      O16756   5.181   0.190   1.016
 5505WAT     H116757   5.257   0.253   1.010
 5505WAT     H216758   5.132   0.189   0.928
 5506WAT      O16759   3.966   1.837   6.949
 5506WAT     H116760   4.005   1.755   6.908
 5506WAT     H216761   3.909   1.812   7.027
 5507WAT      O16762   5.752   5.715   3.055
 5507WAT     H116763   5.698   5.634   3.077
 5507WAT     H216764   5.791   5.706   2.964
 5508WAT      O16765   9.673   1.322   5.040
 5508WAT     H116766   9.611   1.346   5.115
 5508WAT     H216767   9.692   1.224   5.042
 5509WAT      O16768   9.386   1.241   5.952
 5509WAT     H116769   9.424   1.149   5.968
 5509WAT     H216770   9.433   1.307   6.010
 5510WAT      O16771   0.713   3.055   3.637
 5510WAT     H116772   0.683   3.099   3.552
 5510WAT     H216773   0.771   2.977   3.616
 5511WAT      O16774   6.038   5.620   8.806
 5511WAT     H116775   6.059   5.601   8.902
 5511WAT     H216776   6.087   5.702   8.777
 5512WAT      O16777   4.010   2.570   2.337
 5512WAT     H116778   3.934   2.505   2.334
 5512WAT     H216779   3.987   2.646   2.397
 5513WAT      O16780   4.753   2.911   2.052
 5513WAT     H116781   4.829   2.954   2.003
 5513WAT     H216782   4.667   2.954   2.025
 5514WAT      O16783   3.081   5.879   6.217
 5514WAT     H116784   3.042   5.906   6.128
 5514WAT     H216785   3.019   5.909   6.290
 5515WAT      O16786   9.794   9.666   9.025
 5515WAT     H116787   9.870   9.721   8.991
 5515WAT     H216788   9.826   9.574   9.047
 5516WAT      O16789   2.298   3.156   3.968
 5516WAT     H116790   2.381   3.175   3.916
 5516WAT     H216791   2.225   3.217   3.938
 5517WAT      O16792   1.665   0.314   0.206
 5517WAT     H116793   1.724   0.394   0.217
 5517WAT     H216794   1.649   0.272   0.295
 5518WAT      O16795   1.788   0.795   1.028
 5518WAT     H116796   1.847   0.862   0.984
 5518WAT     H216797   1.706   0.781   0.972
 5519WAT      O16798   3.584   3.085   5.336
 5519WAT     H116799   3.577   3.172   5.288
 5519WAT     H216800   3.644   3.094   5.415
 5520WAT      O16801   7.619   6.404   8.269
 5520WAT     H116802   7.526   6.408   8.306
 5520WAT     H216803   7.637   6.489   8.218
 5521WAT      O16804   1.348   8.946   4.491
 5521WAT     H116805   1.285   8.963   4.416
 5521WAT     H216806   1.368   8.848   4.497
 5522WAT      O16807   2.686   3.981   2.352
 5522WAT     H116808   2.591   3.998   2.326
 5522WAT     H216809   2.696   3.997   2.451
 5523WAT      O16810   5.773   9.311   6.020
 5523WAT     H116811   5.705   9.282   5.952
 5523WAT     H216812   5.811   9.231   6.065
 5524WAT      O16813   0.909   0.869   7.469
 5524WAT     H116814   0.854   0.806   7.524
 5524WAT     H216815   0.949   0.819   7.392
 5525WAT      O16816   3.395   2.092   0.605
 5525WAT     H116817   3.337   2.120   0.529
 5525WAT     H216818   3.392   2.161   0.677
 5526WAT      O16819   7.642   8.679   1.080
 5526WAT     H116820   7.550   8.705   1.111
 5526WAT     H216821   7.702   8.759   1.083
 5527WAT      O16822   8.493   4.191   9.352
 5527WAT     H116823   8.572   4.165   9.297
 5527WAT     H216824   8.412   4.141   9.320
 5528WAT      O16825   2.153   5.064   2.733
 5528WAT     H116826   2.249   5.087   2.752
 5528WAT     H216827   2.145   4.964   2.726
 5529WAT      O16828   0.589   3.292   9.820
 5529WAT     H116829   0.684   3.320   9.836
 5529WAT     H216830   0.543   3.361   9.764
 5530WAT      O16831   0.785   9.262   3.199
 5530WAT     H116832   0.687   9.249   3.209
 5530WAT     H216833   0.812   9.347   3.243
 5531WAT      O16834   7.577   6.305   9.677
 5531WAT     H116835   7.601   6.373   9.747
 5531WAT     H216836   7.563   6.351   9.589
 5532WAT      O16837   6.879   7.704   3.225
 5532WAT     H116838   6.960   7.762   3.217
 5532WAT     H216839   6.826   7.731   3.306
 5533WAT      O16840   2.020   3.886   6.530
 5533WAT     H116841   2.085   3.870   6.455
 5533WAT     H216842   1.969   3.802   6.547
 5534WAT      O16843   1.342   6.343   6.220
 5534WAT     H116844   1.371   6.438   6.212
 5534WAT     H216845   1.243   6.338   6.208
 5535WAT      O16846   4.092   9.466   1.535
 5535WAT     H116847   4.180   9.481   1.489
 5535WAT     H216848   4.065   9.550   1.582
 5536WAT      O16849   2.774   8.617   1.331
 5536WAT     H116850   2.783   8.674   1.250
 5536WAT     H216851   2.859   8.620   1.384
 5537WAT      O16852   9.480   7.639   6.005
 5537WAT     H116853   9.406   7.599   5.952
 5537WAT     H216854   9.479   7.739   5.994
 5538WAT      O16855   0.042   7.830   9.075
 5538WAT     H116856   0.127   7.853   9.122
 5538WAT     H216857   0.040   7.732   9.056
 5539WAT      O16858   5.799   7.455   5.598
 5539WAT     H116859   5.726   7.454   5.530
 5539WAT     H216860   5.882   7.414   5.558
 5540WAT      O16861   3.231   5.616   4.359
 5540WAT     H116862   3.144   5.569   4.370
 5540WAT     H216863   3.222   5.689   4.292
 5541WAT      O16864   6.269   1.777   4.870
 5541WAT     H116865   6.350   1.830   4.894
 5541WAT     H216866   6.293   1.680   4.861
 5542WAT      O16867   1.463   8.038   7.904
 5542WAT     H116868   1.532   7.973   7.936
 5542WAT     H216869   1.378   8.022   7.955
 5543WAT      O16870   8.838   4.919   0.811
 5543WAT     H116871   8.836   4.820   0.825
 5543WAT     H216872   8.885   4.940   0.725
 5544WAT      O16873   1.748   8.320   6.398
 5544WAT     H116874   1.761   8.256   6.474
 5544WAT     H216875   1.656   8.359   6.403
 5545WAT      O16876   3.147   6.960   4.777
 5545WAT     H116877   3.208   7.015   4.832
 5545WAT     H216878   3.184   6.951   4.684
 5546WAT      O16879   0.037   0.636   3.701
 5546WAT     H116880  -0.044   0.691   3.720
 5546WAT     H216881   0.101   0.643   3.778
 5547WAT      O16882   3.980   6.182   3.902
 5547WAT     H116883   4.066   6.134   3.887
 5547WAT     H216884   3.941   6.155   3.989
 5548WAT      O16885   9.236   2.869   8.506
 5548WAT     H116886   9.285   2.784   8.526
 5548WAT     H216887   9.295   2.931   8.454
 5549WAT      O16888   1.386   4.828   0.146
 5549WAT     H116889   1.463   4.811   0.085
 5549WAT     H216890   1.315   4.759   0.130
 5550WAT      O16891   9.758   3.289   5.055
 5550WAT     H116892   9.739   3.235   5.137
 5550WAT     H216893   9.828   3.357   5.075
 5551WAT      O16894   9.706   7.088   1.621
 5551WAT     H116895   9.687   6.990   1.614
 5551WAT     H216896   9.750   7.119   1.536
 5552WAT      O16897   3.860   6.664   1.536
 5552WAT     H116898   3.907   6.751   1.520
 5552WAT     H216899   3.764   6.682   1.559
 5553WAT      O16900   9.309   8.459   7.970
 5553WAT     H116901   9.278   8.417   7.885
 5553WAT     H216902   9.305   8.559   7.962
 5554WAT      O16903   5.236   6.793   6.773
 5554WAT     H116904   5.254   6.810   6.676
 5554WAT     H216905   5.274   6.705   6.799
 5555WAT      O16906   2.351   2.518   7.254
 5555WAT     H116907   2.390   2.432   7.286
 5555WAT     H216908   2.359   2.525   7.155
 5556WAT      O16909   4.860   7.967   0.547
 5556WAT     H116910   4.890   7.917   0.628
 5556WAT     H216911   4.760   7.972   0.545
 5557WAT      O16912   1.620   4.745   3.195
 5557WAT     H116913   1.670   4.828   3.169
 5557WAT     H216914   1.626   4.678   3.121
 5558WAT      O16915   2.710   2.357   6.201
 5558WAT     H116916   2.747   2.382   6.291
 5558WAT     H216917   2.783   2.361   6.133
 5559WAT      O16918   0.027   1.408   7.662
 5559WAT     H116919  -0.002   1.498   7.697
 5559WAT     H216920  -0.053   1.359   7.626
 5560WAT      O16921   7.524   0.271   9.186
 5560WAT     H116922   7.537   0.368   9.205
 5560WAT     H216923   7.589   0.218   9.241
 5561WAT      O16924   3.178   8.538   3.787
 5561WAT     H116925   3.112   8.521   3.714
 5561WAT     H216926   3.176   8.635   3.812
 5562WAT      O16927   4.973   9.346   2.743
 5562WAT     H116928   5.014   9.332   2.833
 5562WAT     H216929   4.883   9.302   2.741
 5563WAT      O16930   0.997   2.661   5.377
 5563WAT     H116931   0.954   2.636   5.463
 5563WAT     H216932   1.093   2.632   5.378
 5564WAT      O16933   9.496   4.820   7.111
 5564WAT     H116934   9.520   4.789   7.203
 5564WAT     H216935   9.416   4.880   7.115
 5565WAT      O16936   8.569   6.914   8.586
 5565WAT     H116937   8.525   6.988   8.534
 5565WAT     H216938   8.499   6.861   8.634
 5566WAT      O16939   8.438   2.414   1.349
 5566WAT     H116940   8.506   2.362   1.399
 5566WAT     H216941   8.476   2.444   1.262
 5567WAT      O16942   6.286   9.326   9.565
 5567WAT     H116943   6.286   9.227   9.547
 5567WAT     H216944   6.357   9.347   9.632
 5568WAT      O16945   9.810   8.091   3.428
 5568WAT     H116946   9.735   8.069   3.490
 5568WAT     H216947   9.803   8.186   3.400
 5569WAT      O16948   5.903   1.215   0.969
 5569WAT     H116949   5.963   1.178   1.040
 5569WAT     H216950   5.808   1.207   0.999
 5570WAT      O16951   3.746   3.530   3.632
 5570WAT     H116952   3.683   3.469   3.585
 5570WAT     H216953   3.766   3.609   3.574
 5571WAT      O16954   9.016   5.861   0.105
 5571WAT     H116955   8.976   5.909   0.027
 5571WAT     H216956   8.960   5.878   0.186
 5572WAT      O16957   7.419   6.284   6.116
 5572WAT     H116958   7.372   6.239   6.192
 5572WAT     H216959   7.477   6.217   6.069
 5573WAT      O16960   0.463   1.319   1.704
 5573WAT     H116961   0.448   1.399   1.763
 5573WAT     H216962   0.559   1.292   1.708
 5574WAT      O16963   4.858   2.973   4.413
 5574WAT     H116964   4.943   3.017   4.444
 5574WAT     H216965   4.783   2.999   4.473
 5575WAT      O16966   3.209   3.410   4.116
 5575WAT     H116967   3.242   3.337   4.176
 5575WAT     H216968   3.205   3.376   4.021
 5576WAT      O16969   4.932   7.543   1.997
 5576WAT     H116970   4.858   7.508   1.941
 5576WAT     H216971   4.929   7.643   1.998
 5577WAT      O16972   7.349   2.632   7.170
 5577WAT     H116973   7.417   2.601   7.103
 5577WAT     H216974   7.391   2.635   7.261
 5578WAT      O16975   6.769   1.365   3.817
 5578WAT     H116976   6.729   1.446   3.859
 5578WAT     H216977   6.868   1.369   3.824
 5579WAT      O16978   3.739   9.751   0.781
 5579WAT     H116979   3.664   9.796   0.828
 5579WAT     H216980   3.821   9.808   0.788
 5580WAT      O16981   6.431   0.316   9.631
 5580WAT     H116982   6.347   0.361   9.601
 5580WAT     H216983   6.408   0.230   9.677
 5581WAT      O16984   0.006   9.372   9.682
 5581WAT     H116985  -0.034   9.283   9.662
 5581WAT     H216986  -0.045   9.417   9.755
 5582WAT      O16987   3.000   3.463   0.412
 5582WAT     H116988   3.053   3.548   0.405
 5582WAT     H216989   2.999   3.432   0.507
 5583WAT      O16990   6.610   7.968   4.065
 5583WAT     H116991   6.691   7.913   4.046
 5583WAT     H216992   6.569   7.938   4.151
 5584WAT      O16993   2.728   6.488   9.521
 5584WAT     H116994   2.718   6.566   9.459
 5584WAT     H216995   2.787   6.419   9.479
 5585WAT      O16996   4.794   8.709   0.198
 5585WAT     H116997   4.712   8.665   0.234
 5585WAT     H216998   4.785   8.721   0.099
 5586WAT      O16999   7.331   5.891   8.173
 5586WAT     H117000   7.354   5.793   8.170
 5586WAT     H217001   7.415   5.945   8.166
 5587WAT      O17002   8.192   6.152   1.526
 5587WAT     H117003   8.135   6.227   1.493
 5587WAT     H217004   8.141   6.067   1.521
 5588WAT      O17005   8.091   9.429   8.941
 5588WAT     H117006   8.162   9.372   8.983
 5588WAT     H217007   8.110   9.525   8.960
 5589WAT      O17008   6.437   1.505   7.122
 5589WAT     H117009   6.368   1.550   7.180
 5589WAT     H217010   6.449   1.411   7.152
 5590WAT      O17011   0.675   4.955   9.172
 5590WAT     H117012   0.702   4.999   9.258
 5590WAT     H217013   0.749   4.897   9.139
 5591WAT      O17014   0.886   7.414   1.443
 5591WAT     H117015   0.806   7.462   1.477
 5591WAT     H217016   0.897   7.328   1.494
 5592WAT      O17017   3.070   1.007   9.837
 5592WAT     H117018   3.122   0.931   9.800
 5592WAT     H217019   3.045   0.988   9.932
 5593WAT      O17020   4.409   4.928   2.885
 5593WAT     H117021   4.403   4.916   2.786
 5593WAT     H217022   4.358   4.856   2.931
 5594WAT      O17023   9.802   5.983   9.248
 5594WAT     H117024   9.821   5.942   9.337
 5594WAT     H217025   9.889   6.001   9.201
 5595WAT      O17026   3.270   0.447   6.848
 5595WAT     H117027   3.354   0.450   6.794
 5595WAT     H217028   3.283   0.386   6.927
 5596WAT      O17029   2.948   1.580   0.570
 5596WAT     H117030   2.979   1.657   0.625
 5596WAT     H217031   3.007   1.501   0.586
 5597WAT      O17032   8.734   6.931   9.636
 5597WAT     H117033   8.770   6.870   9.565
 5597WAT     H217034   8.735   7.025   9.602
 5598WAT      O17035   5.439   2.180   3.544
 5598WAT     H117036   5.473   2.192   3.451
 5598WAT     H217037   5.352   2.129   3.541
 5599WAT      O17038   9.752   5.464   0.712
 5599WAT     H117039   9.749   5.366   0.730
 5599WAT     H217040   9.847   5.492   0.695
 5600WAT      O17041   9.138   8.545   5.531
 5600WAT     H117042   9.090   8.610   5.590
 5600WAT     H217043   9.232   8.576   5.516
 5601WAT      O17044   0.215   4.509   5.669
 5601WAT     H117045   0.236   4.605   5.687
 5601WAT     H217046   0.206   4.495   5.571
 5602WAT      O17047   3.726   3.850   7.915
 5602WAT     H117048   3.767   3.857   7.824
 5602WAT     H217049   3.701   3.755   7.933
 5603WAT      O17050   2.255   2.530   4.108
 5603WAT     H117051   2.187   2.466   4.145
 5603WAT     H217052   2.256   2.523   4.008
 5604WAT      O17053   7.822   5.511   3.967
 5604WAT     H117054   7.723   5.516   3.974
 5604WAT     H217055   7.853   5.559   3.885
 5605WAT      O17056   6.066   0.481   7.371
 5605WAT     H117057   6.165   0.498   7.365
 5605WAT     H217058   6.018   0.546   7.312
 5606WAT      O17059   6.675   5.478   8.066
 5606WAT     H117060   6.770   5.449   8.067
 5606WAT     H217061   6.631   5.446   7.982
 5607WAT      O17062   4.818   5.794   2.836
 5607WAT     H117063   4.884   5.794   2.910
 5607WAT     H217064   4.759   5.874   2.844
 5608WAT      O17065   6.894   3.019   7.099
 5608WAT     H117066   6.933   2.971   7.178
 5608WAT     H217067   6.936   3.109   7.091
 5609WAT      O17068   1.122   7.001   4.419
 5609WAT     H117069   1.067   7.085   4.411
 5609WAT     H217070   1.148   6.970   4.328
 5610WAT      O17071   0.569   9.434   1.077
 5610WAT     H117072   0.503   9.415   1.004
 5610WAT     H217073   0.557   9.528   1.109
 5611WAT      O17074   6.242   5.333   0.420
 5611WAT     H117075   6.219   5.350   0.516
 5611WAT     H217076   6.317   5.394   0.392
 5612WAT      O17077   1.222   5.233   6.756
 5612WAT     H117078   1.287   5.306   6.738
 5612WAT     H217079   1.250   5.151   6.706
 5613WAT      O17080   7.577   2.244   1.980
 5613WAT     H117081   7.639   2.277   2.052
 5613WAT     H217082   7.575   2.310   1.905
 5614WAT      O17083   9.004   4.433   6.056
 5614WAT     H117084   9.030   4.528   6.069
 5614WAT     H217085   8.925   4.412   6.115
 5615WAT      O17086   8.879   5.739   2.885
 5615WAT     H117087   8.891   5.830   2.926
 5615WAT     H217088   8.806   5.691   2.933
 5616WAT      O17089   5.087   1.416   3.531
 5616WAT     H117090   5.130   1.411   3.622
 5616WAT     H217091   4.992   1.383   3.538
 5617WAT      O17092   0.289   5.335   0.550
 5617WAT     H117093   0.387   5.343   0.571
 5617WAT     H217094   0.277   5.292   0.461
 5618WAT      O17095   8.627   4.418   4.610
 5618WAT     H117096   8.645   4.515   4.596
 5618WAT     H217097   8.696   4.380   4.672
 5619WAT      O17098   4.397   1.556   8.408
 5619WAT     H117099   4.320   1.615   8.432
 5619WAT     H217100   4.453   1.539   8.489
 5620WAT      O17101   8.487   3.455   5.328
 5620WAT     H117102   8.405   3.480   5.276
 5620WAT     H217103   8.554   3.529   5.322
 5621WAT      O17104   3.288   6.190   7.440
 5621WAT     H117105   3.366   6.162   7.497
 5621WAT     H217106   3.317   6.194   7.344
 5622WAT      O17107   7.741   7.700   2.411
 5622WAT     H117108   7.800   7.761   2.464
 5622WAT     H217109   7.751   7.606   2.445
 5623WAT      O17110   3.149   8.345   1.589
 5623WAT     H117111   3.055   8.374   1.567
 5623WAT     H217112   3.206   8.425   1.605
 5624WAT      O17113   9.047   4.584   2.128
 5624WAT     H117114   9.061   4.683   2.126
 5624WAT     H217115   8.963   4.562   2.079
 5625WAT      O17116   7.125   5.825   5.596
 5625WAT     H117117   7.201   5.777   5.553
 5625WAT     H217118   7.125   5.920   5.566
 5626WAT      O17119   8.254   8.834   1.361
 5626WAT     H117120   8.337   8.854   1.413
 5626WAT     H217121   8.176   8.880   1.404
 5627WAT      O17122   1.044   7.614   1.408
 5627WAT     H117123   1.112   7.584   1.340
 5627WAT     H217124   0.983   7.537   1.429
 5628WAT      O17125   0.495   7.802   8.714
 5628WAT     H117126   0.413   7.782   8.661
 5628WAT     H217127   0.574   7.810   8.653
 5629WAT      O17128   7.795   8.894   2.216
 5629WAT     H117129   7.873   8.834   2.198
 5629WAT     H217130   7.826   8.989   2.220
 5630WAT      O17131   2.705   3.218   3.119
 5630WAT     H117132   2.693   3.254   3.026
 5630WAT     H217133   2.701   3.118   3.116
 5631WAT      O17134   0.278   5.388   6.609
 5631WAT     H117135   0.237   5.421   6.693
 5631WAT     H217136   0.317   5.297   6.624
 5632WAT      O17137   3.258   4.746   9.141
 5632WAT     H117138   3.212   4.706   9.220
 5632WAT     H217139   3.266   4.677   9.069
 5633WAT      O17140   9.489   3.351   2.865
 5633WAT     H117141   9.415   3.311   2.812
 5633WAT     H217142   9.518   3.437   2.823
 5634WAT      O17143   5.907   8.802   1.521
 5634WAT     H117144   5.821   8.757   1.496
 5634WAT     H217145   5.899   8.837   1.615
 5635WAT      O17146   4.412   1.811   6.004
 5635WAT     H117147   4.385   1.838   5.912
 5635WAT     H217148   4.456   1.888   6.050
 5636WAT      O17149   5.720   3.403   8.069
 5636WAT     H117150   5.746   3.466   8.143
 5636WAT     H217151   5.631   3.362   8.090
 5637WAT      O17152   9.172   7.858   3.061
 5637WAT     H117153   9.084   7.902   3.046
 5637WAT     H217154   9.243   7.908   3.011
 5638WAT      O17155   1.185   7.219   6.371
 5638WAT     H117156   1.131   7.271   6.437
 5638WAT     H217157   1.225   7.139   6.416
 5639WAT      O17158   5.620   7.916   2.420
 5639WAT     H117159   5.589   7.847   2.485
 5639WAT     H217160   5.704   7.884   2.376
 5640WAT      O17161   5.921   4.638   0.926
 5640WAT     H117162   5.940   4.720   0.981
 5640WAT     H217163   5.995   4.624   0.860
 5641WAT      O17164   8.353   8.823   3.337
 5641WAT     H117165   8.452   8.808   3.338
 5641WAT     H217166   8.315   8.800   3.427
 5642WAT      O17167   0.470   5.414   7.569
 5642WAT     H117168   0.419   5.427   7.654
 5642WAT     H217169   0.432   5.473   7.498
 5643WAT      O17170   1.280   3.463   2.103
 5643WAT     H117171   1.238   3.391   2.048
 5643WAT     H217172   1.253   3.552   2.069
 5644WAT      O17173   4.477   8.596   1.066
 5644WAT     H117174   4.497   8.498   1.064
 5644WAT     H217175   4.404   8.613   1.132
 5645WAT      O17176   3.890   0.557   9.749
 5645WAT     H117177   3.805   0.508   9.729
 5645WAT     H217178   3.874   0.624   9.822
 5646WAT      O17179   1.807   7.230   0.375
 5646WAT     H117180   1.864   7.207   0.454
 5646WAT     H217181   1.851   7.195   0.291
 5647WAT      O17182   2.273   6.428   7.043
 5647WAT     H117183   2.214   6.469   7.114
 5647WAT     H217184   2.228   6.347   7.006
 5648WAT      O17185   3.299   9.819   7.370
 5648WAT     H117186   3.358   9.807   7.449
 5648WAT     H217187   3.354   9.843   7.290
 5649WAT      O17188   2.838   3.598   3.025
 5649WAT     H117189   2.780   3.601   3.107
 5649WAT     H217190   2.799   3.535   2.958
 5650WAT      O17191   6.612   7.324   4.701
 5650WAT     H117192   6.677   7.290   4.633
 5650WAT     H217193   6.552   7.392   4.659
 5651WAT      O17194   2.341   8.945   4.644
 5651WAT     H117195   2.241   8.948   4.641
 5651WAT     H217196   2.376   8.896   4.565
 5652WAT      O17197   4.315   9.347   8.868
 5652WAT     H117198   4.220   9.381   8.866
 5652WAT     H217199   4.321   9.271   8.933
 5653WAT      O17200   4.671   2.157   2.915
 5653WAT     H117201   4.632   2.201   2.834
 5653WAT     H217202   4.667   2.220   2.993
 5654WAT      O17203   2.782   9.608   3.952
 5654WAT     H117204   2.842   9.646   3.882
 5654WAT     H217205   2.699   9.572   3.908
 5655WAT      O17206   8.028   2.797   0.951
 5655WAT     H117207   7.939   2.774   0.911
 5655WAT     H217208   8.015   2.864   1.024
 5656WAT      O17209   9.057   2.086   7.615
 5656WAT     H117210   9.029   2.182   7.609
 5656WAT     H217211   8.982   2.033   7.655
 5657WAT      O17212   4.375   5.221   2.649
 5657WAT     H117213   4.400   5.276   2.729
 5657WAT     H217214   4.386   5.124   2.670
 5658WAT      O17215   7.503   4.246   2.370
 5658WAT     H117216   7.480   4.343   2.363
 5658WAT     H217217   7.480   4.200   2.284
 5659WAT      O17218   2.870   7.590   7.522
 5659WAT     H117219   2.809   7.510   7.515
 5659WAT     H217220   2.850   7.654   7.448
 5660WAT      O17221   7.183   3.556   3.863
 5660WAT     H117222   7.240   3.479   3.835
 5660WAT     H217223   7.119   3.527   3.934
 5661WAT      O17224   7.466   0.515   7.885
 5661WAT     H117225   7.438   0.469   7.800
 5661WAT     H217226   7.387   0.521   7.947
 5662WAT      O17227   6.205   5.610   1.011
 5662WAT     H117228   6.222   5.559   1.095
 5662WAT     H217229   6.217   5.708   1.029
 5663WAT      O17230   1.243   4.765   1.626
 5663WAT     H117231   1.318   4.781   1.562
 5663WAT     H217232   1.248   4.832   1.701
 5664WAT      O17233   4.708   0.001   7.781
 5664WAT     H117234   4.750   0.064   7.716
 5664WAT     H217235   4.632   0.047   7.828
 5665WAT      O17236   3.593   6.160   2.912
 5665WAT     H117237   3.594   6.214   2.827
 5665WAT     H217238   3.498   6.134   2.933
 5666WAT      O17239   6.110   2.540   9.851
 5666WAT     H117240   6.035   2.516   9.789
 5666WAT     H217241   6.097   2.633   9.885
 5667WAT      O17242   6.681   5.323   8.730
 5667WAT     H117243   6.660   5.339   8.633
 5667WAT     H217244   6.700   5.226   8.744
 5668WAT      O17245   8.655   1.580   2.086
 5668WAT     H117246   8.561   1.553   2.066
 5668WAT     H217247   8.716   1.503   2.071
 5669WAT      O17248   1.471   0.968   2.114
 5669WAT     H117249   1.463   0.896   2.183
 5669WAT     H217250   1.445   0.932   2.025
 5670WAT      O17251   3.762   2.260   1.253
 5670WAT     H117252   3.706   2.246   1.335
 5670WAT     H217253   3.848   2.304   1.278
 5671WAT      O17254   1.166   2.341   9.591
 5671WAT     H117255   1.177   2.242   9.597
 5671WAT     H217256   1.113   2.364   9.510
 5672WAT      O17257   9.666   9.042   3.208
 5672WAT     H117258   9.661   9.049   3.307
 5672WAT     H217259   9.736   9.105   3.173
 5673WAT      O17260   6.458   7.409   5.580
 5673WAT     H117261   6.366   7.439   5.603
 5673WAT     H217262   6.500   7.365   5.659
 5674WAT      O17263   6.385   5.027   8.821
 5674WAT     H117264   6.468   5.018   8.877
 5674WAT     H217265   6.378   4.948   8.760
 5675WAT      O17266   8.993   3.574   5.396
 5675WAT     H117267   8.962   3.618   5.311
 5675WAT     H217268   8.985   3.639   5.472
 5676WAT      O17269   1.147   8.906   7.050
 5676WAT     H117270   1.056   8.933   7.084
 5676WAT     H217271   1.200   8.988   7.029
 5677WAT      O17272   3.628   4.278   1.246
 5677WAT     H117273   3.692   4.279   1.323
 5677WAT     H217274   3.662   4.339   1.174
 5678WAT      O17275   9.022   7.782   2.741
 5678WAT     H117276   9.025   7.705   2.804
 5678WAT     H217277   9.014   7.749   2.647
 5679WAT      O17278   0.871   6.849   8.964
 5679WAT     H117279   0.936   6.773   8.960
 5679WAT     H217280   0.908   6.928   8.915
 5680WAT      O17281   0.966   0.880   1.302
 5680WAT     H117282   1.050   0.826   1.296
 5680WAT     H217283   0.988   0.977   1.293
 5681WAT      O17284   3.201   1.814   8.006
 5681WAT     H117285   3.160   1.832   8.096
 5681WAT     H217286   3.205   1.899   7.954
 5682WAT      O17287   6.349   9.441   9.300
 5682WAT     H117288   6.329   9.398   9.388
 5682WAT     H217289   6.447   9.450   9.288
 5683WAT      O17290   9.618   8.602   8.069
 5683WAT     H117291   9.592   8.524   8.125
 5683WAT     H217292   9.717   8.612   8.069
 5684WAT      O17293   1.774   6.531   7.291
 5684WAT     H117294   1.698   6.525   7.225
 5684WAT     H217295   1.818   6.620   7.282
 5685WAT      O17296   7.724   1.464   1.850
 5685WAT     H117297   7.719   1.531   1.776
 5685WAT     H217298   7.654   1.485   1.919
 5686WAT      O17299   3.164   3.831   4.135
 5686WAT     H117300   3.199   3.917   4.099
 5686WAT     H217301   3.103   3.789   4.067
 5687WAT      O17302   3.507   7.891   7.883
 5687WAT     H117303   3.607   7.883   7.877
 5687WAT     H217304   3.482   7.932   7.970
 5688WAT      O17305   7.242   9.606   7.069
 5688WAT     H117306   7.270   9.693   7.109
 5688WAT     H217307   7.297   9.588   6.987
 5689WAT      O17308   9.717   7.555   6.112
 5689WAT     H117309   9.786   7.617   6.076
 5689WAT     H217310   9.627   7.582   6.078
 5690WAT      O17311   0.777   6.485   6.304
 5690WAT     H117312   0.795   6.410   6.369
 5690WAT     H217313   0.693   6.464   6.253
 5691WAT      O17314   2.764   6.849   0.169
 5691WAT     H117315   2.754   6.889   0.078
 5691WAT     H217316   2.714   6.763   0.173
 5692WAT      O17317   8.974   5.006   7.480
 5692WAT     H117318   9.064   5.036   7.513
 5692WAT     H217319   8.942   5.069   7.409
 5693WAT      O17320   1.660   1.432   4.070
 5693WAT     H117321   1.714   1.471   3.995
 5693WAT     H217322   1.563   1.438   4.049
 5694WAT      O17323   2.587   0.596   3.220
 5694WAT     H117324   2.560   0.683   3.179
 5694WAT     H217325   2.644   0.545   3.155
 5695WAT      O17326   5.161   2.420   4.243
 5695WAT     H117327   5.220   2.373   4.177
 5695WAT     H217328   5.144   2.360   4.321
 5696WAT      O17329   0.183   1.781   1.161
 5696WAT     H117330   0.142   1.850   1.220
 5696WAT     H217331   0.166   1.690   1.200
 5697WAT      O17332   9.597   4.252   7.588
 5697WAT     H117333   9.526   4.291   7.530
 5697WAT     H217334   9.587   4.152   7.590
 5698WAT      O17335   3.862   0.457   0.955
 5698WAT     H117336   3.952   0.494   0.933
 5698WAT     H217337   3.801   0.471   0.877
 5699WAT      O17338   8.169   0.506   7.797
 5699WAT     H117339   8.173   0.482   7.894
 5699WAT     H217340   8.237   0.453   7.746
 5700WAT      O17341   4.315   9.009   1.978
 5700WAT     H117342   4.397   9.005   2.034
 5700WAT     H217343   4.276   9.101   1.982
 5701WAT      O17344   8.928   8.120   1.614
 5701WAT     H117345   8.858   8.075   1.670
 5701WAT     H217346   8.986   8.177   1.671
 5702WAT      O17347   3.694   8.580   9.896
 5702WAT     H117348   3.779   8.552   9.850
 5702WAT     H217349   3.680   8.678   9.883
 5703WAT      O17350   6.177   6.021   3.288
 5703WAT     H117351   6.091   5.970   3.289
 5703WAT     H217352   6.169   6.098   3.223
 5704WAT      O17353   0.794   5.807   4.868
 5704WAT     H117354   0.847   5.888   4.842
 5704WAT     H217355   0.777   5.751   4.787
 5705WAT      O17356   0.761   1.499   3.546
 5705WAT     H117357   0.685   1.538   3.597
 5705WAT     H217358   0.835   1.566   3.541
 5706WAT      O17359   5.666   0.250   3.942
 5706WAT     H117360   5.646   0.238   4.039
 5706WAT     H217361   5.654   0.163   3.894
 5707WAT      O17362   8.426   5.521   0.580
 5707WAT     H117363   8.427   5.537   0.481
 5707WAT     H217364   8.374   5.593   0.625
 5708WAT      O17365   8.058   3.818   2.276
 5708WAT     H117366   7.967   3.778   2.269
 5708WAT     H217367   8.082   3.829   2.373
 5709WAT      O17368   1.370   7.107   8.835
 5709WAT     H117369   1.361   7.203   8.807
 5709WAT     H217370   1.311   7.089   8.913
 5710WAT      O17371   6.476   8.280   8.716
 5710WAT     H117372   6.474   8.182   8.696
 5710WAT     H217373   6.406   8.327   8.662
 5711WAT      O17374   8.902   3.810   9.563
 5711WAT     H117375   8.994   3.770   9.563
 5711WAT     H217376   8.908   3.909   9.569
 5712WAT      O17377   2.543   4.506   1.468
 5712WAT     H117378   2.557   4.409   1.445
 5712WAT     H217379   2.458   4.515   1.520
 5713WAT      O17380   1.595   1.436   1.227
 5713WAT     H117381   1.593   1.447   1.128
 5713WAT     H217382   1.584   1.526   1.270
 5714WAT      O17383   8.433   0.968   5.684
 5714WAT     H117384   8.516   0.912   5.675
 5714WAT     H217385   8.362   0.914   5.728
 5715WAT      O17386   7.448   5.712   1.068
 5715WAT     H117387   7.388   5.776   1.021
 5715WAT     H217388   7.462   5.742   1.162
 5716WAT      O17389   8.996   6.259   3.131
 5716WAT     H117390   9.074   6.322   3.129
 5716WAT     H217391   8.922   6.300   3.184
 5717WAT      O17392   3.123   9.292   0.185
 5717WAT     H117393   3.093   9.387   0.196
 5717WAT     H217394   3.045   9.231   0.196
 5718WAT      O17395   3.194   1.315   4.369
 5718WAT     H117396   3.276   1.372   4.360
 5718WAT     H217397   3.215   1.236   4.427
 5719WAT      O17398   5.222   3.237   6.279
 5719WAT     H117399   5.209   3.171   6.353
 5719WAT     H217400   5.302   3.295   6.299
 5720WAT      O17401   3.959   4.251   0.178
 5720WAT     H117402   3.965   4.282   0.273
 5720WAT     H217403   3.984   4.326   0.117
 5721WAT      O17404   9.008   3.717   2.325
 5721WAT     H117405   8.918   3.753   2.349
 5721WAT     H217406   9.002   3.664   2.241
 5722WAT      O17407   9.196   9.426   8.181
 5722WAT     H117408   9.200   9.400   8.084
 5722WAT     H217409   9.136   9.506   8.191
 5723WAT      O17410   2.740   2.587   9.355
 5723WAT     H117411   2.649   2.586   9.314
 5723WAT     H217412   2.809   2.598   9.283
 5724WAT      O17413   7.163   2.979   1.099
 5724WAT     H117414   7.245   2.922   1.095
 5724WAT     H217415   7.131   2.985   1.194
 5725WAT      O17416   1.979   9.579   7.773
 5725WAT     H117417   2.032   9.639   7.833
 5725WAT     H217418   1.957   9.494   7.822
 5726WAT      O17419   6.971   3.686   0.995
 5726WAT     H117420   6.932   3.603   1.035
 5726WAT     H217421   6.925   3.766   1.034
 5727WAT      O17422   8.492   9.173   0.622
 5727WAT     H117423   8.479   9.150   0.719
 5727WAT     H217424   8.464   9.267   0.606
 5728WAT      O17425   8.222   2.080   1.987
 5728WAT     H117426   8.184   2.145   1.921
 5728WAT     H217427   8.315   2.055   1.959
 5729WAT      O17428   4.578   4.411   8.199
 5729WAT     H117429   4.575   4.334   8.263
 5729WAT     H217430   4.665   4.410   8.150
 5730WAT      O17431   6.257   3.708   3.247
 5730WAT     H117432   6.286   3.741   3.157
 5730WAT     H217433   6.167   3.663   3.239
 5731WAT      O17434   5.120   3.826   9.022
 5731WAT     H117435   5.177   3.888   9.076
 5731WAT     H217436   5.046   3.790   9.080
 5732WAT      O17437   8.033   0.416   8.772
 5732WAT     H117438   7.959   0.386   8.833
 5732WAT     H217439   8.120   0.415   8.822
 5733WAT      O17440   9.766   6.437   1.915
 5733WAT     H117441   9.737   6.357   1.862
 5733WAT     H217442   9.771   6.413   2.012
 5734WAT      O17443   7.630   3.295   8.882
 5734WAT     H117444   7.562   3.365   8.905
 5734WAT     H217445   7.697   3.288   8.955
 5735WAT      O17446   0.557   1.473   9.683
 5735WAT     H117447   0.645   1.517   9.700
 5735WAT     H217448   0.489   1.543   9.659
 5736WAT      O17449   4.750   6.094   7.448
 5736WAT     H117450   4.758   6.018   7.384
 5736WAT     H217451   4.656   6.127   7.449
 5737WAT      O17452   9.445   3.494   0.013
 5737WAT     H117453   9.463   3.435  -0.065
 5737WAT     H217454   9.525   3.496   0.073
 5738WAT      O17455   8.866   6.414   7.918
 5738WAT     H117456   8.950   6.379   7.876
 5738WAT     H217457   8.790   6.404   7.854
 5739WAT      O17458   4.939   7.310   1.622
 5739WAT     H117459   4.991   7.250   1.683
 5739WAT     H217460   4.841   7.301   1.642
 5740WAT      O17461   4.931   2.419   1.758
 5740WAT     H117462   4.932   2.516   1.780
 5740WAT     H217463   4.844   2.379   1.786
 5741WAT      O17464   1.890   7.592   4.895
 5741WAT     H117465   1.818   7.615   4.961
 5741WAT     H217466   1.962   7.542   4.942
 5742WAT      O17467   3.443   8.011   1.165
 5742WAT     H117468   3.492   8.089   1.126
 5742WAT     H217469   3.404   8.036   1.253
 5743WAT      O17470   8.630   6.455   7.690
 5743WAT     H117471   8.564   6.503   7.749
 5743WAT     H217472   8.678   6.522   7.633
 5744WAT      O17473   4.563   7.410   5.126
 5744WAT     H117474   4.587   7.313   5.122
 5744WAT     H217475   4.623   7.462   5.065
 5745WAT      O17476   2.477   4.264   0.213
 5745WAT     H117477   2.378   4.265   0.198
 5745WAT     H217478   2.502   4.181   0.263
 5746WAT      O17479   8.405   0.931   2.308
 5746WAT     H117480   8.407   1.021   2.351
 5746WAT     H217481   8.316   0.916   2.264
 5747WAT      O17482   9.138   0.749   3.055
 5747WAT     H117483   9.070   0.783   2.989
 5747WAT     H217484   9.225   0.736   3.008
 5748WAT      O17485   9.540   5.555   6.314
 5748WAT     H117486   9.489   5.508   6.242
 5748WAT     H217487   9.618   5.499   6.343
 5749WAT      O17488   0.703   3.509   4.329
 5749WAT     H117489   0.648   3.589   4.308
 5749WAT     H217490   0.683   3.436   4.264
 5750WAT      O17491   2.439   4.949   3.906
 5750WAT     H117492   2.450   4.874   3.841
 5750WAT     H217493   2.342   4.973   3.913
 5751WAT      O17494   8.200   6.174   2.320
 5751WAT     H117495   8.110   6.183   2.363
 5751WAT     H217496   8.232   6.080   2.330
 5752WAT      O17497   6.291   1.332   1.310
 5752WAT     H117498   6.254   1.375   1.228
 5752WAT     H217499   6.364   1.268   1.284
 5753WAT      O17500   4.181   4.875  -0.000
 5753WAT     H117501   4.243   4.823   0.058
 5753WAT     H217502   4.088   4.840   0.010
 5754WAT      O17503   8.179   6.689   9.115
 5754WAT     H117504   8.128   6.686   9.029
 5754WAT     H217505   8.270   6.727   9.098
 5755WAT      O17506   3.090   6.285   8.631
 5755WAT     H117507   3.054   6.377   8.647
 5755WAT     H217508   3.183   6.278   8.667
 5756WAT      O17509   3.149   4.899   0.584
 5756WAT     H117510   3.164   4.945   0.672
 5756WAT     H217511   3.065   4.934   0.542
 5757WAT      O17512   6.980   0.725   4.884
 5757WAT     H117513   6.901   0.709   4.824
 5757WAT     H217514   7.054   0.662   4.860
 5758WAT      O17515   1.490   3.912   3.445
 5758WAT     H117516   1.504   3.968   3.527
 5758WAT     H217517   1.569   3.922   3.384
 5759WAT      O17518   3.746   8.577   8.709
 5759WAT     H117519   3.736   8.603   8.805
 5759WAT     H217520   3.659   8.588   8.662
 5760WAT      O17521   0.360   8.304   5.336
 5760WAT     H117522   0.303   8.325   5.416
 5760WAT     H217523   0.301   8.272   5.261
 5761WAT      O17524   1.316   2.407   2.561
 5761WAT     H117525   1.363   2.484   2.517
 5761WAT     H217526   1.219   2.409   2.537
 5762WAT      O17527   8.975   0.004   2.520
 5762WAT     H117528   8.948   0.028   2.613
 5762WAT     H217529   8.893  -0.010   2.464
 5763WAT      O17530   7.754   8.279   0.929
 5763WAT     H117531   7.813   8.350   0.890
 5763WAT     H217532   7.808   8.195   0.942
 5764WAT      O17533   5.255   8.671   4.180
 5764WAT     H117534   5.222   8.618   4.103
 5764WAT     H217535   5.185   8.674   4.251
 5765WAT      O17536   6.061   2.310   8.587
 5765WAT     H117537   6.073   2.234   8.652
 5765WAT     H217538   6.143   2.368   8.589
 5766WAT      O17539   0.822   5.980   5.670
 5766WAT     H117540   0.903   5.978   5.611
 5766WAT     H217541   0.850   6.002   5.764
 5767WAT      O17542   9.437   8.125   2.158
 5767WAT     H117543   9.417   8.093   2.251
 5767WAT     H217544   9.516   8.187   2.161
 5768WAT      O17545   1.807   7.420   9.778
 5768WAT     H117546   1.758   7.349   9.828
 5768WAT     H217547   1.903   7.419   9.805
 5769WAT      O17548   1.045   5.985   2.231
 5769WAT     H117549   1.094   6.071   2.249
 5769WAT     H217550   0.952   5.992   2.269
 5770WAT      O17551   4.969   7.103   4.064
 5770WAT     H117552   4.919   7.035   4.010
 5770WAT     H217553   4.906   7.147   4.128
 5771WAT      O17554   2.273   7.380   7.022
 5771WAT     H117555   2.202   7.376   6.952
 5771WAT     H217556   2.279   7.292   7.069
 5772WAT      O17557   8.422   8.526   5.965
 5772WAT     H117558   8.384   8.524   5.872
 5772WAT     H217559   8.521   8.538   5.960
 5773WAT      O17560   4.421   8.048   2.901
 5773WAT     H117561   4.360   8.098   2.963
 5773WAT     H217562   4.375   8.036   2.813
 5774WAT      O17563   6.256   7.519   3.364
 5774WAT     H117564   6.280   7.609   3.326
 5774WAT     H217565   6.170   7.488   3.323
 5775WAT      O17566   4.534   0.511   5.115
 5775WAT     H117567   4.449   0.553   5.147
 5775WAT     H217568   4.516   0.418   5.085
 5776WAT      O17569   6.733   4.771   7.333
 5776WAT     H117570   6.692   4.750   7.244
 5776WAT     H217571   6.698   4.859   7.367
 5777WAT      O17572   5.682   2.158   1.900
 5777WAT     H117573   5.674   2.250   1.938
 5777WAT     H217574   5.774   2.145   1.864
 5778WAT      O17575   9.357   4.692   6.593
 5778WAT     H117576   9.358   4.596   6.564
 5778WAT     H217577   9.392   4.749   6.519
 5779WAT      O17578   4.194   4.114   2.329
 5779WAT     H117579   4.128   4.076   2.393
 5779WAT     H217580   4.173   4.211   2.313
 5780WAT      O17581   7.095   7.768   4.763
 5780WAT     H117582   7.148   7.849   4.736
 5780WAT     H217583   7.157   7.691   4.776
 5781WAT      O17584   4.142   6.450   7.719
 5781WAT     H117585   4.098   6.446   7.808
 5781WAT     H217586   4.207   6.526   7.717
 5782WAT      O17587   1.593   8.897   2.833
 5782WAT     H117588   1.650   8.832   2.783
 5782WAT     H217589   1.498   8.887   2.804
 5783WAT      O17590   7.447   4.558   7.937
 5783WAT     H117591   7.510   4.489   7.973
 5783WAT     H217592   7.370   4.570   8.000
 5784WAT      O17593   2.726   0.984   6.443
 5784WAT     H117594   2.818   1.019   6.429
 5784WAT     H217595   2.692   1.013   6.532
 5785WAT      O17596   5.735   0.289   8.669
 5785WAT     H117597   5.699   0.306   8.578
 5785WAT     H217598   5.733   0.374   8.722
 5786WAT      O17599   3.194   5.095   3.501
 5786WAT     H117600   3.177   5.026   3.431
 5786WAT     H217601   3.289   5.123   3.498
 5787WAT      O17602   4.748   6.731   8.939
 5787WAT     H117603   4.800   6.804   8.982
 5787WAT     H217604   4.747   6.744   8.840
 5788WAT      O17605   2.312   6.532   9.021
 5788WAT     H117606   2.366   6.449   9.011
 5788WAT     H217607   2.258   6.547   8.938
 5789WAT      O17608   3.915   5.556   7.458
 5789WAT     H117609   3.932   5.654   7.462
 5789WAT     H217610   3.861   5.527   7.537
 5790WAT      O17611   8.043   4.613   4.832
 5790WAT     H117612   7.950   4.594   4.801
 5790WAT     H217613   8.103   4.537   4.806
 5791WAT      O17614   9.767   2.679   2.360
 5791WAT     H117615   9.725   2.651   2.447
 5791WAT     H217616   9.738   2.616   2.288
 5792WAT      O17617   4.264   7.514   2.078
 5792WAT     H117618   4.214   7.449   2.021
 5792WAT     H217619   4.203   7.589   2.104
 5793WAT      O17620   3.007   0.066   5.635
 5793WAT     H117621   3.032   0.086   5.730
 5793WAT     H217622   3.079   0.012   5.593
 5794WAT      O17623   6.352   3.381   0.893
 5794WAT     H117624   6.290   3.376   0.971
 5794WAT     H217625   6.394   3.291   0.878
 5795WAT      O17626   4.948   6.003   3.239
 5795WAT     H117627   5.028   6.018   3.181
 5795WAT     H217628   4.963   6.045   3.328
 5796WAT      O17629   8.690   7.596   7.030
 5796WAT     H117630   8.741   7.566   6.950
 5796WAT     H217631   8.733   7.561   7.113
 5797WAT      O17632   8.794   6.756   8.867
 5797WAT     H117633   8.786   6.851   8.838
 5797WAT     H217634   8.825   6.700   8.791
 5798WAT      O17635   8.517   5.806   1.478
 5798WAT     H117636   8.559   5.715   1.474
 5798WAT     H217637   8.540   5.857   1.395
 5799WAT      O17638   4.153   7.032   9.858
 5799WAT     H117639   4.089   6.955   9.862
 5799WAT     H217640   4.117   7.108   9.912
 5800WAT      O17641   4.400   2.505   4.008
 5800WAT     H117642   4.328   2.566   3.975
 5800WAT     H217643   4.489   2.546   3.987
 5801WAT      O17644   7.985   2.242   5.512
 5801WAT     H117645   8.072   2.238   5.463
 5801WAT     H217646   7.910   2.225   5.448
 5802WAT      O17647   9.777   5.196   0.673
 5802WAT     H117648   9.752   5.217   0.578
 5802WAT     H217649   9.875   5.211   0.685
 5803WAT      O17650   0.033   9.464   6.289
 5803WAT     H117651  -0.049   9.465   6.233
 5803WAT     H217652   0.076   9.554   6.287
 5804WAT      O17653   0.396   7.550   9.800
 5804WAT     H117654   0.298   7.568   9.794
 5804WAT     H217655   0.413   7.474   9.863
 5805WAT      O17656   8.436   2.389   9.023
 5805WAT     H117657   8.411   2.386   8.926
 5805WAT     H217658   8.356   2.368   9.079
 5806WAT      O17659   8.421   6.440   0.605
 5806WAT     H117660   8.492   6.472   0.666
 5806WAT     H217661   8.437   6.475   0.512
 5807WAT      O17662   3.576   3.260   3.278
 5807WAT     H117663   3.569   3.173   3.228
 5807WAT     H217664   3.489   3.278   3.325
 5808WAT      O17665   3.321   7.479   7.956
 5808WAT     H117666   3.314   7.573   7.922
 5808WAT     H217667   3.253   7.421   7.910
 5809WAT      O17668   2.867   0.972   4.014
 5809WAT     H117669   2.850   0.953   3.917
 5809WAT     H217670   2.844   1.068   4.033
 5810WAT      O17671   4.109   0.261   3.140
 5810WAT     H117672   4.195   0.219   3.171
 5810WAT     H217673   4.115   0.283   3.043
 5811WAT      O17674   7.432   9.734   2.802
 5811WAT     H117675   7.341   9.776   2.799
 5811WAT     H217676   7.428   9.652   2.859
 5812WAT      O17677   7.613   5.127   1.469
 5812WAT     H117678   7.613   5.218   1.428
 5812WAT     H217679   7.695   5.077   1.442
 5813WAT      O17680   9.174   9.219   0.292
 5813WAT     H117681   9.175   9.183   0.199
 5813WAT     H217682   9.109   9.295   0.299
 5814WAT      O17683   0.542   9.138   5.120
 5814WAT     H117684   0.591   9.124   5.206
 5814WAT     H217685   0.608   9.153   5.046
 5815WAT      O17686   5.632   8.612   4.792
 5815WAT     H117687   5.681   8.574   4.713
 5815WAT     H217688   5.669   8.702   4.814
 5816WAT      O17689   9.441   9.238   5.809
 5816WAT     H117690   9.509   9.233   5.881
 5816WAT     H217691   9.483   9.272   5.725
 5817WAT      O17692   1.544   5.581   3.878
 5817WAT     H117693   1.477   5.508   3.873
 5817WAT     H217694   1.504   5.666   3.845
 5818WAT      O17695   9.217   5.081   7.554
 5818WAT     H117696   9.314   5.105   7.553
 5818WAT     H217697   9.170   5.134   7.624
 5819WAT      O17698   0.688   7.290   5.419
 5819WAT     H117699   0.756   7.350   5.378
 5819WAT     H217700   0.666   7.322   5.512
 5820WAT      O17701   2.885   2.262   5.571
 5820WAT     H117702   2.931   2.303   5.492
 5820WAT     H217703   2.817   2.196   5.540
 5821WAT      O17704   7.203   8.491   5.435
 5821WAT     H117705   7.243   8.472   5.524
 5821WAT     H217706   7.213   8.589   5.414
 5822WAT      O17707   1.890   9.626   3.885
 5822WAT     H117708   1.868   9.623   3.983
 5822WAT     H217709   1.985   9.655   3.874
 5823WAT      O17710   3.616   3.512   3.168
 5823WAT     H117711   3.619   3.416   3.194
 5823WAT     H217712   3.694   3.561   3.208
 5824WAT      O17713   6.307   4.818   5.018
 5824WAT     H117714   6.347   4.833   5.109
 5824WAT     H217715   6.233   4.884   5.003
 5825WAT      O17716   5.578   1.791   4.411
 5825WAT     H117717   5.579   1.772   4.509
 5825WAT     H217718   5.663   1.836   4.385
 5826WAT      O17719   0.517   7.036   0.178
 5826WAT     H117720   0.559   7.084   0.102
 5826WAT     H217721   0.420   7.057   0.182
 5827WAT      O17722   5.604   4.068   8.683
 5827WAT     H117723   5.693   4.094   8.646
 5827WAT     H217724   5.611   4.057   8.783
 5828WAT      O17725   8.198   9.552   0.929
 5828WAT     H117726   8.177   9.649   0.919
 5828WAT     H217727   8.179   9.504   0.843
 5829WAT      O17728   7.618   0.171   0.208
 5829WAT     H117729   7.602   0.079   0.172
 5829WAT     H217730   7.584   0.239   0.144
 5830WAT      O17731   9.605   3.801   3.483
 5830WAT     H117732   9.613   3.775   3.387
 5830WAT     H217733   9.696   3.811   3.522
 5831WAT      O17734   6.822   4.298   5.931
 5831WAT     H117735   6.763   4.266   6.004
 5831WAT     H217736   6.856   4.390   5.953
 5832WAT      O17737   9.142   6.019   5.326
 5832WAT     H117738   9.122   6.092   5.391
 5832WAT     H217739   9.072   5.948   5.333
 5833WAT      O17740   0.769   7.654   9.063
 5833WAT     H117741   0.822   7.569   9.068
 5833WAT     H217742   0.722   7.659   8.975
 5834WAT      O17743   0.855   5.026   2.513
 5834WAT     H117744   0.869   5.120   2.485
 5834WAT     H217745   0.779   4.986   2.461
 5835WAT      O17746   7.110   7.257   5.328
 5835WAT     H117747   7.073   7.216   5.244
 5835WAT     H217748   7.206   7.281   5.314
 5836WAT      O17749   0.094   8.468   7.844
 5836WAT     H117750   0.085   8.404   7.768
 5836WAT     H217751   0.145   8.549   7.814
 5837WAT      O17752   1.293   6.182   8.160
 5837WAT     H117753   1.319   6.088   8.141
 5837WAT     H217754   1.370   6.243   8.137
 5838WAT      O17755   1.062   9.510   2.315
 5838WAT     H117756   1.086   9.607   2.311
 5838WAT     H217757   0.992   9.496   2.385
 5839WAT      O17758   8.227   5.890   0.489
 5839WAT     H117759   8.147   5.832   0.503
 5839WAT     H217760   8.250   5.935   0.576
 5840WAT      O17761   7.808   7.339   4.164
 5840WAT     H117762   7.739   7.301   4.226
 5840WAT     H217763   7.785   7.435   4.144
 5841WAT      O17764   1.406   9.388   8.868
 5841WAT     H117765   1.426   9.486   8.873
 5841WAT     H217766   1.342   9.363   8.941
 5842WAT      O17767   8.161   3.590   8.179
 5842WAT     H117768   8.116   3.518   8.232
 5842WAT     H217769   8.217   3.646   8.240
 5843WAT      O17770   2.550   4.923   1.847
 5843WAT     H117771   2.560   5.021   1.829
 5843WAT     H217772   2.575   4.871   1.765
 5844WAT      O17773   7.986   5.129   1.185
 5844WAT     H117774   8.014   5.070   1.109
 5844WAT     H217775   7.923   5.079   1.244
 5845WAT      O17776   1.019   4.505   9.351
 5845WAT     H117777   0.967   4.469   9.429
 5845WAT     H217778   1.112   4.525   9.380
 5846WAT      O17779   9.078   7.819   6.347
 5846WAT     H117780   9.057   7.824   6.250
 5846WAT     H217781   9.161   7.765   6.360
 5847WAT      O17782   8.497   2.659   3.158
 5847WAT     H117783   8.524   2.643   3.063
 5847WAT     H217784   8.474   2.572   3.201
 5848WAT      O17785   6.098   1.137   1.419
 5848WAT     H117786   6.162   1.061   1.406
 5848WAT     H217787   6.136   1.220   1.379
 5849WAT      O17788   3.051   8.283   6.520
 5849WAT     H117789   3.124   8.241   6.573
 5849WAT     H217790   3.043   8.379   6.544
 5850WAT      O17791   3.135   8.248   2.726
 5850WAT     H117792   3.128   8.193   2.642
 5850WAT     H217793   3.097   8.339   2.709
 5851WAT      O17794   9.531   3.692   2.940
 5851WAT     H117795   9.498   3.786   2.931
 5851WAT     H217796   9.630   3.689   2.926
 5852WAT      O17797   1.993   6.596   3.901
 5852WAT     H117798   1.951   6.650   3.828
 5852WAT     H217799   2.091   6.585   3.883
 5853WAT      O17800   2.383   1.179   8.261
 5853WAT     H117801   2.434   1.258   8.294
 5853WAT     H217802   2.396   1.102   8.324
 5854WAT      O17803   4.736   3.862   0.358
 5854WAT     H117804   4.773   3.955   0.367
 5854WAT     H217805   4.785   3.813   0.286
 5855WAT      O17806   4.493   8.201   5.200
 5855WAT     H117807   4.494   8.136   5.123
 5855WAT     H217808   4.580   8.197   5.249
 5856WAT      O17809   8.231   1.441   7.526
 5856WAT     H117810   8.264   1.464   7.435
 5856WAT     H217811   8.270   1.504   7.593
 5857WAT      O17812   7.963   3.655   7.753
 5857WAT     H117813   7.971   3.595   7.832
 5857WAT     H217814   8.051   3.700   7.737
 5858WAT      O17815   1.429   4.724   4.297
 5858WAT     H117816   1.397   4.738   4.203
 5858WAT     H217817   1.369   4.772   4.360
 5859WAT      O17818   3.629   4.363   1.653
 5859WAT     H117819   3.629   4.276   1.603
 5859WAT     H217820   3.720   4.381   1.689
 5860WAT      O17821   8.312   5.413   4.336
 5860WAT     H117822   8.410   5.408   4.350
 5860WAT     H217823   8.274   5.321   4.329
 5861WAT      O17824   8.173   4.410   9.472
 5861WAT     H117825   8.258   4.385   9.518
 5861WAT     H217826   8.193   4.475   9.398
 5862WAT      O17827   9.296   9.128   4.486
 5862WAT     H117828   9.233   9.051   4.481
 5862WAT     H217829   9.377   9.109   4.430
 5863WAT      O17830   6.798   8.649   3.507
 5863WAT     H117831   6.811   8.713   3.431
 5863WAT     H217832   6.729   8.685   3.570
 5864WAT      O17833   1.789   5.468   7.128
 5864WAT     H117834   1.715   5.403   7.146
 5864WAT     H217835   1.832   5.445   7.041
 5865WAT      O17836   4.346   0.086   9.456
 5865WAT     H117837   4.312   0.139   9.378
 5865WAT     H217838   4.446   0.080   9.451
 5866WAT      O17839   1.812   3.326   5.005
 5866WAT     H117840   1.829   3.320   5.103
 5866WAT     H217841   1.882   3.384   4.963
 5867WAT      O17842   9.015   8.975   5.876
 5867WAT     H117843   8.997   8.990   5.779
 5867WAT     H217844   9.105   9.013   5.899
 5868WAT      O17845   2.806   4.144   9.438
 5868WAT     H117846   2.845   4.199   9.365
 5868WAT     H217847   2.781   4.202   9.515
 5869WAT      O17848   9.098   1.437   3.043
 5869WAT     H117849   9.032   1.383   2.991
 5869WAT     H217850   9.189   1.427   3.003
 5870WAT      O17851   1.920   6.631   5.203
 5870WAT     H117852   1.901   6.590   5.292
 5870WAT     H217853   1.922   6.730   5.211
 5871WAT      O17854   1.323   9.750   6.887
 5871WAT     H117855   1.371   9.717   6.806
 5871WAT     H217856   1.269   9.831   6.864
 5872WAT      O17857   1.048   0.930   5.684
 5872WAT     H117858   1.130   0.886   5.720
 5872WAT     H217859   0.977   0.934   5.755
 5873WAT      O17860   0.215   1.962   4.853
 5873WAT     H117861   0.252   1.916   4.934
 5873WAT     H217862   0.216   1.899   4.776
 5874WAT      O17863   7.026   8.929   7.381
 5874WAT     H117864   7.102   8.993   7.368
 5874WAT     H217865   7.062   8.835   7.384
 5875WAT      O17866   6.858   6.122   5.979
 5875WAT     H117867   6.922   6.071   5.920
 5875WAT     H217868   6.909   6.189   6.033
 5876WAT      O17869   2.243   3.604   0.089
 5876WAT     H117870   2.144   3.617   0.086
 5876WAT     H217871   2.288   3.681   0.042
 5877WAT      O17872   0.799   7.561   6.416
 5877WAT     H117873   0.740   7.599   6.345
 5877WAT     H217874   0.765   7.471   6.442
 5878WAT      O17875   0.123   3.668   0.524
 5878WAT     H117876   0.066   3.586   0.533
 5878WAT     H217877   0.219   3.644   0.538
 5879WAT      O17878   0.197   0.828   6.719
 5879WAT     H117879   0.197   0.730   6.736
 5879WAT     H217880   0.154   0.847   6.631
 5880WAT      O17881   6.318   2.817   7.855
 5880WAT     H117882   6.326   2.903   7.805
 5880WAT     H217883   6.250   2.826   7.928
 5881WAT      O17884   6.604   7.425   0.760
 5881WAT     H117885   6.537   7.439   0.687
 5881WAT     H217886   6.580   7.343   0.812
 5882WAT      O17887   7.498   3.815   5.454
 5882WAT     H117888   7.426   3.749   5.474
 5882WAT     H217889   7.544   3.841   5.538
 5883WAT      O17890   6.531   4.170   4.247
 5883WAT     H117891   6.605   4.131   4.192
 5883WAT     H217892   6.568   4.197   4.336
 5884WAT      O17893   6.421   4.105   0.753
 5884WAT     H117894   6.344   4.056   0.794
 5884WAT     H217895   6.441   4.067   0.663
 5885WAT      O17896   4.451   6.291   0.730
 5885WAT     H117897   4.402   6.378   0.739
 5885WAT     H217898   4.525   6.301   0.664
 5886WAT      O17899   4.811   7.629   8.120
 5886WAT     H117900   4.783   7.708   8.174
 5886WAT     H217901   4.904   7.644   8.085
 5887WAT      O17902   1.950   2.258   1.468
 5887WAT     H117903   1.936   2.326   1.540
 5887WAT     H217904   2.024   2.288   1.408
 5888WAT      O17905   9.723   4.564   6.149
 5888WAT     H117906   9.731   4.470   6.183
 5888WAT     H217907   9.732   4.565   6.050
 5889WAT      O17908   7.371   8.071   9.378
 5889WAT     H117909   7.464   8.037   9.363
 5889WAT     H217910   7.331   8.097   9.290
 5890WAT      O17911   3.071   0.775   9.483
 5890WAT     H117912   3.083   0.713   9.561
 5890WAT     H217913   3.110   0.733   9.401
 5891WAT      O17914   6.214   1.875   9.634
 5891WAT     H117915   6.159   1.910   9.709
 5891WAT     H217916   6.159   1.813   9.578
 5892WAT      O17917   4.152   6.492   9.276
 5892WAT     H117918   4.252   6.497   9.277
 5892WAT     H217919   4.119   6.468   9.366
 5893WAT      O17920   4.387   3.944   8.118
 5893WAT     H117921   4.335   3.962   8.034
 5893WAT     H217922   4.482   3.970   8.104
 5894WAT      O17923   5.117   6.847   3.870
 5894WAT     H117924   5.214   6.821   3.865
 5894WAT     H217925   5.073   6.794   3.943
 5895WAT      O17926   0.293   0.638   8.160
 5895WAT     H117927   0.271   0.708   8.228
 5895WAT     H217928   0.232   0.648   8.081
 5896WAT      O17929   5.686   2.423   5.508
 5896WAT     H117930   5.687   2.475   5.593
 5896WAT     H217931   5.691   2.486   5.430
 5897WAT      O17932   6.651   2.964   6.120
 5897WAT     H117933   6.565   2.918   6.143
 5897WAT     H217934   6.637   3.023   6.041
 5898WAT      O17935   7.523   2.127   4.337
 5898WAT     H117936   7.483   2.197   4.279
 5898WAT     H217937   7.458   2.052   4.349
 5899WAT      O17938   8.247   0.140   5.410
 5899WAT     H117939   8.325   0.088   5.375
 5899WAT     H217940   8.213   0.201   5.339
 5900WAT      O17941   9.140   0.031   9.714
 5900WAT     H117942   9.199   0.059   9.790
 5900WAT     H217943   9.196  -0.005   9.640
 5901WAT      O17944   8.796   6.637   7.540
 5901WAT     H117945   8.891   6.667   7.539
 5901WAT     H217946   8.777   6.581   7.460
 5902WAT      O17947   0.852   2.743   1.331
 5902WAT     H117948   0.765   2.791   1.339
 5902WAT     H217949   0.890   2.725   1.422
 5903WAT      O17950   8.388   9.374   1.066
 5903WAT     H117951   8.301   9.386   1.020
 5903WAT     H217952   8.442   9.304   1.018
 5904WAT      O17953   2.289   8.498   5.967
 5904WAT     H117954   2.251   8.576   5.918
 5904WAT     H217955   2.374   8.468   5.923
 5905WAT      O17956   3.722   3.053   9.350
 5905WAT     H117957   3.754   3.122   9.286
 5905WAT     H217958   3.800   3.005   9.389
 5906WAT      O17959   8.619   8.790   3.460
 5906WAT     H117960   8.683   8.843   3.406
 5906WAT     H217961   8.640   8.800   3.557
 5907WAT      O17962   4.673   2.271   0.445
 5907WAT     H117963   4.699   2.195   0.504
 5907WAT     H217964   4.582   2.304   0.472
 5908WAT      O17965   2.087   7.838   0.022
 5908WAT     H117966   2.089   7.865   0.119
 5908WAT     H217967   2.179   7.813  -0.007
 5909WAT      O17968   7.753   3.534   4.448
 5909WAT     H117969   7.831   3.595   4.461
 5909WAT     H217970   7.763   3.486   4.360
 5910WAT      O17971   0.015   4.698   6.311
 5910WAT     H117972   0.036   4.789   6.273
 5910WAT     H217973  -0.054   4.654   6.253
 5911WAT      O17974   0.633   6.424   5.838
 5911WAT     H117975   0.728   6.394   5.829
 5911WAT     H217976   0.578   6.382   5.766
 5912WAT      O17977   3.237   9.647   4.849
 5912WAT     H117978   3.274   9.692   4.768
 5912WAT     H217979   3.267   9.552   4.851
 5913WAT      O17980   4.984   2.796   0.442
 5913WAT     H117981   4.900   2.747   0.417
 5913WAT     H217982   5.017   2.764   0.531
 5914WAT      O17983   5.835   1.172   1.518
 5914WAT     H117984   5.805   1.093   1.465
 5914WAT     H217985   5.934   1.182   1.510
 5915WAT      O17986   3.754   7.500   4.148
 5915WAT     H117987   3.789   7.419   4.101
 5915WAT     H217988   3.701   7.472   4.229
 5916WAT      O17989   7.893   8.950   9.296
 5916WAT     H117990   7.819   8.893   9.260
 5916WAT     H217991   7.857   9.008   9.369
 5917WAT      O17992   2.539   6.451   3.717
 5917WAT     H117993   2.439   6.446   3.710
 5917WAT     H217994   2.573   6.526   3.662
 5918WAT      O17995   1.175   8.011   7.244
 5918WAT     H117996   1.122   8.059   7.174
 5918WAT     H217997   1.228   7.937   7.202
 5919WAT      O17998   8.550   3.710   8.547
 5919WAT     H117999   8.647   3.687   8.545
 5919WAT     H218000   8.521   3.722   8.642
 5920WAT      O18001   4.472   2.081   0.306
 5920WAT     H118002   4.497   2.156   0.367
 5920WAT     H218003   4.457   1.998   0.359
 5921WAT      O18004   9.562   0.670   3.050
 5921WAT     H118005   9.545   0.704   2.958
 5921WAT     H218006   9.520   0.732   3.117
 5922WAT      O18007   2.777   4.582   4.336
 5922WAT     H118008   2.852   4.639   4.370
 5922WAT     H218009   2.698   4.639   4.316
 5923WAT      O18010   3.257   5.679   6.115
 5923WAT     H118011   3.205   5.742   6.172
 5923WAT     H218012   3.203   5.596   6.099
 5924WAT      O18013   7.386   4.236   1.742
 5924WAT     H118014   7.329   4.286   1.677
 5924WAT     H218015   7.474   4.213   1.699
 5925WAT      O18016   3.392   1.914   4.555
 5925WAT     H118017   3.412   1.817   4.542
 5925WAT     H218018   3.325   1.925   4.628
 5926WAT      O18019   5.101   7.835   8.817
 5926WAT     H118020   5.200   7.837   8.826
 5926WAT     H218021   5.075   7.858   8.723
 5927WAT      O18022   5.384   2.777   2.644
 5927WAT     H118023   5.296   2.753   2.602
 5927WAT     H218024   5.389   2.739   2.736
 5928WAT      O18025   5.227   4.015   3.150
 5928WAT     H118026   5.276   4.004   3.237
 5928WAT     H218027   5.156   3.945   3.143
 5929WAT      O18028   8.004   1.080   2.136
 5929WAT     H118029   7.933   1.052   2.072
 5929WAT     H218030   7.963   1.137   2.208
 5930WAT      O18031   0.616   3.563   0.107
 5930WAT     H118032   0.632   3.600   0.015
 5930WAT     H218033   0.615   3.638   0.173
 5931WAT      O18034   5.786   6.609   6.057
 5931WAT     H118035   5.722   6.592   5.982
 5931WAT     H218036   5.813   6.522   6.098
 5932WAT      O18037   2.205   6.794   8.672
 5932WAT     H118038   2.221   6.862   8.601
 5932WAT     H218039   2.117   6.750   8.657
 5933WAT      O18040   3.035   0.492   3.165
 5933WAT     H118041   3.100   0.487   3.090
 5933WAT     H218042   2.945   0.462   3.133
 5934WAT      O18043   4.624   0.592   2.389
 5934WAT     H118044   4.581   0.680   2.368
 5934WAT     H218045   4.718   0.607   2.419
 5935WAT      O18046   4.720   6.960   6.488
 5935WAT     H118047   4.678   6.976   6.578
 5935WAT     H218048   4.718   7.044   6.435
 5936WAT      O18049   7.435   9.748   0.587
 5936WAT     H118050   7.527   9.743   0.626
 5936WAT     H218051   7.434   9.700   0.499
 5937WAT      O18052   1.352   7.327   2.222
 5937WAT     H118053   1.322   7.396   2.288
 5937WAT     H218054   1.421   7.268   2.263
 5938WAT      O18055   7.966   9.225   5.030
 5938WAT     H118056   8.040   9.159   5.038
 5938WAT     H218057   7.889   9.183   4.981
 5939WAT      O18058   8.479   7.221   7.054
 5939WAT     H118059   8.424   7.139   7.042
 5939WAT     H218060   8.424   7.293   7.096
 5940WAT      O18061   0.510   5.837   5.869
 5940WAT     H118062   0.506   5.739   5.847
 5940WAT     H218063   0.488   5.849   5.966
 5941WAT      O18064   6.887   4.496   3.889
 5941WAT     H118065   6.888   4.592   3.918
 5941WAT     H218066   6.978   4.456   3.901
 5942WAT      O18067   3.012   1.560   0.308
 5942WAT     H118068   2.979   1.580   0.401
 5942WAT     H218069   3.082   1.626   0.282
 5943WAT      O18070   2.094   1.330   1.251
 5943WAT     H118071   2.023   1.397   1.232
 5943WAT     H218072   2.096   1.310   1.349
 5944WAT      O18073   4.096   6.190   9.392
 5944WAT     H118074   4.092   6.270   9.451
 5944WAT     H218075   4.178   6.196   9.334
 5945WAT      O18076   9.377   4.003   9.707
 5945WAT     H118077   9.425   4.048   9.782
 5945WAT     H218078   9.323   4.071   9.657
 5946WAT      O18079   6.340   8.453   9.492
 5946WAT     H118080   6.286   8.385   9.442
 5946WAT     H218081   6.417   8.409   9.537
 5947WAT      O18082   3.257   8.602   1.617
 5947WAT     H118083   3.222   8.675   1.676
 5947WAT     H218084   3.197   8.592   1.537
 5948WAT      O18085   8.387   5.689   1.178
 5948WAT     H118086   8.327   5.703   1.099
 5948WAT     H218087   8.437   5.603   1.167
 5949WAT      O18088   7.304   6.292   9.507
 5949WAT     H118089   7.332   6.196   9.504
 5949WAT     H218090   7.368   6.347   9.453
 5950WAT      O18091   7.481   6.496   1.265
 5950WAT     H118092   7.551   6.563   1.287
 5950WAT     H218093   7.401   6.512   1.323
 5951WAT      O18094   2.805   9.235   5.440
 5951WAT     H118095   2.765   9.322   5.468
 5951WAT     H218096   2.857   9.196   5.516
 5952WAT      O18097   4.764   5.610   3.751
 5952WAT     H118098   4.796   5.652   3.836
 5952WAT     H218099   4.780   5.673   3.675
 5953WAT      O18100   9.030   4.683   0.969
 5953WAT     H118101   9.061   4.729   0.885
 5953WAT     H218102   9.109   4.666   1.027
 5954WAT      O18103   0.138   8.769   7.523
 5954WAT     H118104   0.233   8.744   7.502
 5954WAT     H218105   0.131   8.800   7.617
 5955WAT      O18106   6.931   8.290   4.031
 5955WAT     H118107   6.878   8.227   4.088
 5955WAT     H218108   6.929   8.381   4.071
 5956WAT      O18109   3.697   2.394   9.566
 5956WAT     H118110   3.641   2.336   9.506
 5956WAT     H218111   3.643   2.420   9.646
 5957WAT      O18112   3.971   4.480   3.053
 5957WAT     H118113   4.005   4.567   3.018
 5957WAT     H218114   3.962   4.485   3.153
 5958WAT      O18115   9.302   7.383   2.576
 5958WAT     H118116   9.331   7.426   2.491
 5958WAT     H218117   9.274   7.289   2.558
 5959WAT      O18118   0.465   4.873   0.470
 5959WAT     H118119   0.390   4.807   0.467
 5959WAT     H218120   0.459   4.929   0.553
 5960WAT      O18121   4.087   0.988   7.462
 5960WAT     H118122   4.131   1.015   7.376
 5960WAT     H218123   4.155   0.981   7.534
 5961WAT      O18124   3.822   2.254   5.350
 5961WAT     H118125   3.866   2.334   5.307
 5961WAT     H218126   3.893   2.189   5.377
 5962WAT      O18127   1.008   2.001   5.250
 5962WAT     H118128   0.941   1.928   5.233
 5962WAT     H218129   0.961   2.085   5.274
 5963WAT      O18130   8.588   4.174   2.136
 5963WAT     H118131   8.568   4.187   2.039
 5963WAT     H218132   8.509   4.203   2.190
 5964WAT      O18133   7.328   0.245   5.185
 5964WAT     H118134   7.234   0.270   5.208
 5964WAT     H218135   7.354   0.288   5.099
 5965WAT      O18136   2.963   2.341   0.558
 5965WAT     H118137   2.951   2.244   0.535
 5965WAT     H218138   3.002   2.348   0.650
 5966WAT      O18139   4.951   8.073   6.817
 5966WAT     H118140   4.921   8.162   6.851
 5966WAT     H218141   4.981   8.016   6.894
 5967WAT      O18142   7.134   6.283   4.553
 5967WAT     H118143   7.210   6.249   4.498
 5967WAT     H218144   7.133   6.234   4.641
 5968WAT      O18145   0.065   0.044   3.029
 5968WAT     H118146   0.043  -0.001   2.943
 5968WAT     H218147   0.014   0.130   3.036
 5969WAT      O18148   4.417   4.085   3.679
 5969WAT     H118149   4.470   4.099   3.762
 5969WAT     H218150   4.444   3.998   3.636
 5970WAT      O18151   4.120   2.299   1.871
 5970WAT     H118152   4.113   2.210   1.826
 5970WAT     H218153   4.042   2.356   1.843
 5971WAT      O18154   5.161   7.727   4.014
 5971WAT     H118155   5.212   7.747   3.930
 5971WAT     H218156   5.064   7.739   3.997
 5972WAT      O18157   9.747   2.517   4.117
 5972WAT     H118158   9.772   2.538   4.211
 5972WAT     H218159   9.695   2.594   4.078
 5973WAT      O18160   9.708   4.049   8.576
 5973WAT     H118161   9.737   4.085   8.665
 5973WAT     H218162   9.738   4.112   8.504
 5974WAT      O18163   0.895   7.247   2.310
 5974WAT     H118164   0.948   7.303   2.246
 5974WAT     H218165   0.949   7.166   2.336
 5975WAT      O18166   8.212   2.574   1.154
 5975WAT     H118167   8.241   2.625   1.234
 5975WAT     H218168   8.145   2.627   1.102
 5976WAT      O18169   0.237   4.804   7.057
 5976WAT     H118170   0.178   4.884   7.051
 5976WAT     H218171   0.180   4.721   7.055
 5977WAT      O18172   7.360   6.706   2.004
 5977WAT     H118173   7.286   6.766   1.974
 5977WAT     H218174   7.445   6.731   1.956
 5978WAT      O18175   4.012   6.465   7.975
 5978WAT     H118176   3.993   6.416   8.060
 5978WAT     H218177   3.979   6.559   7.982
 5979WAT      O18178   6.983   6.934   6.090
 5979WAT     H118179   6.888   6.903   6.079
 5979WAT     H218180   6.988   7.032   6.071
 5980WAT      O18181   8.074   1.160   3.611
 5980WAT     H118182   8.010   1.127   3.541
 5980WAT     H218183   8.134   1.229   3.572
 5981WAT      O18184   9.455   2.826   7.841
 5981WAT     H118185   9.358   2.834   7.867
 5981WAT     H218186   9.473   2.888   7.764
 5982WAT      O18187   1.444   8.611   8.748
 5982WAT     H118188   1.416   8.645   8.838
 5982WAT     H218189   1.367   8.620   8.684
 5983WAT      O18190   3.821   4.899   3.245
 5983WAT     H118191   3.818   4.806   3.207
 5983WAT     H218192   3.773   4.899   3.333
 5984WAT      O18193   2.662   5.297   1.178
 5984WAT     H118194   2.605   5.366   1.133
 5984WAT     H218195   2.609   5.214   1.192
 5985WAT      O18196   7.538   5.182   3.928
 5985WAT     H118197   7.638   5.174   3.924
 5985WAT     H218198   7.504   5.136   4.010
 5986WAT      O18199   7.882   1.742   6.043
 5986WAT     H118200   7.954   1.768   5.979
 5986WAT     H218201   7.903   1.779   6.134
 5987WAT      O18202   9.426   4.203   8.792
 5987WAT     H118203   9.426   4.109   8.827
 5987WAT     H218204   9.475   4.262   8.856
 5988WAT      O18205   1.321   3.481   7.895
 5988WAT     H118206   1.338   3.384   7.877
 5988WAT     H218207   1.402   3.521   7.938
 5989WAT      O18208   3.966   5.831   3.711
 5989WAT     H118209   3.952   5.868   3.803
 5989WAT     H218210   4.036   5.885   3.664
 5990WAT      O18211   9.636   9.665   6.745
 5990WAT     H118212   9.571   9.594   6.716
 5990WAT     H218213   9.729   9.630   6.736
 5991WAT      O18214   1.148   7.556   3.691
 5991WAT     H118215   1.220   7.513   3.746
 5991WAT     H218216   1.179   7.564   3.596
 5992WAT      O18217   2.346   2.613   7.643
 5992WAT     H118218   2.270   2.632   7.706
 5992WAT     H218219   2.384   2.700   7.610
 5993WAT      O18220   0.827   3.351   8.470
 5993WAT     H118221   0.855   3.301   8.387
 5993WAT     H218222   0.734   3.387   8.456
 5994WAT      O18223   6.880   5.338   1.511
 5994WAT     H118224   6.891   5.274   1.587
 5994WAT     H218225   6.783   5.361   1.500
 5995WAT      O18226   2.403   0.717   6.287
 5995WAT     H118227   2.384   0.813   6.267
 5995WAT     H218228   2.333   0.681   6.349
 5996WAT      O18229   0.342   9.713   2.289
 5996WAT     H118230   0.372   9.627   2.329
 5996WAT     H218231   0.262   9.698   2.232
 5997WAT      O18232   3.474   2.836   1.445
 5997WAT     H118233   3.411   2.856   1.520
 5997WAT     H218234   3.527   2.754   1.467
 5998WAT      O18235   5.666   9.618   1.459
 5998WAT     H118236   5.604   9.639   1.383
 5998WAT     H218237   5.760   9.621   1.426
 5999WAT      O18238   4.560   5.223   0.133
 5999WAT     H118239   4.495   5.178   0.195
 5999WAT     H218240   4.584   5.312   0.169
 6000WAT      O18241   8.788   8.379   6.794
 6000WAT     H118242   8.766   8.476   6.804
 6000WAT     H218243   8.708   8.330   6.760
 6001WAT      O18244   4.982   4.385   8.960
 6001WAT     H118245   4.933   4.317   9.013
 6001WAT     H218246   4.984   4.472   9.010
 6002WAT      O18247   8.047   5.492   8.067
 6002WAT     H118248   8.081   5.558   7.999
 6002WAT     H218249   8.079   5.401   8.043
 6003WAT      O18250   1.690   4.355   2.604
 6003WAT     H118251   1.657   4.262   2.624
 6003WAT     H218252   1.790   4.356   2.604
 6004WAT      O18253   1.051   2.411   2.497
 6004WAT     H118254   1.008   2.491   2.539
 6004WAT     H218255   0.987   2.367   2.435
 6005WAT      O18256   5.171   6.828   5.080
 6005WAT     H118257   5.160   6.834   5.179
 6005WAT     H218258   5.261   6.788   5.059
 6006WAT      O18259   7.141   4.037   1.832
 6006WAT     H118260   7.236   4.042   1.801
 6006WAT     H218261   7.135   3.976   1.910
 6007WAT      O18262   2.990   5.686   7.922
 6007WAT     H118263   2.954   5.674   8.015
 6007WAT     H218264   3.038   5.602   7.894
 6008WAT      O18265   0.602   4.861   5.188
 6008WAT     H118266   0.672   4.794   5.164
 6008WAT     H218267   0.531   4.862   5.118
 6009WAT      O18268   2.628   9.792   2.002
 6009WAT     H118269   2.725   9.768   2.012
 6009WAT     H218270   2.600   9.846   2.081
 6010WAT      O18271   2.461   9.077   6.370
 6010WAT     H118272   2.420   9.109   6.456
 6010WAT     H218273   2.489   8.982   6.381
 6011WAT      O18274   1.749   8.107   8.710
 6011WAT     H118275   1.688   8.127   8.787
 6011WAT     H218276   1.780   8.192   8.669
 6012WAT      O18277   4.061   6.724   5.945
 6012WAT     H118278   4.105   6.813   5.929
 6012WAT     H218279   4.103   6.681   6.025
 6013WAT      O18280   2.477   6.348   5.177
 6013WAT     H118281   2.469   6.444   5.206
 6013WAT     H218282   2.388   6.304   5.184
 6014WAT      O18283   6.009   2.574   9.121
 6014WAT     H118284   5.965   2.642   9.063
 6014WAT     H218285   5.973   2.581   9.214
 6015WAT      O18286   1.864   5.492   3.619
 6015WAT     H118287   1.809   5.572   3.645
 6015WAT     H218288   1.938   5.520   3.559
 6016WAT      O18289   5.176   2.886   9.172
 6016WAT     H118290   5.246   2.876   9.102
 6016WAT     H218291   5.105   2.816   9.159
 6017WAT      O18292   9.350   5.264   0.567
 6017WAT     H118293   9.388   5.183   0.611
 6017WAT     H218294   9.256   5.246   0.539
 6018WAT      O18295   5.535   6.198   2.291
 6018WAT     H118296   5.552   6.134   2.216
 6018WAT     H218297   5.611   6.263   2.296
 6019WAT      O18298   0.955   3.546   0.885
 6019WAT     H118299   0.891   3.614   0.919
 6019WAT     H218300   0.977   3.481   0.957
 6020WAT      O18301   6.904   3.507   0.278
 6020WAT     H118302   6.848   3.424   0.275
 6020WAT     H218303   6.885   3.562   0.197
 6021WAT      O18304   4.114   6.292   5.669
 6021WAT     H118305   4.154   6.272   5.759
 6021WAT     H218306   4.072   6.383   5.671
 6022WAT      O18307   6.381   8.555   4.279
 6022WAT     H118308   6.468   8.571   4.232
 6022WAT     H218309   6.369   8.458   4.296
 6023WAT      O18310   3.197   2.762   7.321
 6023WAT     H118311   3.240   2.849   7.298
 6023WAT     H218312   3.262   2.687   7.305
 6024WAT      O18313   5.569   3.224   6.459
 6024WAT     H118314   5.522   3.282   6.393
 6024WAT     H218315   5.667   3.226   6.443
 6025WAT      O18316   6.986   6.250   4.103
 6025WAT     H118317   7.037   6.170   4.135
 6025WAT     H218318   6.914   6.272   4.168
 6026WAT      O18319   6.390   8.370   3.528
 6026WAT     H118320   6.387   8.470   3.537
 6026WAT     H218321   6.297   8.334   3.520
 6027WAT      O18322   9.347   3.518   1.452
 6027WAT     H118323   9.347   3.570   1.537
 6027WAT     H218324   9.433   3.468   1.443
 6028WAT      O18325   7.174   6.125   0.899
 6028WAT     H118326   7.254   6.182   0.880
 6028WAT     H218327   7.094   6.182   0.910
 6029WAT      O18328   1.825   3.355   5.284
 6029WAT     H118329   1.829   3.433   5.347
 6029WAT     H218330   1.850   3.271   5.333
 6030WAT      O18331   7.411   4.366   6.557
 6030WAT     H118332   7.352   4.292   6.589
 6030WAT     H218333   7.485   4.380   6.624
 6031WAT      O18334   5.884   4.418   3.465
 6031WAT     H118335   5.976   4.382   3.448
 6031WAT     H218336   5.859   4.482   3.393
 6032WAT      O18337   7.917   7.802   0.664
 6032WAT     H118338   7.850   7.847   0.605
 6032WAT     H218339   7.958   7.869   0.725
 6033WAT      O18340   2.260   6.972   5.439
 6033WAT     H118341   2.342   7.023   5.412
 6033WAT     H218342   2.188   7.037   5.464
 6034WAT      O18343   0.937   3.429   2.834
 6034WAT     H118344   0.883   3.479   2.902
 6034WAT     H218345   0.884   3.350   2.801
 6035WAT      O18346   9.393   4.550   0.871
 6035WAT     H118347   9.488   4.573   0.892
 6035WAT     H218348   9.359   4.485   0.939
 6036WAT      O18349   0.946   7.664   1.045
 6036WAT     H118350   0.905   7.580   1.081
 6036WAT     H218351   0.933   7.738   1.112
 6037WAT      O18352   2.638   7.451   2.249
 6037WAT     H118353   2.561   7.432   2.188
 6037WAT     H218354   2.718   7.400   2.219
 6038WAT      O18355   3.209   7.796   4.317
 6038WAT     H118356   3.294   7.746   4.300
 6038WAT     H218357   3.158   7.806   4.232
 6039WAT      O18358   6.739   1.420   4.316
 6039WAT     H118359   6.695   1.493   4.264
 6039WAT     H218360   6.761   1.454   4.408
 6040WAT      O18361   2.505   0.264   4.978
 6040WAT     H118362   2.501   0.342   5.040
 6040WAT     H218363   2.531   0.295   4.886
 6041WAT      O18364   8.364   9.027   1.045
 6041WAT     H118365   8.439   9.049   0.982
 6041WAT     H218366   8.370   9.084   1.127
 6042WAT      O18367   8.216   6.923   2.641
 6042WAT     H118368   8.163   6.999   2.604
 6042WAT     H218369   8.281   6.957   2.709
 6043WAT      O18370   7.127   8.087   0.308
 6043WAT     H118371   7.169   8.116   0.222
 6043WAT     H218372   7.032   8.061   0.292
 6044WAT      O18373   2.330   9.234   4.343
 6044WAT     H118374   2.376   9.146   4.352
 6044WAT     H218375   2.378   9.290   4.276
 6045WAT      O18376   1.964   2.910   3.208
 6045WAT     H118377   1.941   2.816   3.234
 6045WAT     H218378   2.047   2.910   3.152
 6046WAT      O18379   1.433   3.708   9.616
 6046WAT     H118380   1.506   3.762   9.657
 6046WAT     H218381   1.349   3.721   9.668
 6047WAT      O18382   4.984   6.917   1.843
 6047WAT     H118383   5.030   7.003   1.824
 6047WAT     H218384   5.025   6.844   1.788
 6048WAT      O18385   7.219   7.171   6.414
 6048WAT     H118386   7.134   7.118   6.419
 6048WAT     H218387   7.210   7.255   6.467
 6049WAT      O18388   3.946   6.180   6.248
 6049WAT     H118389   3.998   6.241   6.187
 6049WAT     H218390   3.852   6.212   6.254
 6050WAT      O18391   3.612   0.315   0.396
 6050WAT     H118392   3.532   0.287   0.342
 6050WAT     H218393   3.638   0.241   0.458
 6051WAT      O18394   5.202   8.562   4.942
 6051WAT     H118395   5.272   8.523   4.883
 6051WAT     H218396   5.165   8.491   5.002
 6052WAT      O18397   9.234   8.702   3.666
 6052WAT     H118398   9.136   8.685   3.661
 6052WAT     H218399   9.281   8.619   3.695
 6053WAT      O18400   6.640   1.105   5.856
 6053WAT     H118401   6.642   1.188   5.912
 6053WAT     H218402   6.729   1.091   5.814
 6054WAT      O18403   6.761   4.913   9.327
 6054WAT     H118404   6.733   4.818   9.318
 6054WAT     H218405   6.860   4.918   9.337
 6055WAT      O18406   3.190   9.038   2.940
 6055WAT     H118407   3.105   8.995   2.970
 6055WAT     H218408   3.244   8.972   2.887
 6056WAT      O18409   3.510   5.985   6.313
 6056WAT     H118410   3.534   5.891   6.286
 6056WAT     H218411   3.593   6.033   6.342
 6057WAT      O18412   6.261   6.488   2.200
 6057WAT     H118413   6.173   6.521   2.235
 6057WAT     H218414   6.305   6.433   2.270
 6058WAT      O18415   5.022   6.515   9.433
 6058WAT     H118416   5.103   6.556   9.475
 6058WAT     H218417   4.958   6.486   9.504
 6059WAT      O18418   7.151   6.448   3.973
 6059WAT     H118419   7.097   6.365   3.989
 6059WAT     H218420   7.096   6.515   3.924
 6060WAT      O18421   7.967   3.517   2.701
 6060WAT     H118422   7.968   3.440   2.637
 6060WAT     H218423   7.899   3.501   2.772
 6061WAT      O18424   3.732   1.109   3.355
 6061WAT     H118425   3.723   1.060   3.442
 6061WAT     H218426   3.827   1.101   3.323
 6062WAT      O18427   2.545   0.330   9.016
 6062WAT     H118428   2.571   0.236   8.993
 6062WAT     H218429   2.503   0.332   9.106
 6063WAT      O18430   2.951   6.774   5.610
 6063WAT     H118431   2.903   6.701   5.561
 6063WAT     H218432   3.018   6.817   5.549
 6064WAT      O18433   2.122   1.426   3.144
 6064WAT     H118434   2.137   1.471   3.056
 6064WAT     H218435   2.091   1.332   3.129
 6065WAT      O18436   3.006   6.320   6.444
 6065WAT     H118437   2.992   6.397   6.381
 6065WAT     H218438   3.023   6.356   6.536
 6066WAT      O18439   1.827   1.425   6.671
 6066WAT     H118440   1.827   1.326   6.687
 6066WAT     H218441   1.904   1.466   6.719
 6067WAT      O18442   4.957   5.528   9.140
 6067WAT     H118443   4.888   5.488   9.080
 6067WAT     H218444   4.946   5.627   9.142
 6068WAT      O18445   1.135   9.388   3.457
 6068WAT     H118446   1.069   9.456   3.424
 6068WAT     H218447   1.139   9.312   3.391
 6069WAT      O18448   6.729   5.732   6.108
 6069WAT     H118449   6.652   5.743   6.045
 6069WAT     H218450   6.742   5.816   6.160
 6070WAT      O18451   7.115   5.420   3.271
 6070WAT     H118452   7.211   5.392   3.281
 6070WAT     H218453   7.102   5.509   3.317
 6071WAT      O18454   1.291   9.046   2.349
 6071WAT     H118455   1.308   9.082   2.258
 6071WAT     H218456   1.226   8.970   2.343
 6072WAT      O18457   8.381   3.750   1.454
 6072WAT     H118458   8.382   3.841   1.414
 6072WAT     H218459   8.318   3.750   1.532
 6073WAT      O18460   0.474   8.498   3.378
 6073WAT     H118461   0.409   8.487   3.303
 6073WAT     H218462   0.429   8.477   3.465
 6074WAT      O18463   2.550   0.617   3.634
 6074WAT     H118464   2.565   0.518   3.643
 6074WAT     H218465   2.476   0.633   3.568
 6075WAT      O18466   3.540   3.480   8.984
 6075WAT     H118467   3.506   3.493   8.891
 6075WAT     H218468   3.604   3.403   8.985
 6076WAT      O18469   1.801   8.112   6.941
 6076WAT     H118470   1.860   8.044   6.897
 6076WAT     H218471   1.725   8.065   6.986
 6077WAT      O18472   2.745   7.056   2.360
 6077WAT     H118473   2.710   7.050   2.453
 6077WAT     H218474   2.828   7.112   2.360
 6078WAT      O18475   2.145   0.276   5.493
 6078WAT     H118476   2.090   0.198   5.524
 6078WAT     H218477   2.104   0.361   5.526
 6079WAT      O18478   6.822   3.783   1.772
 6079WAT     H118479   6.822   3.716   1.847
 6079WAT     H218480   6.788   3.739   1.689
 6080WAT      O18481   6.462   8.838   3.085
 6080WAT     H118482   6.487   8.849   3.182
 6080WAT     H218483   6.415   8.920   3.053
 6081WAT      O18484   7.844   2.964   3.887
 6081WAT     H118485   7.887   2.880   3.854
 6081WAT     H218486   7.799   3.010   3.811
 6082WAT      O18487   1.078   2.981   8.580
 6082WAT     H118488   1.014   2.965   8.505
 6082WAT     H218489   1.029   3.026   8.656
 6083WAT      O18490   0.353   6.490   6.107
 6083WAT     H118491   0.445   6.463   6.136
 6083WAT     H218492   0.321   6.426   6.037
 6084WAT      O18493   3.364   2.389   9.235
 6084WAT     H118494   3.293   2.370   9.303
 6084WAT     H218495   3.405   2.479   9.254
 6085WAT      O18496   8.621   9.792   0.591
 6085WAT     H118497   8.706   9.757   0.552
 6085WAT     H218498   8.623   9.892   0.591
 6086WAT      O18499   1.091   8.778   6.582
 6086WAT     H118500   1.063   8.688   6.548
 6086WAT     H218501   1.160   8.767   6.654
 6087WAT      O18502   0.844   1.840   4.108
 6087WAT     H118503   0.779   1.916   4.108
 6087WAT     H218504   0.841   1.793   4.196
 6088WAT      O18505   9.475   0.857   9.431
 6088WAT     H118506   9.454   0.949   9.400
 6088WAT     H218507   9.559   0.825   9.388
 6089WAT      O18508   6.732   7.391   6.720
 6089WAT     H118509   6.744   7.478   6.671
 6089WAT     H218510   6.634   7.377   6.737
 6090WAT      O18511   5.169   6.532   0.582
 6090WAT     H118512   5.154   6.474   0.501
 6090WAT     H218513   5.097   6.601   0.588
 6091WAT      O18514   1.722   1.709   7.900
 6091WAT     H118515   1.757   1.619   7.876
 6091WAT     H218516   1.637   1.700   7.952
 6092WAT      O18517   6.594   6.859   5.778
 6092WAT     H118518   6.643   6.852   5.691
 6092WAT     H218519   6.563   6.953   5.791
 6093WAT      O18520   4.267   6.652   3.402
 6093WAT     H118521   4.247   6.682   3.495
 6093WAT     H218522   4.182   6.633   3.354
 6094WAT      O18523   5.899   2.954   5.277
 6094WAT     H118524   5.807   2.992   5.275
 6094WAT     H218525   5.924   2.931   5.371
 6095WAT      O18526   1.147   1.067   4.007
 6095WAT     H118527   1.116   1.091   4.099
 6095WAT     H218528   1.097   0.985   3.975
 6096WAT      O18529   1.517   3.307   8.714
 6096WAT     H118530   1.518   3.216   8.672
 6096WAT     H218531   1.423   3.329   8.741
 6097WAT      O18532   5.413   6.727   0.196
 6097WAT     H118533   5.411   6.827   0.195
 6097WAT     H218534   5.505   6.695   0.175
 6098WAT      O18535   9.150   9.694   8.275
 6098WAT     H118536   9.099   9.717   8.192
 6098WAT     H218537   9.225   9.759   8.287
 6099WAT      O18538   3.585   3.069   0.990
 6099WAT     H118539   3.515   3.036   0.928
 6099WAT     H218540   3.673   3.028   0.966
 6100WAT      O18541   0.497   2.742   4.787
 6100WAT     H118542   0.430   2.807   4.823
 6100WAT     H218543   0.517   2.673   4.857
 6101WAT      O18544   0.984   0.685   4.710
 6101WAT     H118545   0.990   0.652   4.804
 6101WAT     H218546   1.054   0.756   4.695
 6102WAT      O18547   7.755   6.326   0.450
 6102WAT     H118548   7.774   6.364   0.359
 6102WAT     H218549   7.822   6.255   0.471
 6103WAT      O18550   4.541   2.589   8.141
 6103WAT     H118551   4.492   2.620   8.060
 6103WAT     H218552   4.542   2.489   8.144
 6104WAT      O18553   2.668   3.107   8.018
 6104WAT     H118554   2.575   3.138   8.037
 6104WAT     H218555   2.680   3.014   8.052
 6105WAT      O18556   6.001   1.526   2.309
 6105WAT     H118557   5.977   1.444   2.361
 6105WAT     H218558   5.957   1.605   2.350
 6106WAT      O18559   8.512   3.436   4.953
 6106WAT     H118560   8.547   3.492   4.877
 6106WAT     H218561   8.452   3.491   5.010
 6107WAT      O18562   6.378   7.718   8.496
 6107WAT     H118563   6.395   7.628   8.454
 6107WAT     H218564   6.465   7.767   8.506
 6108WAT      O18565   4.857   7.104   7.616
 6108WAT     H118566   4.807   7.186   7.586
 6108WAT     H218567   4.876   7.046   7.537
 6109WAT      O18568   9.166   8.690   4.162
 6109WAT     H118569   9.235   8.761   4.145
 6109WAT     H218570   9.156   8.632   4.081
 6110WAT      O18571   9.608   3.251   0.605
 6110WAT     H118572   9.532   3.311   0.628
 6110WAT     H218573   9.615   3.178   0.674
 6111WAT      O18574   5.969   3.364   2.748
 6111WAT     H118575   5.972   3.293   2.678
 6111WAT     H218576   6.034   3.436   2.725
 6112WAT      O18577   0.765   2.172   9.098
 6112WAT     H118578   0.826   2.177   9.019
 6112WAT     H218579   0.785   2.090   9.151
 6113WAT      O18580   8.791   5.062   9.747
 6113WAT     H118581   8.837   5.034   9.831
 6113WAT     H218582   8.820   5.155   9.724
 6114WAT      O18583   8.845   0.037   6.275
 6114WAT     H118584   8.804   0.047   6.184
 6114WAT     H218585   8.944   0.038   6.267
 6115WAT      O18586   6.613   0.511   9.701
 6115WAT     H118587   6.544   0.452   9.660
 6115WAT     H218588   6.645   0.471   9.787
 6116WAT      O18589   6.409   1.754   3.144
 6116WAT     H118590   6.410   1.807   3.229
 6116WAT     H218591   6.321   1.707   3.135
 6117WAT      O18592   9.196   5.105   6.819
 6117WAT     H118593   9.128   5.092   6.747
 6117WAT     H218594   9.185   5.196   6.859
 6118WAT      O18595   9.875   0.588   1.458
 6118WAT     H118596   9.866   0.623   1.364
 6118WAT     H218597   9.789   0.544   1.485
 6119WAT      O18598   9.505   1.371   4.343
 6119WAT     H118599   9.411   1.405   4.338
 6119WAT     H218600   9.567   1.438   4.301
 6120WAT      O18601   5.445   1.589   1.802
 6120WAT     H118602   5.396   1.667   1.842
 6120WAT     H218603   5.534   1.580   1.845
 6121WAT      O18604   0.488   8.102   5.534
 6121WAT     H118605   0.436   8.135   5.455
 6121WAT     H218606   0.584   8.089   5.508
 6122WAT      O18607   8.148   7.789   6.404
 6122WAT     H118608   8.145   7.852   6.482
 6122WAT     H218609   8.149   7.841   6.319
 6123WAT      O18610   1.908   0.588   8.252
 6123WAT     H118611   1.916   0.526   8.330
 6123WAT     H218612   1.886   0.680   8.285
 6124WAT      O18613   9.175   0.191   7.648
 6124WAT     H118614   9.126   0.106   7.669
 6124WAT     H218615   9.108   0.263   7.627
 6125WAT      O18616   9.157   8.695   2.028
 6125WAT     H118617   9.068   8.731   2.056
 6125WAT     H218618   9.230   8.752   2.067
 6126WAT      O18619   2.583   9.104   8.210
 6126WAT     H118620   2.545   9.195   8.190
 6126WAT     H218621   2.563   9.043   8.134
 6127WAT      O18622   9.028   7.091   4.197
 6127WAT     H118623   8.959   7.141   4.145
 6127WAT     H218624   9.083   7.035   4.135
 6128WAT      O18625   9.381   4.835   4.316
 6128WAT     H118626   9.282   4.842   4.329
 6128WAT     H218627   9.416   4.757   4.368
 6129WAT      O18628   3.080   1.680   5.387
 6129WAT     H118629   3.153   1.696   5.453
 6129WAT     H218630   3.119   1.660   5.297
 6130WAT      O18631   3.296   9.055   8.941
 6130WAT     H118632   3.309   9.134   9.001
 6130WAT     H218633   3.376   8.994   8.948
 6131WAT      O18634   6.400   4.291   8.972
 6131WAT     H118635   6.449   4.350   9.036
 6131WAT     H218636   6.336   4.346   8.918
 6132WAT      O18637   9.807   0.415   2.563
 6132WAT     H118638   9.882   0.359   2.597
 6132WAT     H218639   9.821   0.510   2.592
 6133WAT      O18640   0.914   5.126   5.234
 6133WAT     H118641   0.867   5.212   5.214
 6133WAT     H218642   0.940   5.081   5.149
 6134WAT      O18643   8.009   9.765   4.715
 6134WAT     H118644   8.060   9.749   4.799
 6134WAT     H218645   8.028   9.691   4.650
 6135WAT      O18646   4.155   5.668   2.705
 6135WAT     H118647   4.193   5.643   2.794
 6135WAT     H218648   4.190   5.758   2.678
 6136WAT      O18649   0.520   5.170   7.502
 6136WAT     H118650   0.568   5.170   7.414
 6136WAT     H218651   0.474   5.259   7.514
 6137WAT      O18652   1.721   1.292   5.158
 6137WAT     H118653   1.652   1.219   5.166
 6137WAT     H218654   1.775   1.278   5.076
 6138WAT      O18655   7.670   9.113   2.963
 6138WAT     H118656   7.734   9.075   3.029
 6138WAT     H218657   7.584   9.062   2.967
 6139WAT      O18658   0.816   3.625   7.984
 6139WAT     H118659   0.902   3.608   7.937
 6139WAT     H218660   0.791   3.722   7.975
 6140WAT      O18661   3.444   7.179   9.825
 6140WAT     H118662   3.483   7.225   9.905
 6140WAT     H218663   3.400   7.093   9.855
 6141WAT      O18664   1.236   8.235   5.571
 6141WAT     H118665   1.257   8.143   5.603
 6141WAT     H218666   1.158   8.271   5.622
 6142WAT      O18667   3.849   3.029   7.182
 6142WAT     H118668   3.930   3.016   7.238
 6142WAT     H218669   3.856   2.973   7.099
 6143WAT      O18670   8.234   8.446   2.965
 6143WAT     H118671   8.293   8.394   3.027
 6143WAT     H218672   8.161   8.490   3.018
 6144WAT      O18673   9.483   3.638   3.687
 6144WAT     H118674   9.499   3.701   3.611
 6144WAT     H218675   9.452   3.550   3.652
 6145WAT      O18676   1.020   3.284   3.125
 6145WAT     H118677   1.077   3.346   3.071
 6145WAT     H218678   1.058   3.192   3.121
 6146WAT      O18679   1.377   5.142   8.027
 6146WAT     H118680   1.290   5.186   8.007
 6146WAT     H218681   1.360   5.052   8.066
 6147WAT      O18682   9.386   6.222   0.904
 6147WAT     H118683   9.473   6.234   0.856
 6147WAT     H218684   9.320   6.177   0.843
 6148WAT      O18685   8.643   6.153   9.489
 6148WAT     H118686   8.715   6.192   9.432
 6148WAT     H218687   8.680   6.131   9.579
 6149WAT      O18688   6.508   5.537   4.860
 6149WAT     H118689   6.510   5.631   4.825
 6149WAT     H218690   6.495   5.538   4.959
 6150WAT      O18691   9.529   3.164   6.425
 6150WAT     H118692   9.513   3.109   6.343
 6150WAT     H218693   9.517   3.107   6.506
 6151WAT      O18694   8.070   3.616   5.233
 6151WAT     H118695   8.139   3.669   5.283
 6151WAT     H218696   7.999   3.677   5.199
 6152WAT      O18697   8.887   7.586   1.188
 6152WAT     H118698   8.794   7.578   1.223
 6152WAT     H218699   8.911   7.503   1.136
 6153WAT      O18700   6.753   3.724   3.247
 6153WAT     H118701   6.665   3.709   3.293
 6153WAT     H218702   6.827   3.710   3.313
 6154WAT      O18703   7.649   0.197   1.978
 6154WAT     H118704   7.738   0.183   2.021
 6154WAT     H218705   7.616   0.111   1.940
 6155WAT      O18706   2.152   4.203   1.707
 6155WAT     H118707   2.154   4.300   1.733
 6155WAT     H218708   2.120   4.195   1.612
 6156WAT      O18709   0.494   7.541   7.682
 6156WAT     H118710   0.571   7.605   7.674
 6156WAT     H218711   0.511   7.477   7.757
 6157WAT      O18712   5.473   3.578   3.064
 6157WAT     H118713   5.389   3.605   3.110
 6157WAT     H218714   5.537   3.655   3.064
 6158WAT      O18715   5.276   1.173   1.946
 6158WAT     H118716   5.372   1.167   1.919
 6158WAT     H218717   5.252   1.092   1.999
 6159WAT      O18718   9.439   2.215   2.474
 6159WAT     H118719   9.370   2.184   2.410
 6159WAT     H218720   9.476   2.137   2.524
 6160WAT      O18721   6.904   0.171   7.578
 6160WAT     H118722   6.899   0.263   7.539
 6160WAT     H218723   6.949   0.110   7.512
 6161WAT      O18724   8.214   6.397   2.162
 6161WAT     H118725   8.189   6.317   2.216
 6161WAT     H218726   8.173   6.391   2.071
 6162WAT      O18727   4.271   0.134   8.449
 6162WAT     H118728   4.328   0.135   8.531
 6162WAT     H218729   4.185   0.087   8.469
 6163WAT      O18730   1.876   0.520   0.228
 6163WAT     H118731   1.971   0.490   0.229
 6163WAT     H218732   1.873   0.620   0.217
 6164WAT      O18733   0.840   9.045   6.365
 6164WAT     H118734   0.894   8.995   6.296
 6164WAT     H218735   0.802   9.127   6.323
 6165WAT      O18736   4.017   1.528   1.174
 6165WAT     H118737   4.080   1.458   1.140
 6165WAT     H218738   4.067   1.613   1.190
 6166WAT      O18739   8.312   9.480   3.708
 6166WAT     H118740   8.225   9.502   3.664
 6166WAT     H218741   8.324   9.381   3.713
 6167WAT      O18742   1.057   2.510   1.770
 6167WAT     H118743   1.111   2.433   1.804
 6167WAT     H218744   1.056   2.583   1.838
 6168WAT      O18745   9.657   2.093   7.920
 6168WAT     H118746   9.736   2.050   7.963
 6168WAT     H218747   9.683   2.127   7.829
 6169WAT      O18748   3.179   1.241   9.372
 6169WAT     H118749   3.259   1.262   9.317
 6169WAT     H218750   3.194   1.154   9.421
 6170WAT      O18751   9.782   5.950   0.836
 6170WAT     H118752   9.739   5.904   0.914
 6170WAT     H218753   9.722   6.021   0.801
 6171WAT      O18754   4.419   8.857   1.750
 6171WAT     H118755   4.428   8.758   1.758
 6171WAT     H218756   4.360   8.891   1.823
 6172WAT      O18757   9.580   4.557   8.159
 6172WAT     H118758   9.529   4.642   8.176
 6172WAT     H218759   9.518   4.489   8.119
 6173WAT      O18760   8.910   3.173   5.322
 6173WAT     H118761   8.969   3.251   5.304
 6173WAT     H218762   8.965   3.096   5.353
 6174WAT      O18763   8.685   8.904   0.887
 6174WAT     H118764   8.599   8.854   0.901
 6174WAT     H218765   8.762   8.841   0.898
 6175WAT      O18766   2.834   8.754   4.909
 6175WAT     H118767   2.839   8.663   4.866
 6175WAT     H218768   2.859   8.823   4.842
 6176WAT      O18769   9.787   3.709   5.743
 6176WAT     H118770   9.832   3.647   5.678
 6176WAT     H218771   9.805   3.677   5.836
 6177WAT      O18772   2.221   7.495   4.426
 6177WAT     H118773   2.230   7.439   4.344
 6177WAT     H218774   2.165   7.447   4.493
 6178WAT      O18775   7.258   4.820   3.688
 6178WAT     H118776   7.347   4.863   3.674
 6178WAT     H218777   7.242   4.805   3.785
 6179WAT      O18778   1.103   9.400   8.164
 6179WAT     H118779   1.168   9.384   8.239
 6179WAT     H218780   1.111   9.495   8.133
 6180WAT      O18781   9.001   6.696   2.196
 6180WAT     H118782   9.047   6.773   2.153
 6180WAT     H218783   9.070   6.630   2.227
 6181WAT      O18784   3.612   9.439   6.788
 6181WAT     H118785   3.641   9.361   6.843
 6181WAT     H218786   3.535   9.413   6.731
 6182WAT      O18787   3.269   0.822   7.440
 6182WAT     H118788   3.169   0.820   7.443
 6182WAT     H218789   3.302   0.911   7.469
 6183WAT      O18790   6.545   1.103   0.594
 6183WAT     H118791   6.573   1.025   0.651
 6183WAT     H218792   6.445   1.105   0.588
 6184WAT      O18793   1.500   0.604   9.044
 6184WAT     H118794   1.480   0.637   9.136
 6184WAT     H218795   1.517   0.682   8.983
 6185WAT      O18796   9.162   6.310   3.558
 6185WAT     H118797   9.083   6.276   3.509
 6185WAT     H218798   9.243   6.256   3.533
 6186WAT      O18799   2.488   8.989   5.098
 6186WAT     H118800   2.573   9.004   5.149
 6186WAT     H218801   2.420   9.057   5.126
 6187WAT      O18802   5.370   6.268   6.148
 6187WAT     H118803   5.297   6.201   6.139
 6187WAT     H218804   5.355   6.343   6.084
 6188WAT      O18805   0.043   3.648   3.114
 6188WAT     H118806  -0.017   3.568   3.116
 6188WAT     H218807   0.056   3.682   3.207
 6189WAT      O18808   1.316   8.865   7.874
 6189WAT     H118809   1.399   8.911   7.843
 6189WAT     H218810   1.236   8.919   7.848
 6190WAT      O18811   6.149   2.543   7.811
 6190WAT     H118812   6.127   2.639   7.795
 6190WAT     H218813   6.111   2.514   7.899
 6191WAT      O18814   1.545   2.836   3.285
 6191WAT     H118815   1.501   2.864   3.370
 6191WAT     H218816   1.522   2.901   3.212
 6192WAT      O18817   4.074   0.796   3.637
 6192WAT     H118818   4.167   0.765   3.615
 6192WAT     H218819   4.041   0.855   3.564
 6193WAT      O18820   0.652   3.235   5.017
 6193WAT     H118821   0.608   3.199   4.935
 6193WAT     H218822   0.745   3.266   4.994
 6194WAT      O18823   0.931   5.943   8.942
 6194WAT     H118824   0.998   5.930   8.869
 6194WAT     H218825   0.909   5.854   8.983
 6195WAT      O18826   4.269   3.689   6.917
 6195WAT     H118827   4.175   3.718   6.935
 6195WAT     H218828   4.268   3.605   6.862
 6196WAT      O18829   8.120   7.343   0.886
 6196WAT     H118830   8.164   7.253   0.886
 6196WAT     H218831   8.066   7.353   0.969
 6197WAT      O18832   0.005   5.329   4.816
 6197WAT     H118833  -0.039   5.272   4.747
 6197WAT     H218834   0.099   5.348   4.787
 6198WAT      O18835   9.402   9.222   2.320
 6198WAT     H118836   9.365   9.276   2.396
 6198WAT     H218837   9.479   9.168   2.352
 6199WAT      O18838   6.726   0.484   9.161
 6199WAT     H118839   6.802   0.441   9.209
 6199WAT     H218840   6.642   0.433   9.180
 6200WAT      O18841   8.667   4.926   3.620
 6200WAT     H118842   8.599   4.951   3.689
 6200WAT     H218843   8.622   4.917   3.531
 6201WAT      O18844   3.529   0.079   4.781
 6201WAT     H118845   3.620   0.109   4.752
 6201WAT     H218846   3.476   0.050   4.701
 6202WAT      O18847   3.314   2.248   0.835
 6202WAT     H118848   3.307   2.191   0.917
 6202WAT     H218849   3.377   2.324   0.852
 6203WAT      O18850   1.773   3.114   2.326
 6203WAT     H118851   1.859   3.149   2.289
 6203WAT     H218852   1.698   3.138   2.265
 6204WAT      O18853   3.741   9.044   7.607
 6204WAT     H118854   3.815   9.061   7.672
 6204WAT     H218855   3.748   9.110   7.532
 6205WAT      O18856   8.368   3.933   2.005
 6205WAT     H118857   8.308   3.991   2.059
 6205WAT     H218858   8.338   3.933   1.910
 6206WAT      O18859   7.262   6.730   6.050
 6206WAT     H118860   7.199   6.701   6.122
 6206WAT     H218861   7.289   6.825   6.067
 6207WAT      O18862   6.554   1.931   1.443
 6207WAT     H118863   6.518   1.843   1.475
 6207WAT     H218864   6.489   2.003   1.463
 6208WAT      O18865   0.670   8.221   1.061
 6208WAT     H118866   0.719   8.187   0.981
 6208WAT     H218867   0.576   8.186   1.058
 6209WAT      O18868   0.836   1.423   4.842
 6209WAT     H118869   0.806   1.356   4.773
 6209WAT     H218870   0.913   1.475   4.805
 6210WAT      O18871   8.701   1.815   9.051
 6210WAT     H118872   8.648   1.819   8.967
 6210WAT     H218873   8.726   1.720   9.070
 6211WAT      O18874   7.238   7.271   0.962
 6211WAT     H118875   7.215   7.335   0.888
 6211WAT     H218876   7.296   7.198   0.926
 6212WAT      O18877   4.619   3.281   9.693
 6212WAT     H118878   4.679   3.269   9.614
 6212WAT     H218879   4.672   3.271   9.777
 6213WAT      O18880   4.866   8.943   9.754
 6213WAT     H118881   4.822   8.859   9.785
 6213WAT     H218882   4.876   9.006   9.831
 6214WAT      O18883   7.001   5.998   3.703
 6214WAT     H118884   6.997   6.060   3.625
 6214WAT     H218885   6.929   5.928   3.694
 6215WAT      O18886   7.817   7.206   6.143
 6215WAT     H118887   7.776   7.117   6.123
 6215WAT     H218888   7.761   7.254   6.211
 6216WAT      O18889   2.371   0.082   1.882
 6216WAT     H118890   2.452   0.034   1.918
 6216WAT     H218891   2.397   0.136   1.802
 6217WAT      O18892   4.295   8.744   6.372
 6217WAT     H118893   4.204   8.760   6.411
 6217WAT     H218894   4.365   8.780   6.434
 6218WAT      O18895   4.142   2.137   8.006
 6218WAT     H118896   4.179   2.126   7.914
 6218WAT     H218897   4.200   2.087   8.071
 6219WAT      O18898   5.237   2.318   8.381
 6219WAT     H118899   5.266   2.241   8.439
 6219WAT     H218900   5.177   2.284   8.308
 6220WAT      O18901   8.867   7.566   3.122
 6220WAT     H118902   8.886   7.547   3.026
 6220WAT     H218903   8.902   7.491   3.178
 6221WAT      O18904   2.550   8.738   8.171
 6221WAT     H118905   2.539   8.806   8.099
 6221WAT     H218906   2.626   8.765   8.230
 6222WAT      O18907   0.849   2.454   0.328
 6222WAT     H118908   0.799   2.536   0.356
 6222WAT     H218909   0.932   2.481   0.278
 6223WAT      O18910   1.550   8.267   9.556
 6223WAT     H118911   1.541   8.337   9.627
 6223WAT     H218912   1.493   8.291   9.477
 6224WAT      O18913   3.344   0.887   0.448
 6224WAT     H118914   3.316   0.883   0.545
 6224WAT     H218915   3.440   0.911   0.442
 6225WAT      O18916   6.289   4.121   3.997
 6225WAT     H118917   6.331   4.060   4.065
 6225WAT     H218918   6.193   4.135   4.021
 6226WAT      O18919   2.668   5.099   5.547
 6226WAT     H118920   2.605   5.089   5.624
 6226WAT     H218921   2.616   5.110   5.462
 6227WAT      O18922   6.736   1.878   3.261
 6227WAT     H118923   6.741   1.975   3.240
 6227WAT     H218924   6.826   1.844   3.287
 6228WAT      O18925   6.543   3.091   1.193
 6228WAT     H118926   6.643   3.082   1.198
 6228WAT     H218927   6.507   3.114   1.283
 6229WAT      O18928   9.302   4.301   6.785
 6229WAT     H118929   9.316   4.224   6.722
 6229WAT     H218930   9.383   4.359   6.785
 6230WAT      O18931   7.922   2.652   3.504
 6230WAT     H118932   7.890   2.646   3.410
 6230WAT     H218933   8.011   2.606   3.512
 6231WAT      O18934   7.440   2.173   1.167
 6231WAT     H118935   7.519   2.121   1.134
 6231WAT     H218936   7.371   2.109   1.203
 6232WAT      O18937   5.159   0.185   7.508
 6232WAT     H118938   5.241   0.233   7.537
 6232WAT     H218939   5.117   0.234   7.431
 6233WAT      O18940   3.704   6.292   7.236
 6233WAT     H118941   3.786   6.348   7.229
 6233WAT     H218942   3.638   6.337   7.297
 6234WAT      O18943   0.011   5.818   0.340
 6234WAT     H118944   0.004   5.719   0.348
 6234WAT     H218945  -0.002   5.860   0.430
 6235WAT      O18946   5.376   1.068   4.180
 6235WAT     H118947   5.329   1.032   4.261
 6235WAT     H218948   5.474   1.072   4.198
 6236WAT      O18949   9.294   7.134   5.827
 6236WAT     H118950   9.361   7.073   5.783
 6236WAT     H218951   9.203   7.095   5.818
 6237WAT      O18952   9.188   3.031   8.975
 6237WAT     H118953   9.167   2.980   8.891
 6237WAT     H218954   9.233   3.117   8.951
 6238WAT      O18955   1.432   2.580   2.368
 6238WAT     H118956   1.480   2.547   2.287
 6238WAT     H218957   1.481   2.658   2.406
 6239WAT      O18958   2.413   4.416   1.207
 6239WAT     H118959   2.430   4.383   1.114
 6239WAT     H218960   2.428   4.341   1.272
 6240WAT      O18961   8.124   1.089   4.612
 6240WAT     H118962   8.032   1.122   4.633
 6240WAT     H218963   8.128   0.990   4.625
 6241WAT      O18964   2.864   7.228   0.470
 6241WAT     H118965   2.803   7.167   0.417
 6241WAT     H218966   2.897   7.180   0.551
 6242WAT      O18967   6.490   7.783   7.120
 6242WAT     H118968   6.587   7.786   7.143
 6242WAT     H218969   6.479   7.753   7.025
 6243WAT      O18970   6.060   0.117   5.961
 6243WAT     H118971   6.075   0.024   5.996
 6243WAT     H218972   6.126   0.136   5.889
 6244WAT      O18973   2.014   2.323   6.746
 6244WAT     H118974   2.075   2.321   6.825
 6244WAT     H218975   1.965   2.410   6.744
 6245WAT      O18976   6.644   2.313   7.729
 6245WAT     H118977   6.637   2.213   7.729
 6245WAT     H218978   6.553   2.353   7.736
 6246WAT      O18979   2.983   6.707   9.663
 6246WAT     H118980   2.986   6.717   9.762
 6246WAT     H218981   2.893   6.735   9.629
 6247WAT      O18982   4.795   6.579   3.040
 6247WAT     H118983   4.808   6.543   2.947
 6247WAT     H218984   4.856   6.530   3.102
 6248WAT      O18985   4.596   6.747   2.769
 6248WAT     H118986   4.633   6.825   2.720
 6248WAT     H218987   4.564   6.776   2.859
 6249WAT      O18988   1.103   6.996   0.551
 6249WAT     H118989   1.159   7.075   0.523
 6249WAT     H218990   1.141   6.913   0.511
 6250WAT      O18991   3.293   4.567   8.906
 6250WAT     H118992   3.201   4.539   8.877
 6250WAT     H218993   3.338   4.491   8.952
 6251WAT      O18994   3.066   7.099   0.215
 6251WAT     H118995   2.997   7.049   0.269
 6251WAT     H218996   3.112   7.165   0.274
 6252WAT      O18997   9.139   2.684   3.977
 6252WAT     H118998   9.125   2.698   4.075
 6252WAT     H218999   9.051   2.680   3.931
 6253WAT      O19000   0.489   6.397   0.672
 6253WAT     H119001   0.540   6.317   0.701
 6253WAT     H219002   0.552   6.467   0.639
 6254WAT      O19003   4.312   4.475   5.257
 6254WAT     H119004   4.303   4.390   5.309
 6254WAT     H219005   4.360   4.457   5.171
 6255WAT      O19006   4.898   0.050   2.276
 6255WAT     H119007   4.815   0.031   2.224
 6255WAT     H219008   4.958   0.109   2.223
 6256WAT      O19009   5.703   5.899   9.615
 6256WAT     H119010   5.701   5.882   9.714
 6256WAT     H219011   5.631   5.964   9.591
 6257WAT      O19012   2.851   0.348   6.577
 6257WAT     H119013   2.805   0.268   6.538
 6257WAT     H219014   2.799   0.431   6.556
 6258WAT      O19015   1.922   0.635   0.727
 6258WAT     H119016   1.989   0.668   0.794
 6258WAT     H219017   1.933   0.536   0.717
 6259WAT      O19018   8.822   2.167   5.882
 6259WAT     H119019   8.903   2.108   5.888
 6259WAT     H219020   8.849   2.257   5.849
 6260WAT      O19021   4.258   0.139   1.099
 6260WAT     H119022   4.208   0.196   1.033
 6260WAT     H219023   4.343   0.108   1.058
 6261WAT      O19024   0.224   7.680   5.829
 6261WAT     H119025   0.262   7.638   5.747
 6261WAT     H219026   0.143   7.734   5.805
 6262WAT      O19027   1.242   7.569   4.135
 6262WAT     H119028   1.257   7.493   4.197
 6262WAT     H219029   1.144   7.592   4.134
 6263WAT      O19030   0.650   8.297   2.453
 6263WAT     H119031   0.605   8.301   2.542
 6263WAT     H219032   0.747   8.320   2.463
 6264WAT      O19033   0.413   6.154   8.493
 6264WAT     H119034   0.429   6.222   8.421
 6264WAT     H219035   0.358   6.079   8.456
 6265WAT      O19036   1.692   5.524   4.369
 6265WAT     H119037   1.704   5.485   4.461
 6265WAT     H219038   1.758   5.482   4.306
 6266WAT      O19039   2.804   8.801   1.128
 6266WAT     H119040   2.752   8.883   1.151
 6266WAT     H219041   2.788   8.777   1.032
 6267WAT      O19042   0.896   3.847   0.270
 6267WAT     H119043   0.814   3.904   0.262
 6267WAT     H219044   0.975   3.905   0.288
 6268WAT      O19045   8.892   5.378   7.824
 6268WAT     H119046   8.813   5.341   7.873
 6268WAT     H219047   8.893   5.478   7.832
 6269WAT      O19048   1.265   1.254   2.092
 6269WAT     H119049   1.350   1.253   2.145
 6269WAT     H219050   1.248   1.347   2.057
 6270WAT      O19051   8.119   0.983   7.200
 6270WAT     H119052   8.100   1.080   7.219
 6270WAT     H219053   8.213   0.974   7.166
 6271WAT      O19054   8.693   6.230   8.764
 6271WAT     H119055   8.619   6.286   8.801
 6271WAT     H219056   8.691   6.233   8.664
 6272WAT      O19057   9.852   2.085   4.871
 6272WAT     H119058   9.926   2.018   4.858
 6272WAT     H219059   9.839   2.102   4.968
 6273WAT      O19060   8.029   4.140   3.068
 6273WAT     H119061   8.005   4.235   3.049
 6273WAT     H219062   7.993   4.081   2.996
 6274WAT      O19063   2.601   8.512   8.021
 6274WAT     H119064   2.589   8.526   7.923
 6274WAT     H219065   2.581   8.597   8.069
 6275WAT      O19066   0.404   9.788   3.405
 6275WAT     H119067   0.347   9.716   3.445
 6275WAT     H219068   0.437   9.848   3.478
 6276WAT      O19069   1.461   2.992   3.094
 6276WAT     H119070   1.439   2.923   3.026
 6276WAT     H219071   1.476   3.080   3.049
 6277WAT      O19072   3.509   5.544   8.328
 6277WAT     H119073   3.568   5.600   8.269
 6277WAT     H219074   3.442   5.496   8.272
 6278WAT      O19075   9.539   9.832   3.141
 6278WAT     H119076   9.528   9.912   3.082
 6278WAT     H219077   9.460   9.824   3.202
 6279WAT      O19078   4.885   9.576   9.177
 6279WAT     H119079   4.900   9.671   9.149
 6279WAT     H219080   4.862   9.521   9.097
 6280WAT      O19081   9.225   2.397   2.745
 6280WAT     H119082   9.210   2.338   2.825
 6280WAT     H219083   9.177   2.359   2.666
 6281WAT      O19084   8.728   4.531   3.296
 6281WAT     H119085   8.716   4.471   3.375
 6281WAT     H219086   8.656   4.600   3.296
 6282WAT      O19087   4.157   6.025   3.538
 6282WAT     H119088   4.084   5.978   3.489
 6282WAT     H219089   4.138   6.123   3.541
 6283WAT      O19090   6.470   2.283   9.704
 6283WAT     H119091   6.485   2.198   9.753
 6283WAT     H219092   6.470   2.265   9.605
 6284WAT      O19093   6.190   0.577   9.008
 6284WAT     H119094   6.234   0.597   9.095
 6284WAT     H219095   6.245   0.511   8.957
 6285WAT      O19096   9.361   4.102   4.538
 6285WAT     H119097   9.391   4.138   4.450
 6285WAT     H219098   9.438   4.060   4.586
 6286WAT      O19099   6.031   6.123   1.468
 6286WAT     H119100   6.062   6.217   1.480
 6286WAT     H219101   5.933   6.117   1.489
 6287WAT      O19102   0.134   0.146   1.703
 6287WAT     H119103   0.150   0.242   1.682
 6287WAT     H219104   0.191   0.118   1.780
 6288WAT      O19105   9.662   0.519   5.260
 6288WAT     H119106   9.679   0.421   5.272
 6288WAT     H219107   9.750   0.568   5.261
 6289WAT      O19108   5.884   8.586   4.289
 6289WAT     H119109   5.845   8.498   4.316
 6289WAT     H219110   5.979   8.573   4.263
 6290WAT      O19111   0.818   4.284   9.254
 6290WAT     H119112   0.884   4.359   9.263
 6290WAT     H219113   0.859   4.199   9.289
 6291WAT      O19114   9.449   7.526   2.757
 6291WAT     H119115   9.541   7.490   2.744
 6291WAT     H219116   9.386   7.478   2.696
 6292WAT      O19117   0.552   5.381   0.318
 6292WAT     H119118   0.523   5.316   0.247
 6292WAT     H219119   0.503   5.468   0.305
 6293WAT      O19120   2.327   5.484   9.236
 6293WAT     H119121   2.392   5.409   9.247
 6293WAT     H219122   2.287   5.480   9.145
 6294WAT      O19123   4.155   1.280   4.201
 6294WAT     H119124   4.237   1.290   4.145
 6294WAT     H219125   4.170   1.209   4.270
 6295WAT      O19126   0.348   3.631   4.847
 6295WAT     H119127   0.316   3.675   4.931
 6295WAT     H219128   0.432   3.580   4.866
 6296WAT      O19129   9.190   6.187   7.690
 6296WAT     H119130   9.229   6.257   7.629
 6296WAT     H219131   9.115   6.140   7.643
 6297WAT      O19132   8.748   1.115   7.165
 6297WAT     H119133   8.750   1.066   7.252
 6297WAT     H219134   8.759   1.049   7.090
 6298WAT      O19135   0.397   9.318   0.903
 6298WAT     H119136   0.420   9.225   0.931
 6298WAT     H219137   0.303   9.321   0.870
 6299WAT      O19138   5.327   0.217   2.026
 6299WAT     H119139   5.333   0.311   2.059
 6299WAT     H219140   5.412   0.168   2.047
 6300WAT      O19141   3.413   4.533   7.488
 6300WAT     H119142   3.314   4.542   7.496
 6300WAT     H219143   3.436   4.490   7.400
 6301WAT      O19144   2.170   5.039   9.589
 6301WAT     H119145   2.211   4.952   9.560
 6301WAT     H219146   2.106   5.022   9.664
 6302WAT      O19147   5.780   6.307   2.550
 6302WAT     H119148   5.724   6.360   2.487
 6302WAT     H219149   5.723   6.269   2.623
 6303WAT      O19150   4.413   9.825   8.038
 6303WAT     H119151   4.469   9.906   8.017
 6303WAT     H219152   4.343   9.849   8.104
 6304WAT      O19153   1.763   4.802   0.739
 6304WAT     H119154   1.699   4.797   0.815
 6304WAT     H219155   1.758   4.893   0.698
 6305WAT      O19156   3.146   6.037   3.529
 6305WAT     H119157   3.113   5.985   3.449
 6305WAT     H219158   3.069   6.083   3.572
 6306WAT      O19159   0.391   4.494   1.371
 6306WAT     H119160   0.435   4.553   1.440
 6306WAT     H219161   0.310   4.540   1.335
 6307WAT      O19162   5.409   4.341   3.869
 6307WAT     H119163   5.357   4.287   3.804
 6307WAT     H219164   5.445   4.422   3.824
 6308WAT      O19165   8.064   4.213   4.597
 6308WAT     H119166   8.047   4.202   4.695
 6308WAT     H219167   8.162   4.216   4.581
 6309WAT      O19168   5.466   1.290   2.896
 6309WAT     H119169   5.396   1.263   2.830
 6309WAT     H219170   5.437   1.373   2.944
 6310WAT      O19171   0.314   8.943   1.907
 6310WAT     H119172   0.266   9.029   1.924
 6310WAT     H219173   0.273   8.897   1.829
 6311WAT      O19174   9.333   1.600   0.409
 6311WAT     H119175   9.374   1.679   0.455
 6311WAT     H219176   9.244   1.626   0.372
 6312WAT      O19177   4.755   5.820   0.995
 6312WAT     H119178   4.766   5.730   0.951
 6312WAT     H219179   4.764   5.809   1.094
 6313WAT      O19180   0.397   8.239   8.893
 6313WAT     H119181   0.363   8.162   8.839
 6313WAT     H219182   0.319   8.290   8.930
 6314WAT      O19183   6.844   6.678   5.654
 6314WAT     H119184   6.792   6.752   5.612
 6314WAT     H219185   6.929   6.714   5.694
 6315WAT      O19186   5.711   4.466   5.585
 6315WAT     H119187   5.793   4.417   5.557
 6315WAT     H219188   5.672   4.514   5.507
 6316WAT      O19189   8.466   6.151   7.747
 6316WAT     H119190   8.484   6.205   7.665
 6316WAT     H219191   8.526   6.181   7.821
 6317WAT      O19192   7.306   4.180   5.414
 6317WAT     H119193   7.337   4.095   5.371
 6317WAT     H219194   7.297   4.251   5.345
 6318WAT      O19195   2.825   3.430   8.199
 6318WAT     H119196   2.874   3.390   8.122
 6318WAT     H219197   2.770   3.507   8.167
 6319WAT      O19198   8.359   6.553   2.899
 6319WAT     H119199   8.346   6.545   2.800
 6319WAT     H219200   8.271   6.569   2.943
 6320WAT      O19201   3.832   1.719   4.347
 6320WAT     H119202   3.877   1.775   4.277
 6320WAT     H219203   3.800   1.778   4.421
 6321WAT      O19204   8.269   4.420   8.967
 6321WAT     H119205   8.218   4.342   9.001
 6321WAT     H219206   8.257   4.428   8.868
 6322WAT      O19207   4.902   3.283   3.647
 6322WAT     H119208   4.868   3.334   3.569
 6322WAT     H219209   4.830   3.274   3.716
 6323WAT      O19210   9.561   6.318   1.566
 6323WAT     H119211   9.503   6.399   1.552
 6323WAT     H219212   9.590   6.283   1.477
 6324WAT      O19213   3.547   0.822   4.476
 6324WAT     H119214   3.527   0.919   4.469
 6324WAT     H219215   3.613   0.796   4.406
 6325WAT      O19216   4.818   1.689   1.818
 6325WAT     H119217   4.917   1.681   1.807
 6325WAT     H219218   4.798   1.770   1.873
 6326WAT      O19219   7.209   3.763   5.736
 6326WAT     H119220   7.140   3.777   5.807
 6326WAT     H219221   7.191   3.826   5.660
 6327WAT      O19222   3.229   9.836   2.348
 6327WAT     H119223   3.225   9.808   2.444
 6327WAT     H219224   3.323   9.860   2.324
 6328WAT      O19225   7.682   9.006   9.451
 6328WAT     H119226   7.609   8.938   9.457
 6328WAT     H219227   7.727   9.014   9.541
 6329WAT      O19228   7.637   7.027   3.003
 6329WAT     H119229   7.613   7.004   3.097
 6329WAT     H219230   7.618   6.948   2.944
 6330WAT      O19231   1.673   0.579   4.089
 6330WAT     H119232   1.708   0.514   4.022
 6330WAT     H219233   1.640   0.661   4.043
 6331WAT      O19234   1.366   9.057   3.167
 6331WAT     H119235   1.406   9.076   3.077
 6331WAT     H219236   1.425   9.095   3.238
 6332WAT      O19237   3.379   1.316   0.967
 6332WAT     H119238   3.433   1.375   1.027
 6332WAT     H219239   3.290   1.299   1.010
 6333WAT      O19240   1.349   7.585   6.637
 6333WAT     H119241   1.356   7.562   6.539
 6333WAT     H219242   1.286   7.661   6.649
 6334WAT      O19243   3.693   4.875   3.463
 6334WAT     H119244   3.746   4.825   3.531
 6334WAT     H219245   3.610   4.911   3.506
 6335WAT      O19246   3.125   5.466   7.897
 6335WAT     H119247   3.154   5.433   7.987
 6335WAT     H219248   3.206   5.483   7.840
 6336WAT      O19249   9.478   9.038   7.836
 6336WAT     H119250   9.537   9.002   7.764
 6336WAT     H219251   9.492   8.987   7.921
 6337WAT      O19252   4.858   8.058   5.692
 6337WAT     H119253   4.791   8.031   5.624
 6337WAT     H219254   4.863   7.988   5.764
 6338WAT      O19255   9.265   1.610   1.451
 6338WAT     H119256   9.356   1.602   1.490
 6338WAT     H219257   9.260   1.560   1.365
 6339WAT      O19258   4.791   3.254   4.157
 6339WAT     H119259   4.850   3.332   4.135
 6339WAT     H219260   4.812   3.179   4.095
 6340WAT      O19261   0.685   5.626   4.089
 6340WAT     H119262   0.773   5.602   4.131
 6340WAT     H219263   0.653   5.712   4.128
 6341WAT      O19264   7.861   2.467   2.886
 6341WAT     H119265   7.958   2.449   2.902
 6341WAT     H219266   7.844   2.565   2.897
 6342WAT      O19267   1.885   7.868   6.384
 6342WAT     H119268   1.949   7.935   6.345
 6342WAT     H219269   1.800   7.914   6.409
 6343WAT      O19270   3.508   7.680   9.130
 6343WAT     H119271   3.419   7.637   9.112
 6343WAT     H219272   3.523   7.684   9.229
 6344WAT      O19273   9.858   5.826   3.130
 6344WAT     H119274   9.825   5.909   3.176
 6344WAT     H219275   9.784   5.786   3.076
 6345WAT      O19276   6.297   3.193   1.108
 6345WAT     H119277   6.243   3.119   1.068
 6345WAT     H219278   6.381   3.155   1.147
 6346WAT      O19279   3.157   3.579   8.132
 6346WAT     H119280   3.161   3.665   8.081
 6346WAT     H219281   3.157   3.502   8.068
 6347WAT      O19282   2.215   7.563   9.270
 6347WAT     H119283   2.202   7.569   9.171
 6347WAT     H219284   2.128   7.541   9.314
 6348WAT      O19285   0.204   6.950   9.701
 6348WAT     H119286   0.270   6.876   9.684
 6348WAT     H219287   0.248   7.038   9.685
 6349WAT      O19288   4.900   7.646   7.516
 6349WAT     H119289   4.829   7.612   7.578
 6349WAT     H219290   4.984   7.662   7.567
 6350WAT      O19291   5.097   4.793   6.933
 6350WAT     H119292   4.999   4.775   6.922
 6350WAT     H219293   5.149   4.710   6.911
 6351WAT      O19294   3.904   0.818   5.808
 6351WAT     H119295   3.862   0.798   5.897
 6351WAT     H219296   3.990   0.766   5.800
 6352WAT      O19297   0.413   7.853   2.584
 6352WAT     H119298   0.458   7.840   2.672
 6352WAT     H219299   0.463   7.920   2.529
 6353WAT      O19300   6.139   2.955   4.996
 6353WAT     H119301   6.067   2.903   5.043
 6353WAT     H219302   6.099   3.038   4.958
 6354WAT      O19303   3.844   0.289   2.210
 6354WAT     H119304   3.823   0.387   2.203
 6354WAT     H219305   3.801   0.252   2.293
 6355WAT      O19306   0.659   5.835   8.775
 6355WAT     H119307   0.707   5.751   8.750
 6355WAT     H219308   0.634   5.831   8.872
 6356WAT      O19309   0.714   2.710   3.050
 6356WAT     H119310   0.773   2.631   3.066
 6356WAT     H219311   0.749   2.762   2.972
 6357WAT      O19312   8.554   1.190   2.798
 6357WAT     H119313   8.529   1.235   2.884
 6357WAT     H219314   8.472   1.156   2.753
 6358WAT      O19315   2.654   9.441   9.841
 6358WAT     H119316   2.587   9.477   9.777
 6358WAT     H219317   2.607   9.395   9.917
 6359WAT      O19318   2.697   7.170   1.401
 6359WAT     H119319   2.745   7.157   1.487
 6359WAT     H219320   2.698   7.085   1.348
 6360WAT      O19321   8.017   3.934   4.438
 6360WAT     H119322   8.018   3.961   4.534
 6360WAT     H219323   7.932   3.964   4.395
 6361WAT      O19324   2.006   9.733   0.094
 6361WAT     H119325   2.086   9.692   0.049
 6361WAT     H219326   1.994   9.826   0.060
 6362WAT      O19327   4.386   0.810   7.767
 6362WAT     H119328   4.301   0.859   7.788
 6362WAT     H219329   4.459   0.876   7.749
 6363WAT      O19330   0.923   9.784   3.651
 6363WAT     H119331   1.000   9.819   3.706
 6363WAT     H219332   0.958   9.728   3.576
 6364WAT      O19333   0.758   3.894   7.910
 6364WAT     H119334   0.841   3.947   7.924
 6364WAT     H219335   0.738   3.888   7.812
 6365WAT      O19336   2.710   4.418   3.877
 6365WAT     H119337   2.723   4.432   3.975
 6365WAT     H219338   2.767   4.484   3.827
 6366WAT      O19339   4.743   8.723   4.989
 6366WAT     H119340   4.764   8.791   4.919
 6366WAT     H219341   4.698   8.644   4.947
 6367WAT      O19342   8.137   4.579   8.057
 6367WAT     H119343   8.154   4.669   8.096
 6367WAT     H219344   8.040   4.555   8.069
 6368WAT      O19345   6.590   6.083   6.800
 6368WAT     H119346   6.673   6.139   6.799
 6368WAT     H219347   6.610   5.992   6.766
 6369WAT      O19348   1.003   0.044   4.727
 6369WAT     H119349   1.038   0.025   4.635
 6369WAT     H219350   1.067   0.103   4.776
 6370WAT      O19351   9.664   8.150   0.116
 6370WAT     H119352   9.656   8.055   0.085
 6370WAT     H219353   9.626   8.157   0.209
 6371WAT      O19354   7.728   8.495   8.499
 6371WAT     H119355   7.745   8.411   8.446
 6371WAT     H219356   7.767   8.573   8.451
 6372WAT      O19357   2.810   3.031   2.457
 6372WAT     H119358   2.896   3.035   2.507
 6372WAT     H219359   2.804   3.109   2.395
 6373WAT      O19360   7.438   9.844   2.166
 6373WAT     H119361   7.514   9.794   2.209
 6373WAT     H219362   7.471   9.890   2.084
 6374WAT      O19363   7.925   7.427   8.920
 6374WAT     H119364   7.933   7.329   8.933
 6374WAT     H219365   7.982   7.455   8.842
 6375WAT      O19366   7.652   5.920   6.718
 6375WAT     H119367   7.650   5.962   6.627
 6375WAT     H219368   7.740   5.936   6.761
 6376WAT      O19369   6.549   9.444   3.371
 6376WAT     H119370   6.590   9.384   3.439
 6376WAT     H219371   6.550   9.538   3.404
 6377WAT      O19372   9.306   7.368   5.670
 6377WAT     H119373   9.296   7.286   5.727
 6377WAT     H219374   9.219   7.418   5.668
 6378WAT      O19375   7.599   1.558   1.196
 6378WAT     H119376   7.559   1.483   1.249
 6378WAT     H219377   7.696   1.541   1.181
 6379WAT      O19378   4.013   0.719   5.364
 6379WAT     H119379   4.043   0.790   5.299
 6379WAT     H219380   3.943   0.757   5.424
 6380WAT      O19381   9.299   3.245   8.875
 6380WAT     H119382   9.384   3.279   8.835
 6380WAT     H219383   9.227   3.315   8.865
 6381WAT      O19384   8.075   0.755   7.341
 6381WAT     H119385   8.047   0.744   7.436
 6381WAT     H219386   8.103   0.850   7.325
 6382WAT      O19387   9.337   6.293   4.683
 6382WAT     H119388   9.290   6.224   4.627
 6382WAT     H219389   9.376   6.364   4.624
 6383WAT      O19390   6.883   6.061   8.703
 6383WAT     H119391   6.963   6.116   8.681
 6383WAT     H219392   6.850   6.016   8.620
 6384WAT      O19393   8.200   1.080   8.741
 6384WAT     H119394   8.210   0.997   8.795
 6384WAT     H219395   8.282   1.137   8.752
 6385WAT      O19396   5.387   5.508   0.010
 6385WAT     H119397   5.422   5.489   0.102
 6385WAT     H219398   5.373   5.421  -0.039
 6386WAT      O19399   1.687   3.576   0.388
 6386WAT     H119400   1.747   3.507   0.428
 6386WAT     H219401   1.638   3.623   0.462
 6387WAT      O19402   2.656   9.295   6.338
 6387WAT     H119403   2.711   9.247   6.271
 6387WAT     H219404   2.572   9.244   6.356
 6388WAT      O19405   3.213   6.960   8.950
 6388WAT     H119406   3.174   6.868   8.953
 6388WAT     H219407   3.143   7.027   8.970
 6389WAT      O19408   1.943   9.341   4.667
 6389WAT     H119409   1.981   9.278   4.598
 6389WAT     H219410   2.016   9.369   4.729
 6390WAT      O19411   9.576   6.586   1.739
 6390WAT     H119412   9.655   6.558   1.793
 6390WAT     H219413   9.495   6.589   1.797
 6391WAT      O19414   8.487   0.384   2.919
 6391WAT     H119415   8.496   0.470   2.968
 6391WAT     H219416   8.536   0.312   2.968
 6392WAT      O19417   8.448   9.123   7.535
 6392WAT     H119418   8.506   9.190   7.581
 6392WAT     H219419   8.414   9.162   7.450
 6393WAT      O19420   0.935   4.601   0.535
 6393WAT     H119421   0.958   4.683   0.588
 6393WAT     H219422   0.984   4.522   0.571
 6394WAT      O19423   5.327   7.952   8.416
 6394WAT     H119424   5.262   7.983   8.485
 6394WAT     H219425   5.323   7.853   8.408
 6395WAT      O19426   6.286   9.692   3.348
 6395WAT     H119427   6.383   9.686   3.371
 6395WAT     H219428   6.268   9.638   3.266
 6396WAT      O19429   9.571   5.018   4.842
 6396WAT     H119430   9.582   5.117   4.845
 6396WAT     H219431   9.501   4.990   4.907
 6397WAT      O19432   6.545   6.988   1.197
 6397WAT     H119433   6.629   6.938   1.174
 6397WAT     H219434   6.565   7.086   1.199
 6398WAT      O19435   6.187   8.375   8.091
 6398WAT     H119436   6.192   8.369   7.991
 6398WAT     H219437   6.258   8.318   8.131
 6399WAT      O19438   4.007   9.826   8.022
 6399WAT     H119439   3.961   9.749   8.064
 6399WAT     H219440   4.100   9.834   8.058
 6400WAT      O19441   8.859   2.215   5.028
 6400WAT     H119442   8.878   2.235   5.124
 6400WAT     H219443   8.761   2.196   5.017
 6401WAT      O19444   0.646   6.116   5.491
 6401WAT     H119445   0.674   6.157   5.405
 6401WAT     H219446   0.727   6.084   5.541
 6402WAT      O19447   9.751   4.390   2.637
 6402WAT     H119448   9.819   4.459   2.608
 6402WAT     H219449   9.677   4.387   2.571
 6403WAT      O19450   9.705   1.578   9.438
 6403WAT     H119451   9.746   1.488   9.424
 6403WAT     H219452   9.744   1.643   9.373
 6404WAT      O19453   0.787   4.836   2.757
 6404WAT     H119454   0.859   4.812   2.822
 6404WAT     H219455   0.824   4.897   2.687
 6405WAT      O19456   7.524   0.267   6.856
 6405WAT     H119457   7.518   0.211   6.773
 6405WAT     H219458   7.533   0.364   6.830
 6406WAT      O19459   3.039   2.855   1.941
 6406WAT     H119460   2.940   2.849   1.952
 6406WAT     H219461   3.064   2.829   1.848
 6407WAT      O19462   5.219   1.320   7.162
 6407WAT     H119463   5.165   1.315   7.079
 6407WAT     H219464   5.314   1.297   7.142
 6408WAT      O19465   7.947   7.895   5.828
 6408WAT     H119466   8.014   7.823   5.848
 6408WAT     H219467   7.975   7.980   5.872
 6409WAT      O19468   8.822   2.549   0.536
 6409WAT     H119469   8.761   2.550   0.457
 6409WAT     H219470   8.913   2.519   0.509
 6410WAT      O19471   2.273   5.634   0.106
 6410WAT     H119472   2.235   5.595   0.191
 6410WAT     H219473   2.232   5.588   0.027
 6411WAT      O19474   5.006   2.118   4.742
 6411WAT     H119475   5.036   2.199   4.691
 6411WAT     H219476   4.932   2.072   4.692
 6412WAT      O19477   0.715   9.369   0.233
 6412WAT     H119478   0.658   9.329   0.161
 6412WAT     H219479   0.761   9.295   0.284
 6413WAT      O19480   0.121   5.577   0.104
 6413WAT     H119481   0.123   5.545   0.198
 6413WAT     H219482   0.135   5.500   0.041
 6414WAT      O19483   3.725   1.050   9.021
 6414WAT     H119484   3.729   1.061   8.921
 6414WAT     H219485   3.780   0.971   9.047
 6415WAT      O19486   9.868   8.479   4.763
 6415WAT     H119487   9.914   8.426   4.834
 6415WAT     H219488   9.924   8.558   4.738
 6416WAT      O19489   3.757   8.855   8.505
 6416WAT     H119490   3.814   8.845   8.586
 6416WAT     H219491   3.665   8.823   8.525
 6417WAT      O19492   5.554   3.683   5.746
 6417WAT     H119493   5.596   3.717   5.662
 6417WAT     H219494   5.462   3.722   5.755
 6418WAT      O19495   6.119   3.599   7.790
 6418WAT     H119496   6.178   3.669   7.751
 6418WAT     H219497   6.030   3.639   7.811
 6419WAT      O19498   2.896   3.294   0.211
 6419WAT     H119499   2.819   3.288   0.275
 6419WAT     H219500   2.966   3.355   0.250
 6420WAT      O19501   7.342   3.161   4.834
 6420WAT     H119502   7.242   3.160   4.824
 6420WAT     H219503   7.370   3.082   4.888
 6421WAT      O19504   3.873   1.402   1.995
 6421WAT     H119505   3.858   1.322   2.053
 6421WAT     H219506   3.785   1.437   1.963
 6422WAT      O19507   8.709   6.493   5.893
 6422WAT     H119508   8.618   6.451   5.892
 6422WAT     H219509   8.700   6.592   5.905
 6423WAT      O19510   5.505   7.385   5.138
 6423WAT     H119511   5.434   7.452   5.115
 6423WAT     H219512   5.573   7.382   5.064
 6424WAT      O19513   7.258   6.965   8.145
 6424WAT     H119514   7.225   6.937   8.235
 6424WAT     H219515   7.357   6.948   8.139
 6425WAT      O19516   1.999   0.727   0.508
 6425WAT     H119517   1.955   0.676   0.582
 6425WAT     H219518   2.033   0.813   0.543
 6426WAT      O19519   6.309   9.095   6.271
 6426WAT     H119520   6.360   9.056   6.347
 6426WAT     H219521   6.213   9.106   6.298
 6427WAT      O19522   3.696   6.101   0.345
 6427WAT     H119523   3.698   6.002   0.332
 6427WAT     H219524   3.764   6.144   0.286
 6428WAT      O19525   5.875   8.912   9.399
 6428WAT     H119526   5.935   8.835   9.418
 6428WAT     H219527   5.792   8.880   9.354
 6429WAT      O19528   7.462   6.340   3.228
 6429WAT     H119529   7.393   6.278   3.189
 6429WAT     H219530   7.550   6.294   3.229
 6430WAT      O19531   2.674   9.295   7.663
 6430WAT     H119532   2.670   9.380   7.610
 6430WAT     H219533   2.581   9.264   7.683
 6431WAT      O19534   8.032   5.992   8.013
 6431WAT     H119535   8.013   6.059   8.085
 6431WAT     H219536   8.085   6.035   7.940
 6432WAT      O19537   2.023   5.053   2.317
 6432WAT     H119538   1.971   5.084   2.237
 6432WAT     H219539   2.015   4.954   2.326
 6433WAT      O19540   7.990   5.116   9.448
 6433WAT     H119541   7.914   5.137   9.386
 6433WAT     H219542   8.042   5.039   9.411
 6434WAT      O19543   9.795   5.446   5.536
 6434WAT     H119544   9.843   5.377   5.481
 6434WAT     H219545   9.717   5.405   5.582
 6435WAT      O19546   8.557   3.281   4.224
 6435WAT     H119547   8.484   3.326   4.172
 6435WAT     H219548   8.622   3.351   4.255
 6436WAT      O19549   0.411   4.982   4.774
 6436WAT     H119550   0.415   4.977   4.874
 6436WAT     H219551   0.429   4.892   4.735
 6437WAT      O19552   1.196   0.957   8.579
 6437WAT     H119553   1.161   0.865   8.565
 6437WAT     H219554   1.221   0.970   8.675
 6438WAT      O19555   4.600   0.453   6.277
 6438WAT     H119556   4.671   0.382   6.276
 6438WAT     H219557   4.511   0.412   6.255
 6439WAT      O19558   8.023   8.579   3.087
 6439WAT     H119559   8.049   8.671   3.058
 6439WAT     H219560   7.924   8.569   3.081
 6440WAT      O19561   6.568   6.008   0.160
 6440WAT     H119562   6.668   6.014   0.152
 6440WAT     H219563   6.535   5.928   0.111
 6441WAT      O19564   7.998   2.887   2.287
 6441WAT     H119565   8.067   2.847   2.348
 6441WAT     H219566   8.039   2.905   2.198
 6442WAT      O19567   2.492   8.332   5.358
 6442WAT     H119568   2.429   8.370   5.290
 6442WAT     H219569   2.584   8.367   5.341
 6443WAT      O19570   8.284   7.660   8.645
 6443WAT     H119571   8.370   7.704   8.621
 6443WAT     H219572   8.265   7.676   8.742
 6444WAT      O19573   0.822   2.862   4.042
 6444WAT     H119574   0.891   2.796   4.072
 6444WAT     H219575   0.781   2.832   3.956
 6445WAT      O19576   2.829   4.842   3.967
 6445WAT     H119577   2.854   4.866   3.873
 6445WAT     H219578   2.783   4.920   4.010
 6446WAT      O19579   8.114   7.152   2.532
 6446WAT     H119580   8.174   7.219   2.487
 6446WAT     H219581   8.051   7.200   2.593
 6447WAT      O19582   7.622   0.882   2.147
 6447WAT     H119583   7.676   0.932   2.079
 6447WAT     H219584   7.560   0.946   2.193
 6448WAT      O19585   1.250   9.246   1.350
 6448WAT     H119586   1.257   9.329   1.295
 6448WAT     H219587   1.332   9.190   1.338
 6449WAT      O19588   7.169   6.903   0.230
 6449WAT     H119589   7.075   6.912   0.198
 6449WAT     H219590   7.183   6.813   0.272
 6450WAT      O19591   9.303   0.195   5.422
 6450WAT     H119592   9.208   0.165   5.436
 6450WAT     H219593   9.326   0.186   5.325
 6451WAT      O19594   8.507   8.074   5.428
 6451WAT     H119595   8.513   8.137   5.506
 6451WAT     H219596   8.432   8.101   5.368
 6452WAT      O19597   9.409   1.187   1.412
 6452WAT     H119598   9.435   1.146   1.325
 6452WAT     H219599   9.342   1.260   1.396
 6453WAT      O19600   1.405   0.309   9.351
 6453WAT     H119601   1.491   0.353   9.326
 6453WAT     H219602   1.416   0.261   9.438
 6454WAT      O19603   5.021   2.247   9.179
 6454WAT     H119604   5.008   2.269   9.275
 6454WAT     H219605   4.968   2.165   9.156
 6455WAT      O19606   3.956   5.233   0.645
 6455WAT     H119607   4.017   5.174   0.592
 6455WAT     H219608   4.000   5.321   0.660
 6456WAT      O19609   7.256   4.301   7.994
 6456WAT     H119610   7.353   4.325   8.001
 6456WAT     H219611   7.211   4.364   7.931
 6457WAT      O19612   7.025   1.225   3.810
 6457WAT     H119613   7.081   1.292   3.859
 6457WAT     H219614   6.979   1.166   3.875
 6458WAT      O19615   9.062   7.577   7.987
 6458WAT     H119616   8.978   7.615   8.026
 6458WAT     H219617   9.040   7.520   7.909
 6459WAT      O19618   0.813   3.701   0.506
 6459WAT     H119619   0.738   3.718   0.571
 6459WAT     H219620   0.795   3.750   0.421
 6460WAT      O19621   7.523   5.919   4.153
 6460WAT     H119622   7.441   5.879   4.194
 6460WAT     H219623   7.596   5.923   4.221
 6461WAT      O19624   8.834   9.559   5.231
 6461WAT     H119625   8.847   9.632   5.297
 6461WAT     H219626   8.738   9.555   5.203
 6462WAT      O19627   5.528   0.265   0.911
 6462WAT     H119628   5.569   0.261   1.002
 6462WAT     H219629   5.528   0.174   0.870
 6463WAT      O19630   7.081   7.832   6.279
 6463WAT     H119631   7.071   7.885   6.363
 6463WAT     H219632   7.095   7.894   6.202
 6464WAT      O19633   8.366   7.422   3.282
 6464WAT     H119634   8.418   7.449   3.201
 6464WAT     H219635   8.363   7.499   3.346
 6465WAT      O19636   2.191   1.047   9.594
 6465WAT     H119637   2.107   1.082   9.553
 6465WAT     H219638   2.169   0.967   9.650
 6466WAT      O19639   3.759   3.472   6.365
 6466WAT     H119640   3.676   3.451   6.417
 6466WAT     H219641   3.827   3.512   6.426
 6467WAT      O19642   2.978   4.594   7.855
 6467WAT     H119643   2.955   4.532   7.780
 6467WAT     H219644   3.012   4.681   7.818
 6468WAT      O19645   9.629   6.583   9.130
 6468WAT     H119646   9.547   6.581   9.074
 6468WAT     H219647   9.621   6.514   9.203
 6469WAT      O19648   2.515   3.894   1.474
 6469WAT     H119649   2.527   3.930   1.566
 6469WAT     H219650   2.591   3.923   1.416
 6470WAT      O19651   6.906   4.171   5.226
 6470WAT     H119652   6.885   4.092   5.284
 6470WAT     H219653   6.929   4.140   5.134
 6471WAT      O19654   7.460   4.019   2.206
 6471WAT     H119655   7.381   3.957   2.212
 6471WAT     H219656   7.531   3.988   2.269
 6472WAT      O19657   1.477   7.686   9.564
 6472WAT     H119658   1.564   7.639   9.546
 6472WAT     H219659   1.448   7.667   9.658
 6473WAT      O19660   9.190   1.054   4.237
 6473WAT     H119661   9.179   1.019   4.144
 6473WAT     H219662   9.119   1.015   4.296
 6474WAT      O19663   7.877   4.327   0.595
 6474WAT     H119664   7.899   4.234   0.564
 6474WAT     H219665   7.778   4.337   0.601
 6475WAT      O19666   3.934   5.934   3.390
 6475WAT     H119667   3.879   6.008   3.349
 6475WAT     H219668   3.989   5.891   3.319
 6476WAT      O19669   5.573   4.410   3.115
 6476WAT     H119670   5.654   4.446   3.163
 6476WAT     H219671   5.550   4.321   3.152
 6477WAT      O19672   5.989   6.126   2.609
 6477WAT     H119673   5.978   6.117   2.708
 6477WAT     H219674   5.930   6.199   2.575
 6478WAT      O19675   6.710   5.121   9.867
 6478WAT     H119676   6.626   5.174   9.874
 6478WAT     H219677   6.757   5.121   9.956
 6479WAT      O19678   6.315   6.576   7.597
 6479WAT     H119679   6.392   6.525   7.635
 6479WAT     H219680   6.249   6.512   7.558
 6480WAT      O19681   6.522   3.123   6.660
 6480WAT     H119682   6.542   3.145   6.755
 6480WAT     H219683   6.474   3.200   6.617
 6481WAT      O19684   6.520   4.741   0.736
 6481WAT     H119685   6.438   4.771   0.687
 6481WAT     H219686   6.494   4.680   0.811
 6482WAT      O19687   7.636   6.635   8.104
 6482WAT     H119688   7.673   6.690   8.030
 6482WAT     H219689   7.567   6.572   8.068
 6483WAT      O19690   8.694   3.348   6.320
 6483WAT     H119691   8.726   3.441   6.301
 6483WAT     H219692   8.668   3.342   6.417
 6484WAT      O19693   0.644   1.985   0.269
 6484WAT     H119694   0.575   1.955   0.335
 6484WAT     H219695   0.630   2.082   0.248
 6485WAT      O19696   9.804   5.553   7.960
 6485WAT     H119697   9.878   5.582   7.898
 6485WAT     H219698   9.789   5.455   7.950
 6486WAT      O19699   5.211   6.602   7.496
 6486WAT     H119700   5.231   6.599   7.594
 6486WAT     H219701   5.192   6.510   7.462
 6487WAT      O19702   9.275   9.243   1.232
 6487WAT     H119703   9.317   9.153   1.244
 6487WAT     H219704   9.181   9.240   1.264
 6488WAT      O19705   7.681   0.286   0.627
 6488WAT     H119706   7.673   0.372   0.577
 6488WAT     H219707   7.705   0.212   0.563
 6489WAT      O19708   1.273   2.943   5.753
 6489WAT     H119709   1.229   3.012   5.695
 6489WAT     H219710   1.306   2.868   5.696
 6490WAT      O19711   4.448   2.967   4.934
 6490WAT     H119712   4.495   2.889   4.975
 6490WAT     H219713   4.494   3.052   4.960
 6491WAT      O19714   5.507   7.443   3.858
 6491WAT     H119715   5.573   7.505   3.900
 6491WAT     H219716   5.416   7.485   3.861
 6492WAT      O19717   8.273   7.583   9.342
 6492WAT     H119718   8.216   7.548   9.416
 6492WAT     H219719   8.367   7.552   9.355
 6493WAT      O19720   0.072   9.246   9.273
 6493WAT     H119721   0.164   9.213   9.294
 6493WAT     H219722   0.012   9.230   9.351
 6494WAT      O19723   2.678   6.696   3.647
 6494WAT     H119724   2.745   6.628   3.676
 6494WAT     H219725   2.693   6.718   3.551
 6495WAT      O19726   0.674   4.992   2.266
 6495WAT     H119727   0.704   5.088   2.260
 6495WAT     H219728   0.574   4.989   2.266
 6496WAT      O19729   9.795   3.374   3.771
 6496WAT     H119730   9.719   3.402   3.831
 6496WAT     H219731   9.776   3.402   3.677
 6497WAT      O19732   2.723   2.327   8.740
 6497WAT     H119733   2.692   2.343   8.833
 6497WAT     H219734   2.807   2.378   8.723
 6498WAT      O19735   6.378   6.334   2.376
 6498WAT     H119736   6.357   6.256   2.435
 6498WAT     H219737   6.473   6.328   2.347
 6499WAT      O19738   7.354   5.313   9.228
 6499WAT     H119739   7.397   5.233   9.186
 6499WAT     H219740   7.257   5.294   9.243
 6500WAT      O19741   4.780   6.523   4.326
 6500WAT     H119742   4.798   6.443   4.269
 6500WAT     H219743   4.727   6.497   4.406
 6501WAT      O19744   5.464   0.245   4.969
 6501WAT     H119745   5.431   0.331   5.008
 6501WAT     H219746   5.529   0.203   5.032
 6502WAT      O19747   2.303   7.456   4.128
 6502WAT     H119748   2.398   7.438   4.101
 6502WAT     H219749   2.287   7.554   4.128
 6503WAT      O19750   4.219   2.443   8.817
 6503WAT     H119751   4.246   2.507   8.746
 6503WAT     H219752   4.218   2.490   8.906
 6504WAT      O19753   7.384   5.689   8.448
 6504WAT     H119754   7.297   5.639   8.447
 6504WAT     H219755   7.392   5.743   8.364
 6505WAT      O19756   4.452   5.380   2.867
 6505WAT     H119757   4.548   5.355   2.852
 6505WAT     H219758   4.443   5.425   2.955
 6506WAT      O19759   5.000   1.912   2.234
 6506WAT     H119760   5.056   1.988   2.203
 6506WAT     H219761   4.940   1.943   2.308
 6507WAT      O19762   7.374   2.766   4.204
 6507WAT     H119763   7.341   2.797   4.293
 6507WAT     H219764   7.461   2.810   4.183
 6508WAT      O19765   4.518   9.604   9.380
 6508WAT     H119766   4.473   9.571   9.297
 6508WAT     H219767   4.461   9.586   9.459
 6509WAT      O19768   6.044   3.203   8.933
 6509WAT     H119769   6.134   3.169   8.906
 6509WAT     H219770   6.052   3.255   9.018
 6510WAT      O19771   9.640   4.525   3.274
 6510WAT     H119772   9.673   4.448   3.220
 6510WAT     H219773   9.649   4.609   3.221
 6511WAT      O19774   6.288   1.077   4.125
 6511WAT     H119775   6.386   1.059   4.116
 6511WAT     H219776   6.275   1.162   4.177
 6512WAT      O19777   0.800   1.278   5.821
 6512WAT     H119778   0.772   1.252   5.729
 6512WAT     H219779   0.749   1.359   5.849
 6513WAT      O19780   9.412   9.579   1.680
 6513WAT     H119781   9.451   9.606   1.592
 6513WAT     H219782   9.453   9.494   1.711
 6514WAT      O19783   6.198   4.062   3.021
 6514WAT     H119784   6.109   4.054   3.066
 6514WAT     H219785   6.204   3.994   2.948
 6515WAT      O19786   8.194   1.722   5.302
 6515WAT     H119787   8.112   1.718   5.359
 6515WAT     H219788   8.187   1.654   5.228
 6516WAT      O19789   5.784   4.713   9.838
 6516WAT     H119790   5.711   4.648   9.815
 6516WAT     H219791   5.798   4.714   9.937
 6517WAT      O19792   6.181   7.666   1.172
 6517WAT     H119793   6.209   7.583   1.220
 6517WAT     H219794   6.248   7.738   1.188
 6518WAT      O19795   8.549   3.600   1.282
 6518WAT     H119796   8.471   3.641   1.329
 6518WAT     H219797   8.548   3.501   1.296
 6519WAT      O19798   3.781   6.800   6.292
 6519WAT     H119799   3.869   6.845   6.309
 6519WAT     H219800   3.713   6.834   6.358
 6520WAT      O19801   5.750   8.925   0.607
 6520WAT     H119802   5.707   9.015   0.609
 6520WAT     H219803   5.744   8.887   0.515
 6521WAT      O19804   5.009   9.519   3.007
 6521WAT     H119805   5.025   9.566   2.921
 6521WAT     H219806   4.961   9.579   3.070
 6522WAT      O19807   8.171   5.283   4.038
 6522WAT     H119808   8.202   5.257   4.129
 6522WAT     H219809   8.183   5.206   3.975
 6523WAT      O19810   2.984   0.040   0.781
 6523WAT     H119811   2.986  -0.047   0.830
 6523WAT     H219812   2.914   0.100   0.822
 6524WAT      O19813   1.356   5.061   2.174
 6524WAT     H119814   1.309   5.082   2.088
 6524WAT     H219815   1.288   5.047   2.246
 6525WAT      O19816   4.332   5.669   2.946
 6525WAT     H119817   4.425   5.646   2.974
 6525WAT     H219818   4.301   5.751   2.994
 6526WAT      O19819   3.315   1.477   0.744
 6526WAT     H119820   3.352   1.423   0.820
 6526WAT     H219821   3.384   1.543   0.714
 6527WAT      O19822   8.975   2.866   1.125
 6527WAT     H119823   9.049   2.837   1.063
 6527WAT     H219824   8.976   2.966   1.134
 6528WAT      O19825   1.727   5.057   3.418
 6528WAT     H119826   1.767   5.007   3.341
 6528WAT     H219827   1.642   5.013   3.446
 6529WAT      O19828   9.134   4.744   0.475
 6529WAT     H119829   9.207   4.720   0.411
 6529WAT     H219830   9.171   4.750   0.568
 6530WAT      O19831   5.122   1.498   2.391
 6530WAT     H119832   5.192   1.544   2.336
 6530WAT     H219833   5.048   1.562   2.411
 6531WAT      O19834   7.957   6.321   0.069
 6531WAT     H119835   7.948   6.411   0.026
 6531WAT     H219836   7.870   6.296   0.112
 6532WAT      O19837   5.417   3.355   9.391
 6532WAT     H119838   5.515   3.336   9.404
 6532WAT     H219839   5.405   3.452   9.369
 6533WAT      O19840   4.556   8.724   4.583
 6533WAT     H119841   4.488   8.792   4.611
 6533WAT     H219842   4.646   8.753   4.615
 6534WAT      O19843   5.232   3.920   6.268
 6534WAT     H119844   5.232   4.005   6.215
 6534WAT     H219845   5.166   3.856   6.229
 6535WAT      O19846   0.676   1.554   2.770
 6535WAT     H119847   0.642   1.514   2.855
 6535WAT     H219848   0.630   1.642   2.754
 6536WAT      O19849   6.053   4.705   7.503
 6536WAT     H119850   6.001   4.686   7.420
 6536WAT     H219851   6.127   4.769   7.482
 6537WAT      O19852   8.473   6.831   7.478
 6537WAT     H119853   8.569   6.858   7.485
 6537WAT     H219854   8.459   6.776   7.396
 6538WAT      O19855   6.192   8.243   7.846
 6538WAT     H119856   6.188   8.284   7.755
 6538WAT     H219857   6.201   8.143   7.838
 6539WAT      O19858   0.068   2.931   4.071
 6539WAT     H119859  -0.007   2.879   4.031
 6539WAT     H219860   0.155   2.887   4.048
 6540WAT      O19861   1.229   0.680   9.794
 6540WAT     H119862   1.208   0.721   9.883
 6540WAT     H219863   1.278   0.746   9.738
 6541WAT      O19864   9.190   6.619   7.664
 6541WAT     H119865   9.187   6.576   7.754
 6541WAT     H219866   9.242   6.705   7.669
 6542WAT      O19867   0.403   6.324   5.067
 6542WAT     H119868   0.334   6.366   5.009
 6542WAT     H219869   0.382   6.342   5.163
 6543WAT      O19870   5.926   7.501   5.206
 6543WAT     H119871   5.938   7.422   5.147
 6543WAT     H219872   5.830   7.526   5.210
 6544WAT      O19873   7.592   2.166   9.035
 6544WAT     H119874   7.545   2.255   9.034
 6544WAT     H219875   7.616   2.142   9.129
 6545WAT      O19876   1.496   3.295   7.364
 6545WAT     H119877   1.421   3.231   7.355
 6545WAT     H219878   1.579   3.246   7.390
 6546WAT      O19879   1.591   2.752   4.682
 6546WAT     H119880   1.498   2.730   4.654
 6546WAT     H219881   1.643   2.783   4.603
 6547WAT      O19882   9.612   4.865   1.952
 6547WAT     H119883   9.533   4.814   1.918
 6547WAT     H219884   9.588   4.909   2.039
 6548WAT      O19885   0.276   8.366   7.498
 6548WAT     H119886   0.303   8.432   7.429
 6548WAT     H219887   0.201   8.309   7.463
 6549WAT      O19888   1.853   1.007   0.828
 6549WAT     H119889   1.754   1.012   0.810
 6549WAT     H219890   1.884   1.094   0.865
 6550WAT      O19891   8.867   9.280   4.108
 6550WAT     H119892   8.832   9.201   4.159
 6550WAT     H219893   8.921   9.337   4.170
 6551WAT      O19894   0.408   4.952   6.862
 6551WAT     H119895   0.333   4.886   6.866
 6551WAT     H219896   0.493   4.905   6.838
 6552WAT      O19897   8.644   3.875   8.294
 6552WAT     H119898   8.587   3.888   8.213
 6552WAT     H219899   8.608   3.799   8.348
 6553WAT      O19900   9.788   2.065   8.558
 6553WAT     H119901   9.765   2.161   8.538
 6553WAT     H219902   9.845   2.062   8.641
 6554WAT      O19903   2.740   5.421   1.458
 6554WAT     H119904   2.647   5.403   1.426
 6554WAT     H219905   2.756   5.373   1.544
 6555WAT      O19906   7.400   2.799   9.857
 6555WAT     H119907   7.319   2.850   9.831
 6555WAT     H219908   7.482   2.849   9.829
 6556WAT      O19909   3.899   8.307   3.612
 6556WAT     H119910   3.918   8.227   3.554
 6556WAT     H219911   3.890   8.389   3.554
 6557WAT      O19912   1.980   8.881   9.576
 6557WAT     H119913   1.958   8.976   9.600
 6557WAT     H219914   1.898   8.825   9.587
 6558WAT      O19915   8.860   4.185   9.804
 6558WAT     H119916   8.933   4.228   9.751
 6558WAT     H219917   8.824   4.251   9.870
 6559WAT      O19918   7.832   2.586   3.254
 6559WAT     H119919   7.771   2.611   3.179
 6559WAT     H219920   7.877   2.500   3.233
 6560WAT      O19921   3.355   4.927   6.877
 6560WAT     H119922   3.296   4.877   6.813
 6560WAT     H219923   3.431   4.969   6.827
 6561WAT      O19924   6.710   4.639   0.575
 6561WAT     H119925   6.634   4.682   0.624
 6561WAT     H219926   6.696   4.539   0.574
 6562WAT      O19927   2.508   0.338   0.283
 6562WAT     H119928   2.525   0.388   0.368
 6562WAT     H219929   2.515   0.240   0.300
 6563WAT      O19930   3.801   8.893   0.082
 6563WAT     H119931   3.719   8.876   0.028
 6563WAT     H219932   3.778   8.954   0.158
 6564WAT      O19933   2.076   6.987   6.529
 6564WAT     H119934   2.053   7.081   6.506
 6564WAT     H219935   2.019   6.955   6.605
 6565WAT      O19936   4.020   2.569   8.479
 6565WAT     H119937   4.019   2.659   8.435
 6565WAT     H219938   4.018   2.498   8.409
 6566WAT      O19939   1.916   0.573   8.766
 6566WAT     H119940   1.917   0.624   8.851
 6566WAT     H219941   1.862   0.622   8.698
 6567WAT      O19942   3.698   1.532   7.041
 6567WAT     H119943   3.716   1.614   6.987
 6567WAT     H219944   3.647   1.466   6.985
 6568WAT      O19945   4.705   9.139   3.092
 6568WAT     H119946   4.606   9.133   3.084
 6568WAT     H219947   4.736   9.081   3.167
 6569WAT      O19948   5.769   8.318   1.236
 6569WAT     H119949   5.864   8.317   1.267
 6569WAT     H219950   5.761   8.378   1.156
 6570WAT      O19951   9.702   5.079   6.887
 6570WAT     H119952   9.646   4.998   6.872
 6570WAT     H219953   9.687   5.145   6.813
 6571WAT      O19954   3.087   9.679   6.829
 6571WAT     H119955   3.019   9.711   6.895
 6571WAT     H219956   3.119   9.756   6.775
 6572WAT      O19957   7.986   8.035   2.371
 6572WAT     H119958   7.920   8.108   2.387
 6572WAT     H219959   7.978   7.966   2.443
 6573WAT      O19960   7.263   6.907   2.603
 6573WAT     H119961   7.163   6.909   2.605
 6573WAT     H219962   7.294   6.891   2.510
 6574WAT      O19963   2.821   3.256   6.757
 6574WAT     H119964   2.855   3.318   6.687
 6574WAT     H219965   2.897   3.224   6.814
 6575WAT      O19966   2.349   5.812   3.558
 6575WAT     H119967   2.278   5.793   3.626
 6575WAT     H219968   2.365   5.730   3.502
 6576WAT      O19969   4.730   3.292   5.800
 6576WAT     H119970   4.643   3.309   5.848
 6576WAT     H219971   4.730   3.199   5.763
 6577WAT      O19972   6.903   1.958   5.630
 6577WAT     H119973   6.941   2.050   5.615
 6577WAT     H219974   6.978   1.895   5.652
 6578WAT      O19975   4.570   6.235   9.865
 6578WAT     H119976   4.568   6.147   9.912
 6578WAT     H219977   4.481   6.253   9.823
 6579WAT      O19978   0.120   1.246   4.997
 6579WAT     H119979   0.089   1.216   5.088
 6579WAT     H219980   0.219   1.256   4.997
 6580WAT      O19981   0.717   6.188   7.850
 6580WAT     H119982   0.738   6.286   7.862
 6580WAT     H219983   0.618   6.177   7.838
 6581WAT      O19984   3.367   1.059   7.589
 6581WAT     H119985   3.392   1.017   7.677
 6581WAT     H219986   3.449   1.093   7.544
 6582WAT      O19987   3.325   9.687   4.571
 6582WAT     H119988   3.252   9.753   4.554
 6582WAT     H219989   3.377   9.671   4.487
 6583WAT      O19990   0.402   7.627   6.031
 6583WAT     H119991   0.329   7.612   5.964
 6583WAT     H219992   0.384   7.712   6.080
 6584WAT      O19993   4.370   1.916   5.045
 6584WAT     H119994   4.458   1.931   5.000
 6584WAT     H219995   4.296   1.947   4.986
 6585WAT      O19996   2.901   8.761   7.182
 6585WAT     H119997   2.961   8.733   7.257
 6585WAT     H219998   2.950   8.757   7.096
 6586WAT      O19999   6.325   1.854   3.453
 6586WAT     H120000   6.290   1.930   3.397
 6586WAT     H220001   6.421   1.837   3.431
 6587WAT      O20002   4.426   3.203   0.537
 6587WAT     H120003   4.412   3.263   0.616
 6587WAT     H220004   4.416   3.108   0.565
 6588WAT      O20005   9.782   6.205   4.251
 6588WAT     H120006   9.793   6.186   4.153
 6588WAT     H220007   9.767   6.303   4.263
 6589WAT      O20008   8.151   5.008   7.538
 6589WAT     H120009   8.233   4.962   7.502
 6589WAT     H220010   8.110   5.064   7.467
 6590WAT      O20011   6.124   3.654   5.269
 6590WAT     H120012   6.077   3.641   5.356
 6590WAT     H220013   6.128   3.751   5.247
 6591WAT      O20014   6.110   2.628   6.502
 6591WAT     H120015   6.101   2.687   6.582
 6591WAT     H220016   6.054   2.665   6.428
 6592WAT      O20017   4.277   2.560   0.789
 6592WAT     H120018   4.194   2.585   0.740
 6592WAT     H220019   4.265   2.471   0.833
 6593WAT      O20020   0.799   8.232   1.506
 6593WAT     H120021   0.756   8.296   1.570
 6593WAT     H220022   0.783   8.264   1.412
 6594WAT      O20023   6.080   8.300   4.913
 6594WAT     H120024   6.105   8.332   4.821
 6594WAT     H220025   6.086   8.376   4.977
 6595WAT      O20026   7.740   9.446   2.726
 6595WAT     H120027   7.770   9.467   2.633
 6595WAT     H220028   7.770   9.518   2.788
 6596WAT      O20029   1.626   7.255   3.278
 6596WAT     H120030   1.725   7.269   3.281
 6596WAT     H220031   1.606   7.167   3.235
 6597WAT      O20032   4.407   7.168   3.532
 6597WAT     H120033   4.331   7.143   3.592
 6597WAT     H220034   4.420   7.097   3.464
 6598WAT      O20035   2.108   7.702   7.411
 6598WAT     H120036   2.116   7.706   7.511
 6598WAT     H220037   2.199   7.715   7.370
 6599WAT      O20038   8.233   7.530   8.127
 6599WAT     H120039   8.201   7.566   8.215
 6599WAT     H220040   8.154   7.502   8.072
 6600WAT      O20041   9.758   6.156   5.333
 6600WAT     H120042   9.842   6.208   5.314
 6600WAT     H220043   9.690   6.216   5.373
 6601WAT      O20044   6.688   1.379   2.489
 6601WAT     H120045   6.680   1.468   2.444
 6601WAT     H220046   6.682   1.306   2.421
 6602WAT      O20047   5.206   8.900   0.033
 6602WAT     H120048   5.251   8.817  -0.001
 6602WAT     H220049   5.276   8.964   0.067
 6603WAT      O20050   4.555   0.901   2.822
 6603WAT     H120051   4.582   0.808   2.794
 6603WAT     H220052   4.458   0.914   2.803
 6604WAT      O20053   1.496   2.205   6.932
 6604WAT     H120054   1.552   2.180   7.011
 6604WAT     H220055   1.480   2.124   6.876
 6605WAT      O20056   4.391   1.714   1.906
 6605WAT     H120057   4.300   1.696   1.944
 6605WAT     H220058   4.459   1.709   1.979
 6606WAT      O20059   7.668   4.299   9.672
 6606WAT     H120060   7.765   4.287   9.650
 6606WAT     H220061   7.658   4.313   9.771
 6607WAT      O20062   7.812   0.147   1.278
 6607WAT     H120063   7.825   0.048   1.283
 6607WAT     H220064   7.729   0.172   1.326
 6608WAT      O20065   0.569   1.174   2.676
 6608WAT     H120066   0.541   1.198   2.769
 6608WAT     H220067   0.490   1.142   2.624
 6609WAT      O20068   2.980   7.560   1.565
 6609WAT     H120069   2.927   7.645   1.571
 6609WAT     H220070   2.969   7.521   1.474
 6610WAT      O20071   5.719   7.338   0.874
 6610WAT     H120072   5.793   7.272   0.887
 6610WAT     H220073   5.758   7.425   0.844
 6611WAT      O20074   7.923   6.013   3.590
 6611WAT     H120075   7.885   6.080   3.655
 6611WAT     H220076   7.866   6.011   3.508
 6612WAT      O20077   5.896   6.126   9.464
 6612WAT     H120078   5.850   6.068   9.396
 6612WAT     H220079   5.861   6.104   9.555
 6613WAT      O20080   5.556   5.253   8.147
 6613WAT     H120081   5.590   5.193   8.074
 6613WAT     H220082   5.633   5.291   8.197
 6614WAT      O20083   5.345   2.338   1.286
 6614WAT     H120084   5.406   2.307   1.359
 6614WAT     H220085   5.323   2.434   1.300
 6615WAT      O20086   7.590   7.952   9.294
 6615WAT     H120087   7.657   7.899   9.345
 6615WAT     H220088   7.618   7.959   9.198
 6616WAT      O20089   6.784   8.123   9.306
 6616WAT     H120090   6.740   8.206   9.272
 6616WAT     H220091   6.786   8.054   9.234
 6617WAT      O20092   8.341   5.489   6.466
 6617WAT     H120093   8.288   5.507   6.549
 6617WAT     H220094   8.438   5.506   6.485
 6618WAT      O20095   5.728   8.338   0.142
 6618WAT     H120096   5.807   8.293   0.182
 6618WAT     H220097   5.653   8.341   0.209
 6619WAT      O20098   7.685   7.439   2.549
 6619WAT     H120099   7.622   7.387   2.607
 6619WAT     H220100   7.743   7.497   2.607
 6620WAT      O20101   5.326   7.061   5.363
 6620WAT     H120102   5.249   7.125   5.354
 6620WAT     H220103   5.296   6.980   5.414
 6621WAT      O20104   4.870   0.269   4.998
 6621WAT     H120105   4.853   0.321   5.081
 6621WAT     H220106   4.887   0.173   5.022
 6622WAT      O20107   7.458   8.898   9.821
 6622WAT     H120108   7.483   8.993   9.837
 6622WAT     H220109   7.536   8.849   9.783
 6623WAT      O20110   8.273   2.716   1.936
 6623WAT     H120111   8.236   2.791   1.992
 6623WAT     H220112   8.354   2.748   1.887
 6624WAT      O20113   2.771   6.569   9.807
 6624WAT     H120114   2.741   6.530   9.720
 6624WAT     H220115   2.861   6.533   9.830
 6625WAT      O20116   1.867   7.531   5.598
 6625WAT     H120117   1.844   7.600   5.667
 6625WAT     H220118   1.861   7.440   5.639
 6626WAT      O20119   1.329   4.538   6.463
 6626WAT     H120120   1.417   4.583   6.451
 6626WAT     H220121   1.329   4.451   6.415
 6627WAT      O20122   4.902   9.553   8.251
 6627WAT     H120123   4.960   9.520   8.177
 6627WAT     H220124   4.818   9.591   8.213
 6628WAT      O20125   3.905   6.249   0.231
 6628WAT     H120126   3.873   6.339   0.200
 6628WAT     H220127   3.994   6.258   0.275
 6629WAT      O20128   5.940   7.081   8.239
 6629WAT     H120129   5.924   7.129   8.152
 6629WAT     H220130   5.860   7.092   8.298
 6630WAT      O20131   6.430   3.817   6.910
 6630WAT     H120132   6.428   3.887   6.839
 6630WAT     H220133   6.506   3.754   6.892
 6631WAT      O20134   7.943   7.928   5.400
 6631WAT     H120135   7.932   8.017   5.357
 6631WAT     H220136   7.908   7.857   5.338
 6632WAT      O20137   2.392   7.622   2.131
 6632WAT     H120138   2.458   7.632   2.205
 6632WAT     H220139   2.300   7.643   2.166
 6633WAT      O20140   4.514   8.481   5.390
 6633WAT     H120141   4.560   8.487   5.301
 6633WAT     H220142   4.454   8.401   5.391
 6634WAT      O20143   4.535   4.931   8.198
 6634WAT     H120144   4.459   4.882   8.155
 6634WAT     H220145   4.606   4.866   8.224
 6635WAT      O20146   7.658   4.440   4.452
 6635WAT     H120147   7.697   4.349   4.467
 6635WAT     H220148   7.578   4.452   4.511
 6636WAT      O20149   6.267   7.790   3.356
 6636WAT     H120150   6.229   7.799   3.448
 6636WAT     H220151   6.244   7.871   3.303
 6637WAT      O20152   2.298   5.042   0.118
 6637WAT     H120153   2.287   5.142   0.117
 6637WAT     H220154   2.220   5.000   0.163
 6638WAT      O20155   6.438   6.898   0.129
 6638WAT     H120156   6.400   6.818   0.175
 6638WAT     H220157   6.481   6.870   0.044
 6639WAT      O20158   5.461   2.021   4.797
 6639WAT     H120159   5.510   1.943   4.837
 6639WAT     H220160   5.393   2.055   4.862
 6640WAT      O20161   0.899   9.138   6.775
 6640WAT     H120162   0.850   9.060   6.812
 6640WAT     H220163   0.966   9.106   6.707
 6641WAT      O20164   7.801   4.698   8.768
 6641WAT     H120165   7.796   4.792   8.733
 6641WAT     H220166   7.862   4.695   8.847
 6642WAT      O20167   3.304   0.977   5.800
 6642WAT     H120168   3.351   1.009   5.717
 6642WAT     H220169   3.208   1.002   5.795
 6643WAT      O20170   5.810   9.232   2.588
 6643WAT     H120171   5.747   9.207   2.661
 6643WAT     H220172   5.764   9.224   2.500
 6644WAT      O20173   8.916   8.810   4.366
 6644WAT     H120174   8.950   8.776   4.279
 6644WAT     H220175   8.822   8.841   4.356
 6645WAT      O20176   9.360   0.393   2.899
 6645WAT     H120177   9.345   0.491   2.883
 6645WAT     H220178   9.320   0.341   2.824
 6646WAT      O20179   1.982   1.971   8.898
 6646WAT     H120180   2.071   2.012   8.877
 6646WAT     H220181   1.983   1.932   8.990
 6647WAT      O20182   9.520   2.055   1.003
 6647WAT     H120183   9.536   1.960   1.031
 6647WAT     H220184   9.597   2.087   0.948
 6648WAT      O20185   9.013   9.246   9.034
 6648WAT     H120186   8.999   9.243   8.935
 6648WAT     H220187   9.111   9.236   9.054
 6649WAT      O20188   7.107   6.358   0.557
 6649WAT     H120189   7.068   6.283   0.611
 6649WAT     H220190   7.061   6.443   0.581
 6650WAT      O20191   1.086   9.699   4.902
 6650WAT     H120192   1.033   9.763   4.846
 6650WAT     H220193   1.182   9.701   4.874
 6651WAT      O20194   6.589   1.065   3.461
 6651WAT     H120195   6.640   1.000   3.518
 6651WAT     H220196   6.490   1.051   3.475
 6652WAT      O20197   2.018   1.618   0.904
 6652WAT     H120198   2.091   1.581   0.962
 6652WAT     H220199   2.001   1.713   0.927
 6653WAT      O20200   8.080   0.790   9.145
 6653WAT     H120201   8.158   0.847   9.120
 6653WAT     H220202   8.010   0.795   9.074
 6654WAT      O20203   1.925   9.428   2.988
 6654WAT     H120204   1.943   9.504   3.051
 6654WAT     H220205   1.849   9.373   3.022
 6655WAT      O20206   2.132   2.657   6.154
 6655WAT     H120207   2.185   2.572   6.151
 6655WAT     H220208   2.117   2.684   6.249
 6656WAT      O20209   5.044   1.467   0.270
 6656WAT     H120210   4.980   1.474   0.194
 6656WAT     H220211   5.119   1.407   0.245
 6657WAT      O20212   9.869   4.296   8.550
 6657WAT     H120213   9.825   4.353   8.480
 6657WAT     H220214   9.939   4.239   8.506
 6658WAT      O20215   3.289   9.622   5.237
 6658WAT     H120216   3.386   9.602   5.247
 6658WAT     H220217   3.275   9.689   5.164
 6659WAT      O20218   7.750   4.724   1.173
 6659WAT     H120219   7.710   4.701   1.262
 6659WAT     H220220   7.678   4.760   1.113
 6660WAT      O20221   4.560   3.652   3.363
 6660WAT     H120222   4.482   3.678   3.420
 6660WAT     H220223   4.631   3.721   3.370
 6661WAT      O20224   2.476   8.322   5.002
 6661WAT     H120225   2.464   8.223   5.011
 6661WAT     H220226   2.425   8.354   4.922
 6662WAT      O20227   8.043   2.859   8.834
 6662WAT     H120228   8.129   2.810   8.851
 6662WAT     H220229   8.037   2.937   8.895
 6663WAT      O20230   8.168   2.359   7.650
 6663WAT     H120231   8.178   2.309   7.736
 6663WAT     H220232   8.078   2.402   7.647
 6664WAT      O20233   5.445   2.017   9.182
 6664WAT     H120234   5.431   2.064   9.095
 6664WAT     H220235   5.541   2.027   9.210
 6665WAT      O20236   8.133   1.473   4.170
 6665WAT     H120237   8.043   1.429   4.166
 6665WAT     H220238   8.127   1.564   4.128
 6666WAT      O20239   6.351   7.930   5.621
 6666WAT     H120240   6.348   7.896   5.715
 6666WAT     H220241   6.320   8.025   5.618
 6667WAT      O20242   7.260   5.896   0.313
 6667WAT     H120243   7.250   5.959   0.236
 6667WAT     H220244   7.224   5.939   0.396
 6668WAT      O20245   3.920   8.069   0.819
 6668WAT     H120246   4.016   8.070   0.791
 6668WAT     H220247   3.876   8.155   0.791
 6669WAT      O20248   9.250   1.541   2.031
 6669WAT     H120249   9.289   1.540   2.123
 6669WAT     H220250   9.177   1.610   2.027
 6670WAT      O20251   7.323   8.021   5.892
 6670WAT     H120252   7.296   8.038   5.987
 6670WAT     H220253   7.269   7.945   5.855
 6671WAT      O20254   1.809   3.812   4.154
 6671WAT     H120255   1.785   3.740   4.089
 6671WAT     H220256   1.906   3.807   4.176
 6672WAT      O20257   6.402   3.329   3.178
 6672WAT     H120258   6.335   3.310   3.105
 6672WAT     H220259   6.467   3.253   3.183
 6673WAT      O20260   4.137   0.787   2.502
 6673WAT     H120261   4.082   0.708   2.476
 6673WAT     H220262   4.082   0.870   2.495
 6674WAT      O20263   4.709   1.846   0.668
 6674WAT     H120264   4.757   1.759   0.665
 6674WAT     H220265   4.611   1.831   0.661
 6675WAT      O20266   3.124   5.689   0.779
 6675WAT     H120267   3.110   5.778   0.824
 6675WAT     H220268   3.082   5.617   0.834
 6676WAT      O20269   9.745   7.655   7.602
 6676WAT     H120270   9.656   7.622   7.570
 6676WAT     H220271   9.781   7.591   7.670
 6677WAT      O20272   9.113   3.884   8.375
 6677WAT     H120273   9.080   3.978   8.385
 6677WAT     H220274   9.040   3.826   8.338
 6678WAT      O20275   2.950   3.841   4.328
 6678WAT     H120276   3.047   3.843   4.302
 6678WAT     H220277   2.933   3.760   4.385
 6679WAT      O20278   1.180   2.414   6.897
 6679WAT     H120279   1.178   2.362   6.811
 6679WAT     H220280   1.099   2.472   6.903
 6680WAT      O20281   9.192   5.697   4.272
 6680WAT     H120282   9.265   5.680   4.206
 6680WAT     H220283   9.113   5.735   4.225
 6681WAT      O20284   7.472   3.326   9.467
 6681WAT     H120285   7.403   3.258   9.492
 6681WAT     H220286   7.465   3.405   9.528
 6682WAT      O20287   9.757   4.553   1.655
 6682WAT     H120288   9.750   4.453   1.659
 6682WAT     H220289   9.853   4.580   1.660
 6683WAT      O20290   6.730   0.575   4.227
 6683WAT     H120291   6.737   0.633   4.146
 6683WAT     H220292   6.820   0.538   4.249
 6684WAT      O20293   5.137   8.628   2.392
 6684WAT     H120294   5.211   8.656   2.330
 6684WAT     H220295   5.126   8.696   2.464
 6685WAT      O20296   0.749   2.295   6.873
 6685WAT     H120297   0.818   2.254   6.933
 6685WAT     H220298   0.687   2.352   6.927
 6686WAT      O20299   0.202   7.898   4.337
 6686WAT     H120300   0.225   7.951   4.255
 6686WAT     H220301   0.263   7.819   4.344
 6687WAT      O20302   6.248   3.465   1.579
 6687WAT     H120303   6.251   3.439   1.482
 6687WAT     H220304   6.165   3.517   1.597
 6688WAT      O20305   8.541   8.777   6.719
 6688WAT     H120306   8.453   8.763   6.764
 6688WAT     H220307   8.608   8.713   6.756
 6689WAT      O20308   1.060   9.197   1.807
 6689WAT     H120309   1.065   9.251   1.723
 6689WAT     H220310   1.152   9.177   1.839
 6690WAT      O20311   4.764   4.525   1.723
 6690WAT     H120312   4.735   4.556   1.633
 6690WAT     H220313   4.856   4.558   1.742
 6691WAT      O20314   3.655   1.747   1.214
 6691WAT     H120315   3.688   1.816   1.149
 6691WAT     H220316   3.621   1.793   1.296
 6692WAT      O20317   0.020   3.708   7.913
 6692WAT     H120318   0.061   3.647   7.846
 6692WAT     H220319   0.093   3.752   7.966
 6693WAT      O20320   5.985   7.481   5.920
 6693WAT     H120321   6.057   7.420   5.884
 6693WAT     H220322   5.896   7.450   5.887
 6694WAT      O20323   5.480   2.109   8.444
 6694WAT     H120324   5.417   2.033   8.460
 6694WAT     H220325   5.566   2.073   8.407
 6695WAT      O20326   0.079   2.189   3.331
 6695WAT     H120327   0.142   2.186   3.408
 6695WAT     H220328   0.111   2.256   3.264
 6696WAT      O20329   4.493   2.949   0.353
 6696WAT     H120330   4.505   3.048   0.339
 6696WAT     H220331   4.484   2.930   0.450
 6697WAT      O20332   8.962   7.839   7.311
 6697WAT     H120333   8.963   7.920   7.369
 6697WAT     H220334   8.929   7.863   7.220
 6698WAT      O20335   2.001   1.598   8.218
 6698WAT     H120336   2.074   1.530   8.207
 6698WAT     H220337   1.993   1.623   8.314
 6699WAT      O20338   1.627   5.998   9.874
 6699WAT     H120339   1.704   6.020   9.815
 6699WAT     H220340   1.616   5.898   9.879
 6700WAT      O20341   8.108   9.176   9.595
 6700WAT     H120342   8.097   9.078   9.580
 6700WAT     H220343   8.198   9.206   9.563
 6701WAT      O20344   2.575   6.719   6.147
 6701WAT     H120345   2.566   6.620   6.157
 6701WAT     H220346   2.671   6.745   6.145
 6702WAT      O20347   8.469   2.839   7.220
 6702WAT     H120348   8.566   2.864   7.218
 6702WAT     H220349   8.449   2.779   7.143
 6703WAT      O20350   3.067   5.928   5.211
 6703WAT     H120351   3.041   5.834   5.190
 6703WAT     H220352   2.994   5.990   5.183
 6704WAT      O20353   2.484   7.319   3.456
 6704WAT     H120354   2.582   7.329   3.440
 6704WAT     H220355   2.456   7.378   3.531
 6705WAT      O20356   2.560   6.176   3.682
 6705WAT     H120357   2.569   6.273   3.663
 6705WAT     H220358   2.621   6.124   3.621
 6706WAT      O20359   9.586   8.305   6.129
 6706WAT     H120360   9.533   8.379   6.088
 6706WAT     H220361   9.533   8.220   6.124
 6707WAT      O20362   1.617   7.241   1.973
 6707WAT     H120363   1.693   7.271   1.916
 6707WAT     H220364   1.630   7.145   1.998
 6708WAT      O20365   4.080   0.083   5.291
 6708WAT     H120366   4.172   0.055   5.318
 6708WAT     H220367   4.013   0.048   5.357
 6709WAT      O20368   2.818   1.558   5.273
 6709WAT     H120369   2.865   1.621   5.211
 6709WAT     H220370   2.732   1.529   5.231
 6710WAT      O20371   3.040   8.938   7.565
 6710WAT     H120372   3.081   8.957   7.476
 6710WAT     H220373   2.955   8.989   7.574
 6711WAT      O20374   2.219   3.558   3.608
 6711WAT     H120375   2.145   3.498   3.577
 6711WAT     H220376   2.184   3.621   3.678
 6712WAT      O20377   8.973   5.422   5.347
 6712WAT     H120378   9.035   5.496   5.320
 6712WAT     H220379   9.007   5.379   5.431
 6713WAT      O20380   1.139   4.653   2.753
 6713WAT     H120381   1.086   4.729   2.717
 6713WAT     H220382   1.080   4.596   2.811
 6714WAT      O20383   2.775   5.370   8.438
 6714WAT     H120384   2.867   5.335   8.455
 6714WAT     H220385   2.733   5.317   8.364
 6715WAT      O20386   5.671   1.493   8.976
 6715WAT     H120387   5.701   1.461   8.887
 6715WAT     H220388   5.748   1.536   9.024
 6716WAT      O20389   5.456   7.679   4.483
 6716WAT     H120390   5.556   7.672   4.484
 6716WAT     H220391   5.417   7.597   4.441
 6717WAT      O20392   3.245   6.058   5.415
 6717WAT     H120393   3.335   6.016   5.400
 6717WAT     H220394   3.179   6.021   5.350
 6718WAT      O20395   1.560   4.353   4.680
 6718WAT     H120396   1.598   4.261   4.667
 6718WAT     H220397   1.476   4.347   4.734
 6719WAT      O20398   5.240   2.712   3.214
 6719WAT     H120399   5.285   2.623   3.214
 6719WAT     H220400   5.182   2.721   3.295
 6720WAT      O20401   6.971   5.925   0.000
 6720WAT     H120402   6.929   5.949   0.088
 6720WAT     H220403   6.960   6.000  -0.064
 6721WAT      O20404   6.277   2.902   5.712
 6721WAT     H120405   6.282   2.884   5.810
 6721WAT     H220406   6.274   2.815   5.663
 6722WAT      O20407   7.988   3.109   2.590
 6722WAT     H120408   7.890   3.121   2.602
 6722WAT     H220409   8.009   3.013   2.573
 6723WAT      O20410   3.783   9.795   3.075
 6723WAT     H120411   3.792   9.814   2.977
 6723WAT     H220412   3.791   9.880   3.126
 6724WAT      O20413   2.395   6.725   3.001
 6724WAT     H120414   2.326   6.659   3.032
 6724WAT     H220415   2.475   6.720   3.061
 6725WAT      O20416   6.378   8.648   3.610
 6725WAT     H120417   6.333   8.709   3.675
 6725WAT     H220418   6.467   8.620   3.647
 6726WAT      O20419   1.393   6.846   6.327
 6726WAT     H120420   1.420   6.774   6.391
 6726WAT     H220421   1.464   6.859   6.259
 6727WAT      O20422   9.011   8.728   6.657
 6727WAT     H120423   9.070   8.751   6.579
 6727WAT     H220424   9.053   8.657   6.712
 6728WAT      O20425   4.323   9.493   1.418
 6728WAT     H120426   4.395   9.547   1.460
 6728WAT     H220427   4.357   9.402   1.396
 6729WAT      O20428   1.724   6.408   3.691
 6729WAT     H120429   1.678   6.480   3.743
 6729WAT     H220430   1.672   6.388   3.608
 6730WAT      O20431   2.223   1.178   0.556
 6730WAT     H120432   2.250   1.226   0.640
 6730WAT     H220433   2.131   1.207   0.529
 6731WAT      O20434   6.818   7.336   9.168
 6731WAT     H120435   6.903   7.291   9.195
 6731WAT     H220436   6.741   7.274   9.182
 6732WAT      O20437   0.469   0.630   8.857
 6732WAT     H120438   0.553   0.629   8.911
 6732WAT     H220439   0.433   0.537   8.849
 6733WAT      O20440   7.505   1.299   0.064
 6733WAT     H120441   7.522   1.390   0.101
 6733WAT     H220442   7.467   1.240   0.135
 6734WAT      O20443   1.485   6.064   8.368
 6734WAT     H120444   1.514   5.986   8.424
 6734WAT     H220445   1.401   6.103   8.406
 6735WAT      O20446   2.466   3.322   6.430
 6735WAT     H120447   2.453   3.254   6.503
 6735WAT     H220448   2.417   3.406   6.454
 6736WAT      O20449   1.934   3.914   6.987
 6736WAT     H120450   1.857   3.972   6.960
 6736WAT     H220451   1.995   3.901   6.909
 6737WAT      O20452   2.032   5.125   0.567
 6737WAT     H120453   2.035   5.073   0.481
 6737WAT     H220454   1.944   5.110   0.611
 6738WAT      O20455   7.418   2.682   9.111
 6738WAT     H120456   7.464   2.767   9.137
 6738WAT     H220457   7.319   2.692   9.125
 6739WAT      O20458   1.831   5.675   1.846
 6739WAT     H120459   1.898   5.734   1.801
 6739WAT     H220460   1.861   5.657   1.939
 6740WAT      O20461   8.825   6.228   6.495
 6740WAT     H120462   8.825   6.217   6.396
 6740WAT     H220463   8.800   6.141   6.538
 6741WAT      O20464   5.053   9.413   1.097
 6741WAT     H120465   4.960   9.390   1.126
 6741WAT     H220466   5.089   9.339   1.041
 6742WAT      O20467   1.704   5.603   6.072
 6742WAT     H120468   1.626   5.615   6.133
 6742WAT     H220469   1.690   5.657   5.988
 6743WAT      O20470   5.725   9.286   4.993
 6743WAT     H120471   5.710   9.188   4.982
 6743WAT     H220472   5.797   9.316   4.930
 6744WAT      O20473   8.240   5.575   6.207
 6744WAT     H120474   8.256   5.546   6.302
 6744WAT     H220475   8.167   5.520   6.167
 6745WAT      O20476   8.272   9.135   5.738
 6745WAT     H120477   8.247   9.166   5.829
 6745WAT     H220478   8.286   9.036   5.739
 6746WAT      O20479   9.085   1.779   8.662
 6746WAT     H120480   9.141   1.783   8.744
 6746WAT     H220481   9.144   1.783   8.581
 6747WAT      O20482   2.126   3.957   6.777
 6747WAT     H120483   2.100   3.936   6.683
 6747WAT     H220484   2.163   4.050   6.782
 6748WAT      O20485   0.624   8.571   5.736
 6748WAT     H120486   0.639   8.477   5.764
 6748WAT     H220487   0.602   8.627   5.816
 6749WAT      O20488   8.860   4.787   0.028
 6749WAT     H120489   8.896   4.876   0.056
 6749WAT     H220490   8.760   4.790   0.030
 6750WAT      O20491   7.743   2.134   1.356
 6750WAT     H120492   7.839   2.161   1.358
 6750WAT     H220493   7.719   2.103   1.264
 6751WAT      O20494   6.969   7.560   6.534
 6751WAT     H120495   6.978   7.644   6.587
 6751WAT     H220496   7.048   7.501   6.551
 6752WAT      O20497   0.223   8.641   2.003
 6752WAT     H120498   0.243   8.547   2.029
 6752WAT     H220499   0.264   8.660   1.914
 6753WAT      O20500   9.141   9.513   8.523
 6753WAT     H120501   9.163   9.578   8.451
 6753WAT     H220502   9.069   9.451   8.492
 6754WAT      O20503   8.003   5.857   2.776
 6754WAT     H120504   7.979   5.760   2.769
 6754WAT     H220505   7.921   5.911   2.797
 6755WAT      O20506   9.107   0.420   4.765
 6755WAT     H120507   9.199   0.447   4.795
 6755WAT     H220508   9.105   0.322   4.748
 6756WAT      O20509   5.611   9.078   8.801
 6756WAT     H120510   5.707   9.102   8.783
 6756WAT     H220511   5.575   9.137   8.873
 6757WAT      O20512   3.126   3.141   8.675
 6757WAT     H120513   3.140   3.129   8.773
 6757WAT     H220514   3.215   3.152   8.630
 6758WAT      O20515   6.654   3.287   9.793
 6758WAT     H120516   6.691   3.302   9.884
 6758WAT     H220517   6.590   3.361   9.771
 6759WAT      O20518   4.419   2.572   1.101
 6759WAT     H120519   4.451   2.574   1.006
 6759WAT     H220520   4.461   2.648   1.151
 6760WAT      O20521   3.392   4.089   6.765
 6760WAT     H120522   3.421   3.993   6.766
 6760WAT     H220523   3.435   4.138   6.840
 6761WAT      O20524   5.217   9.294   7.016
 6761WAT     H120525   5.289   9.361   7.033
 6761WAT     H220526   5.153   9.293   7.093
 6762WAT      O20527   0.613   3.834   3.714
 6762WAT     H120528   0.604   3.844   3.813
 6762WAT     H220529   0.668   3.908   3.677
 6763WAT      O20530   5.607   1.845   4.911
 6763WAT     H120531   5.692   1.871   4.957
 6763WAT     H220532   5.552   1.789   4.973
 6764WAT      O20533   8.528   2.572   4.747
 6764WAT     H120534   8.519   2.622   4.833
 6764WAT     H220535   8.589   2.494   4.759
 6765WAT      O20536   4.391   3.436   8.773
 6765WAT     H120537   4.419   3.349   8.813
 6765WAT     H220538   4.296   3.454   8.797
 6766WAT      O20539   9.031   6.905   4.995
 6766WAT     H120540   9.075   6.958   5.067
 6766WAT     H220541   9.087   6.826   4.973
 6767WAT      O20542   6.700   6.727   7.501
 6767WAT     H120543   6.617   6.782   7.494
 6767WAT     H220544   6.681   6.633   7.473
 6768WAT      O20545   1.573   1.865   4.242
 6768WAT     H120546   1.670   1.885   4.257
 6768WAT     H220547   1.551   1.776   4.282
 6769WAT      O20548   0.577   5.504   6.044
 6769WAT     H120549   0.487   5.466   6.069
 6769WAT     H220550   0.596   5.481   5.949
 6770WAT      O20551   1.808   7.755   2.444
 6770WAT     H120552   1.815   7.825   2.373
 6770WAT     H220553   1.712   7.733   2.460
 6771WAT      O20554   3.808   0.035   4.144
 6771WAT     H120555   3.847  -0.028   4.211
 6771WAT     H220556   3.834   0.005   4.052
 6772WAT      O20557   8.177   8.587   1.415
 6772WAT     H120558   8.228   8.669   1.388
 6772WAT     H220559   8.086   8.589   1.374
 6773WAT      O20560   0.259   0.089   4.690
 6773WAT     H120561   0.291   0.160   4.627
 6773WAT     H220562   0.334   0.027   4.712
 6774WAT      O20563   3.225   8.989   1.223
 6774WAT     H120564   3.223   8.906   1.167
 6774WAT     H220565   3.180   9.064   1.174
 6775WAT      O20566   7.556   2.617   4.488
 6775WAT     H120567   7.620   2.688   4.459
 6775WAT     H220568   7.538   2.555   4.412
 6776WAT      O20569   4.527   3.466   6.952
 6776WAT     H120570   4.520   3.492   6.856
 6776WAT     H220571   4.528   3.548   7.009
 6777WAT      O20572   5.444   4.656   2.010
 6777WAT     H120573   5.436   4.615   1.920
 6777WAT     H220574   5.387   4.738   2.015
 6778WAT      O20575   5.650   9.195   2.820
 6778WAT     H120576   5.666   9.169   2.915
 6778WAT     H220577   5.556   9.227   2.809
 6779WAT      O20578   3.289   0.145   4.311
 6779WAT     H120579   3.307   0.242   4.297
 6779WAT     H220580   3.356   0.091   4.260
 6780WAT      O20581   3.743   6.999   5.861
 6780WAT     H120582   3.682   6.931   5.820
 6780WAT     H220583   3.735   7.085   5.811
 6781WAT      O20584   0.493   3.783   3.999
 6781WAT     H120585   0.406   3.733   3.996
 6781WAT     H220586   0.568   3.717   4.001
 6782WAT      O20587   4.409   8.629   5.654
 6782WAT     H120588   4.452   8.547   5.690
 6782WAT     H220589   4.390   8.692   5.730
 6783WAT      O20590   7.078   4.680   8.938
 6783WAT     H120591   6.993   4.684   8.886
 6783WAT     H220592   7.120   4.771   8.939
 6784WAT      O20593   3.805   3.901   6.210
 6784WAT     H120594   3.844   3.990   6.188
 6784WAT     H220595   3.710   3.912   6.237
 6785WAT      O20596   5.543   8.818   0.935
 6785WAT     H120597   5.533   8.819   1.035
 6785WAT     H220598   5.479   8.752   0.896
 6786WAT      O20599   0.175   1.664   1.993
 6786WAT     H120600   0.134   1.732   2.054
 6786WAT     H220601   0.221   1.711   1.917
 6787WAT      O20602   2.434   2.111   4.534
 6787WAT     H120603   2.470   2.156   4.616
 6787WAT     H220604   2.384   2.029   4.561
 6788WAT      O20605   7.791   3.635   5.014
 6788WAT     H120606   7.753   3.568   4.950
 6788WAT     H220607   7.731   3.642   5.094
 6789WAT      O20608   1.213   6.768   0.407
 6789WAT     H120609   1.296   6.810   0.371
 6789WAT     H220610   1.160   6.728   0.332
 6790WAT      O20611   5.879   9.612   2.481
 6790WAT     H120612   5.862   9.685   2.548
 6790WAT     H220613   5.977   9.596   2.474
 6791WAT      O20614   4.883   3.492   8.378
 6791WAT     H120615   4.889   3.588   8.407
 6791WAT     H220616   4.795   3.454   8.406
 6792WAT      O20617   6.697   5.215   1.247
 6792WAT     H120618   6.760   5.249   1.177
 6792WAT     H220619   6.613   5.269   1.245
 6793WAT      O20620   9.450   7.889   8.821
 6793WAT     H120621   9.471   7.925   8.912
 6793WAT     H220622   9.406   7.960   8.767
 6794WAT      O20623   6.181   3.867   5.789
 6794WAT     H120624   6.167   3.933   5.715
 6794WAT     H220625   6.165   3.774   5.754
 6795WAT      O20626   5.437   4.731   7.317
 6795WAT     H120627   5.509   4.799   7.328
 6795WAT     H220628   5.374   4.761   7.245
 6796WAT      O20629   8.965   7.814   8.806
 6796WAT     H120630   8.968   7.822   8.906
 6796WAT     H220631   9.034   7.749   8.775
 6797WAT      O20632   7.734   9.808   5.923
 6797WAT     H120633   7.691   9.737   5.979
 6797WAT     H220634   7.682   9.820   5.839
 6798WAT      O20635   8.596   1.628   6.940
 6798WAT     H120636   8.536   1.570   6.885
 6798WAT     H220637   8.691   1.611   6.914
 6799WAT      O20638   0.589   3.108   0.125
 6799WAT     H120639   0.574   3.163   0.043
 6799WAT     H220640   0.501   3.094   0.172
 6800WAT      O20641   1.488   5.497   8.451
 6800WAT     H120642   1.414   5.514   8.516
 6800WAT     H220643   1.568   5.462   8.501
 6801WAT      O20644   9.211   3.393   0.198
 6801WAT     H120645   9.292   3.447   0.177
 6801WAT     H220646   9.219   3.355   0.290
 6802WAT      O20647   6.235   1.008   9.238
 6802WAT     H120648   6.150   0.956   9.233
 6802WAT     H220649   6.215   1.105   9.248
 6803WAT      O20650   9.562   4.037   2.618
 6803WAT     H120651   9.602   3.945   2.615
 6803WAT     H220652   9.539   4.065   2.525
 6804WAT      O20653   3.464   2.628   3.300
 6804WAT     H120654   3.400   2.674   3.238
 6804WAT     H220655   3.555   2.665   3.288
 6805WAT      O20656   8.479   6.927   3.061
 6805WAT     H120657   8.540   6.977   3.000
 6805WAT     H220658   8.384   6.947   3.038
 6806WAT      O20659   1.795   1.660   7.116
 6806WAT     H120660   1.740   1.653   7.033
 6806WAT     H220661   1.746   1.712   7.186
 6807WAT      O20662   7.657   3.034   0.480
 6807WAT     H120663   7.567   3.016   0.520
 6807WAT     H220664   7.678   3.131   0.487
 6808WAT      O20665   1.964   4.372   6.106
 6808WAT     H120666   1.937   4.381   6.202
 6808WAT     H220667   1.934   4.283   6.071
 6809WAT      O20668   5.248   1.710   0.954
 6809WAT     H120669   5.261   1.779   1.025
 6809WAT     H220670   5.192   1.635   0.990
 6810WAT      O20671   6.319   7.512   4.976
 6810WAT     H120672   6.253   7.568   5.025
 6810WAT     H220673   6.284   7.492   4.884
 6811WAT      O20674   1.541   3.483   5.527
 6811WAT     H120675   1.571   3.569   5.484
 6811WAT     H220676   1.534   3.412   5.457
 6812WAT      O20677   5.642   4.525   4.598
 6812WAT     H120678   5.612   4.620   4.606
 6812WAT     H220679   5.605   4.486   4.514
 6813WAT      O20680   2.197   4.546   7.646
 6813WAT     H120681   2.239   4.568   7.735
 6813WAT     H220682   2.268   4.541   7.576
 6814WAT      O20683   3.905   3.879   6.706
 6814WAT     H120684   3.999   3.893   6.677
 6814WAT     H220685   3.894   3.908   6.801
 6815WAT      O20686   1.035   0.264   9.571
 6815WAT     H120687   1.056   0.362   9.575
 6815WAT     H220688   0.939   0.250   9.597
 6816WAT      O20689   9.010   8.192   8.991
 6816WAT     H120690   9.018   8.151   9.082
 6816WAT     H220691   8.943   8.141   8.937
 6817WAT      O20692   2.042   6.868   5.026
 6817WAT     H120693   2.113   6.815   4.980
 6817WAT     H220694   1.953   6.825   5.011
 6818WAT      O20695   3.117   0.211   8.667
 6818WAT     H120696   3.018   0.199   8.674
 6818WAT     H220697   3.144   0.297   8.711
 6819WAT      O20698   7.878   7.678   2.169
 6819WAT     H120699   7.834   7.704   2.255
 6819WAT     H220700   7.870   7.754   2.104
 6820WAT      O20701   9.540   3.163   9.823
 6820WAT     H120702   9.578   3.211   9.903
 6820WAT     H220703   9.581   3.072   9.817
 6821WAT      O20704   6.565   8.300   1.033
 6821WAT     H120705   6.626   8.306   1.112
 6821WAT     H220706   6.473   8.274   1.064
 6822WAT      O20707   9.690   4.225   4.996
 6822WAT     H120708   9.594   4.249   5.007
 6822WAT     H220709   9.746   4.307   5.005
 6823WAT      O20710   0.884   5.787   8.474
 6823WAT     H120711   0.854   5.807   8.380
 6823WAT     H220712   0.957   5.851   8.499
 6824WAT      O20713   6.381   4.916   7.818
 6824WAT     H120714   6.420   4.840   7.765
 6824WAT     H220715   6.303   4.954   7.770
 6825WAT      O20716   6.257   3.390   5.514
 6825WAT     H120717   6.337   3.377   5.455
 6825WAT     H220718   6.199   3.309   5.509
 6826WAT      O20719   0.532   8.725   3.001
 6826WAT     H120720   0.542   8.806   3.059
 6826WAT     H220721   0.618   8.706   2.954
 6827WAT      O20722   0.599   2.470   7.008
 6827WAT     H120723   0.527   2.408   7.040
 6827WAT     H220724   0.557   2.553   6.970
 6828WAT      O20725   6.805   5.855   5.043
 6828WAT     H120726   6.873   5.796   5.086
 6828WAT     H220727   6.714   5.816   5.056
 6829WAT      O20728   5.815   5.723   4.715
 6829WAT     H120729   5.773   5.814   4.723
 6829WAT     H220730   5.835   5.688   4.807
 6830WAT      O20731   0.223   7.149   6.138
 6830WAT     H120732   0.309   7.145   6.190
 6830WAT     H220733   0.149   7.111   6.194
 6831WAT      O20734   1.323   9.714   6.557
 6831WAT     H120735   1.284   9.623   6.569
 6831WAT     H220736   1.253   9.777   6.523
 6832WAT      O20737   6.741   2.418   9.628
 6832WAT     H120738   6.817   2.439   9.688
 6832WAT     H220739   6.657   2.460   9.664
 6833WAT      O20740   9.785   1.593   3.905
 6833WAT     H120741   9.723   1.667   3.931
 6833WAT     H220742   9.735   1.506   3.906
 6834WAT      O20743   8.152   4.871   3.448
 6834WAT     H120744   8.161   4.773   3.461
 6834WAT     H220745   8.242   4.913   3.450
 6835WAT      O20746   3.272   1.650   8.315
 6835WAT     H120747   3.353   1.614   8.268
 6835WAT     H220748   3.190   1.606   8.277
 6836WAT      O20749   4.097   7.277   5.682
 6836WAT     H120750   4.106   7.373   5.710
 6836WAT     H220751   4.170   7.223   5.724
 6837WAT      O20752   6.754   8.643   9.170
 6837WAT     H120753   6.720   8.694   9.249
 6837WAT     H220754   6.678   8.624   9.108
 6838WAT      O20755   4.544   2.871   9.647
 6838WAT     H120756   4.630   2.836   9.611
 6838WAT     H220757   4.480   2.795   9.659
 6839WAT      O20758   8.525   0.500   5.090
 6839WAT     H120759   8.506   0.404   5.113
 6839WAT     H220760   8.618   0.508   5.054
 6840WAT      O20761   7.632   7.781   4.649
 6840WAT     H120762   7.572   7.721   4.596
 6840WAT     H220763   7.722   7.738   4.658
 6841WAT      O20764   3.078   7.868   0.129
 6841WAT     H120765   3.166   7.820   0.135
 6841WAT     H220766   3.022   7.826   0.057
 6842WAT      O20767   0.044   5.033   6.975
 6842WAT     H120768  -0.053   5.043   6.952
 6842WAT     H220769   0.071   5.107   7.036
 6843WAT      O20770   2.670   1.284   7.537
 6843WAT     H120771   2.658   1.299   7.635
 6843WAT     H220772   2.726   1.357   7.498
 6844WAT      O20773   6.154   2.257   9.665
 6844WAT     H120774   6.094   2.309   9.726
 6844WAT     H220775   6.208   2.320   9.609
 6845WAT      O20776   3.540   0.531   0.239
 6845WAT     H120777   3.464   0.587   0.272
 6845WAT     H220778   3.567   0.466   0.311
 6846WAT      O20779   5.013   2.003   1.443
 6846WAT     H120780   5.015   2.021   1.541
 6846WAT     H220781   5.030   2.088   1.394
 6847WAT      O20782   9.019   5.093   3.299
 6847WAT     H120783   9.044   4.999   3.321
 6847WAT     H220784   9.101   5.146   3.281
 6848WAT      O20785   9.803   9.060   0.641
 6848WAT     H120786   9.801   9.158   0.662
 6848WAT     H220787   9.715   9.019   0.665
 6849WAT      O20788   0.028   5.171   5.470
 6849WAT     H120789  -0.011   5.087   5.432
 6849WAT     H220790   0.079   5.150   5.553
 6850WAT      O20791   2.735   0.806   1.650
 6850WAT     H120792   2.649   0.857   1.656
 6850WAT     H220793   2.796   0.835   1.724
 6851WAT      O20794   1.385   3.748   8.490
 6851WAT     H120795   1.378   3.710   8.582
 6851WAT     H220796   1.464   3.809   8.484
 6852WAT      O20797   5.932   3.956   0.491
 6852WAT     H120798   5.918   4.018   0.414
 6852WAT     H220799   5.900   4.000   0.575
 6853WAT      O20800   7.958   5.406   0.551
 6853WAT     H120801   8.033   5.366   0.498
 6853WAT     H220802   7.987   5.419   0.646
 6854WAT      O20803   1.651   5.792   6.563
 6854WAT     H120804   1.606   5.862   6.619
 6854WAT     H220805   1.651   5.820   6.467
 6855WAT      O20806   9.133   9.368   4.443
 6855WAT     H120807   9.151   9.456   4.400
 6855WAT     H220808   9.220   9.326   4.470
 6856WAT      O20809   9.428   4.165   2.981
 6856WAT     H120810   9.449   4.215   2.897
 6856WAT     H220811   9.393   4.228   3.049
 6857WAT      O20812   9.665   8.937   7.665
 6857WAT     H120813   9.729   8.870   7.705
 6857WAT     H220814   9.703   9.029   7.674
 6858WAT      O20815   5.617   8.942   7.974
 6858WAT     H120816   5.680   8.877   7.933
 6858WAT     H220817   5.560   8.896   8.042
 6859WAT      O20818   4.833   6.404   0.802
 6859WAT     H120819   4.932   6.393   0.812
 6859WAT     H220820   4.792   6.316   0.780
 6860WAT      O20821   2.218   3.171   7.136
 6860WAT     H120822   2.296   3.153   7.076
 6860WAT     H220823   2.209   3.096   7.201
 6861WAT      O20824   2.739   3.603   0.394
 6861WAT     H120825   2.662   3.551   0.358
 6861WAT     H220826   2.822   3.547   0.392
 6862WAT      O20827   0.785   2.740   7.034
 6862WAT     H120828   0.749   2.686   7.110
 6862WAT     H220829   0.792   2.836   7.060
 6863WAT      O20830   3.000   8.230   2.366
 6863WAT     H120831   3.018   8.232   2.268
 6863WAT     H220832   2.976   8.322   2.397
 6864WAT      O20833   7.276   6.806   4.125
 6864WAT     H120834   7.200   6.855   4.082
 6864WAT     H220835   7.239   6.741   4.192
 6865WAT      O20836   6.303   2.366   1.006
 6865WAT     H120837   6.387   2.331   0.965
 6865WAT     H220838   6.252   2.419   0.939
 6866WAT      O20839   6.460   9.504   6.326
 6866WAT     H120840   6.513   9.574   6.279
 6866WAT     H220841   6.405   9.452   6.260
 6867WAT      O20842   8.444   0.660   8.830
 6867WAT     H120843   8.536   0.683   8.861
 6867WAT     H220844   8.445   0.650   8.730
 6868WAT      O20845   1.111   0.027   0.298
 6868WAT     H120846   1.094  -0.048   0.233
 6868WAT     H220847   1.025   0.054   0.341
 6869WAT      O20848   7.918   1.311   9.386
 6869WAT     H120849   7.941   1.216   9.363
 6869WAT     H220850   7.821   1.316   9.410
 6870WAT      O20851   7.230   2.622   7.866
 6870WAT     H120852   7.245   2.624   7.965
 6870WAT     H220853   7.142   2.579   7.847
 6871WAT      O20854   2.864   5.091   0.267
 6871WAT     H120855   2.921   5.103   0.185
 6871WAT     H220856   2.768   5.080   0.240
 6872WAT      O20857   3.766   3.593   7.842
 6872WAT     H120858   3.711   3.510   7.854
 6872WAT     H220859   3.746   3.633   7.752
 6873WAT      O20860   9.111   4.023   6.219
 6873WAT     H120861   9.101   3.926   6.243
 6873WAT     H220862   9.080   4.037   6.125
 6874WAT      O20863   3.447   8.873   1.633
 6874WAT     H120864   3.408   8.962   1.659
 6874WAT     H220865   3.473   8.823   1.715
 6875WAT      O20866   7.833   5.410   7.679
 6875WAT     H120867   7.765   5.389   7.609
 6875WAT     H220868   7.885   5.327   7.701
 6876WAT      O20869   8.012   5.071   2.214
 6876WAT     H120870   7.982   4.982   2.250
 6876WAT     H220871   8.014   5.067   2.114
 6877WAT      O20872   1.963   4.250   0.395
 6877WAT     H120873   1.976   4.207   0.485
 6877WAT     H220874   1.905   4.331   0.405
 6878WAT      O20875   3.388   5.262   6.371
 6878WAT     H120876   3.329   5.188   6.401
 6878WAT     H220877   3.372   5.343   6.427
 6879WAT      O20878   0.316   6.425   4.569
 6879WAT     H120879   0.237   6.469   4.613
 6879WAT     H220880   0.388   6.492   4.555
 6880WAT      O20881   2.850   2.236   9.742
 6880WAT     H120882   2.822   2.317   9.690
 6880WAT     H220883   2.949   2.236   9.751
 6881WAT      O20884   2.777   4.518   0.114
 6881WAT     H120885   2.679   4.530   0.131
 6881WAT     H220886   2.823   4.498   0.201
 6882WAT      O20887   9.595   7.749   4.715
 6882WAT     H120888   9.693   7.770   4.713
 6882WAT     H220889   9.558   7.770   4.805
 6883WAT      O20890   2.934   6.290   5.364
 6883WAT     H120891   3.010   6.336   5.319
 6883WAT     H220892   2.848   6.335   5.339
 6884WAT      O20893   0.016   6.558   8.252
 6884WAT     H120894   0.067   6.486   8.204
 6884WAT     H220895  -0.081   6.532   8.257
 6885WAT      O20896   3.012   8.136   8.366
 6885WAT     H120897   3.024   8.060   8.302
 6885WAT     H220898   3.089   8.138   8.430
 6886WAT      O20899   2.242   4.624   1.289
 6886WAT     H120900   2.181   4.622   1.209
 6886WAT     H220901   2.318   4.562   1.274
 6887WAT      O20902   6.163   3.317   5.030
 6887WAT     H120903   6.123   3.268   5.107
 6887WAT     H220904   6.257   3.343   5.052
 6888WAT      O20905   4.010   9.418   2.437
 6888WAT     H120906   4.043   9.328   2.466
 6888WAT     H220907   4.077   9.488   2.463
 6889WAT      O20908   2.702   8.063   5.809
 6889WAT     H120909   2.664   7.985   5.758
 6889WAT     H220910   2.777   8.031   5.867
 6890WAT      O20911   3.024   7.821   4.864
 6890WAT     H120912   3.100   7.852   4.920
 6890WAT     H220913   3.036   7.724   4.842
 6891WAT      O20914   5.182   0.241   6.613
 6891WAT     H120915   5.279   0.216   6.605
 6891WAT     H220916   5.175   0.337   6.638
 6892WAT      O20917   1.658   3.689   1.187
 6892WAT     H120918   1.582   3.629   1.211
 6892WAT     H220919   1.744   3.645   1.212
 6893WAT      O20920   9.243   2.337   3.768
 6893WAT     H120921   9.206   2.291   3.687
 6893WAT     H220922   9.323   2.390   3.742
 6894WAT      O20923   9.433   5.115   0.095
 6894WAT     H120924   9.528   5.085   0.084
 6894WAT     H220925   9.378   5.039   0.130
 6895WAT      O20926   7.748   7.189   8.837
 6895WAT     H120927   7.785   7.246   8.911
 6895WAT     H220928   7.759   7.235   8.750
 6896WAT      O20929   6.193   1.028   6.584
 6896WAT     H120930   6.161   1.121   6.602
 6896WAT     H220931   6.292   1.031   6.567
 6897WAT      O20932   6.981   9.007   0.401
 6897WAT     H120933   6.957   8.910   0.403
 6897WAT     H220934   6.950   9.050   0.486
 6898WAT      O20935   0.268   0.363   6.999
 6898WAT     H120936   0.184   0.397   6.957
 6898WAT     H220937   0.291   0.419   7.079
 6899WAT      O20938   3.386   5.472   9.024
 6899WAT     H120939   3.420   5.400   9.084
 6899WAT     H220940   3.310   5.437   8.970
 6900WAT      O20941   7.699   2.539   0.027
 6900WAT     H120942   7.759   2.523   0.105
 6900WAT     H220943   7.608   2.565   0.060
 6901WAT      O20944   9.247   6.323   1.438
 6901WAT     H120945   9.282   6.415   1.454
 6901WAT     H220946   9.224   6.280   1.525
 6902WAT      O20947   5.135   6.480   6.529
 6902WAT     H120948   5.198   6.410   6.496
 6902WAT     H220949   5.048   6.474   6.480
 6903WAT      O20950   4.138   2.369   8.195
 6903WAT     H120951   4.216   2.335   8.249
 6903WAT     H220952   4.108   2.298   8.132
 6904WAT      O20953   7.203   1.441   2.923
 6904WAT     H120954   7.241   1.462   2.833
 6904WAT     H220955   7.269   1.465   2.994
 6905WAT      O20956   0.240   1.179   9.510
 6905WAT     H120957   0.270   1.132   9.427
 6905WAT     H220958   0.319   1.212   9.561
 6906WAT      O20959   5.615   9.194   4.383
 6906WAT     H120960   5.666   9.278   4.363
 6906WAT     H220961   5.620   9.133   4.304
 6907WAT      O20962   2.656   4.689   8.653
 6907WAT     H120963   2.566   4.731   8.637
 6907WAT     H220964   2.650   4.627   8.732
 6908WAT      O20965   9.367   8.839   1.598
 6908WAT     H120966   9.267   8.831   1.591
 6908WAT     H220967   9.410   8.773   1.537
 6909WAT      O20968   3.049   5.192   9.186
 6909WAT     H120969   2.986   5.181   9.109
 6909WAT     H220970   3.059   5.289   9.208
 6910WAT      O20971   9.685   0.090   6.725
 6910WAT     H120972   9.669  -0.008   6.740
 6910WAT     H220973   9.602   0.141   6.744
 6911WAT      O20974   7.910   5.667   0.424
 6911WAT     H120975   7.853   5.587   0.405
 6911WAT     H220976   7.964   5.651   0.507
 6912WAT      O20977   4.622   5.950   4.774
 6912WAT     H120978   4.544   5.887   4.772
 6912WAT     H220979   4.613   6.011   4.853
 6913WAT      O20980   5.712   8.678   5.565
 6913WAT     H120981   5.734   8.734   5.645
 6913WAT     H220982   5.765   8.593   5.568
 6914WAT      O20983   3.891   8.990   6.723
 6914WAT     H120984   3.888   9.078   6.675
 6914WAT     H220985   3.804   8.975   6.770
 6915WAT      O20986   9.236   7.094   1.689
 6915WAT     H120987   9.300   7.114   1.615
 6915WAT     H220988   9.281   7.110   1.777
 6916WAT      O20989   4.265   8.934   0.563
 6916WAT     H120990   4.210   9.016   0.579
 6916WAT     H220991   4.297   8.898   0.651
 6917WAT      O20992   6.670   1.973   5.774
 6917WAT     H120993   6.612   2.054   5.771
 6917WAT     H220994   6.760   1.995   5.736
 6918WAT      O20995   5.680   2.646   6.300
 6918WAT     H120996   5.592   2.687   6.325
 6918WAT     H220997   5.675   2.610   6.206
 6919WAT      O20998   4.161   5.416   7.155
 6919WAT     H120999   4.237   5.421   7.220
 6919WAT     H221000   4.084   5.366   7.197
 6920WAT      O21001   6.528   0.912   7.087
 6920WAT     H121002   6.436   0.872   7.081
 6920WAT     H221003   6.571   0.910   6.997
 6921WAT      O21004   1.304   6.875   0.007
 6921WAT     H121005   1.303   6.825  -0.080
 6921WAT     H221006   1.248   6.957  -0.002
 6922WAT      O21007   2.590   5.363   0.786
 6922WAT     H121008   2.664   5.345   0.721
 6922WAT     H221009   2.620   5.341   0.878
 6923WAT      O21010   7.108   7.209   6.816
 6923WAT     H121011   7.073   7.232   6.725
 6923WAT     H221012   7.154   7.288   6.855
 6924WAT      O21013   9.512   6.701   4.311
 6924WAT     H121014   9.585   6.756   4.269
 6924WAT     H221015   9.431   6.757   4.323
 6925WAT      O21016   9.345   4.799   0.038
 6925WAT     H121017   9.317   4.709   0.005
 6925WAT     H221018   9.352   4.798   0.138
 6926WAT      O21019   9.118   5.683   3.242
 6926WAT     H121020   9.182   5.755   3.270
 6926WAT     H221021   9.025   5.718   3.250
 6927WAT      O21022   5.593   6.270   5.495
 6927WAT     H121023   5.528   6.245   5.423
 6927WAT     H221024   5.567   6.226   5.581
 6928WAT      O21025   6.552   0.403   3.255
 6928WAT     H121026   6.453   0.397   3.258
 6928WAT     H221027   6.582   0.428   3.163
 6929WAT      O21028   0.287   1.134   6.733
 6929WAT     H121029   0.209   1.176   6.688
 6929WAT     H221030   0.317   1.193   6.809
 6930WAT      O21031   4.865   0.730   3.459
 6930WAT     H121032   4.958   0.716   3.424
 6930WAT     H221033   4.818   0.643   3.464
 6931WAT      O21034   5.301   0.963   1.634
 6931WAT     H121035   5.338   0.875   1.603
 6931WAT     H221036   5.204   0.967   1.611
 6932WAT      O21037   6.938   1.286   2.733
 6932WAT     H121038   6.967   1.326   2.820
 6932WAT     H221039   6.868   1.217   2.750
 6933WAT      O21040   1.557   0.023   3.783
 6933WAT     H121041   1.508  -0.058   3.749
 6933WAT     H221042   1.649   0.025   3.743
 6934WAT      O21043   7.775   1.943   0.252
 6934WAT     H121044   7.825   1.908   0.331
 6934WAT     H221045   7.838   1.953   0.175
 6935WAT      O21046   7.869   2.088   9.156
 6935WAT     H121047   7.950   2.076   9.213
 6935WAT     H221048   7.788   2.096   9.214
 6936WAT      O21049   7.583   8.940   7.696
 6936WAT     H121050   7.634   8.986   7.624
 6936WAT     H221051   7.556   9.006   7.766
 6937WAT      O21052   0.560   0.049   5.935
 6937WAT     H121053   0.486   0.007   5.989
 6937WAT     H221054   0.566   0.004   5.846
 6938WAT      O21055   5.920   0.364   1.339
 6938WAT     H121056   5.846   0.333   1.399
 6938WAT     H221057   6.006   0.320   1.366
 6939WAT      O21058   4.889   1.375   3.883
 6939WAT     H121059   4.929   1.466   3.895
 6939WAT     H221060   4.793   1.385   3.857
 6940WAT      O21061   2.491   5.771   0.535
 6940WAT     H121062   2.507   5.740   0.629
 6940WAT     H221063   2.576   5.770   0.484
 6941WAT      O21064   0.053   9.166   2.461
 6941WAT     H121065   0.017   9.259   2.457
 6941WAT     H221066   0.153   9.168   2.466
 6942WAT      O21067   1.271   8.647   9.647
 6942WAT     H121068   1.195   8.709   9.628
 6942WAT     H221069   1.320   8.677   9.728
 6943WAT      O21070   9.543   5.401   6.841
 6943WAT     H121071   9.613   5.345   6.797
 6943WAT     H221072   9.584   5.489   6.869
 6944WAT      O21073   2.093   5.944   5.470
 6944WAT     H121074   2.173   5.914   5.522
 6944WAT     H221075   2.093   6.044   5.465
 6945WAT      O21076   2.331   4.808   3.116
 6945WAT     H121077   2.335   4.903   3.086
 6945WAT     H221078   2.273   4.755   3.054
 6946WAT      O21079   4.732   4.944   1.602
 6946WAT     H121080   4.739   5.043   1.595
 6946WAT     H221081   4.792   4.901   1.534
 6947WAT      O21082   6.473   7.851   4.287
 6947WAT     H121083   6.519   7.769   4.255
 6947WAT     H221084   6.461   7.846   4.387
 6948WAT      O21085   9.604   7.382   0.200
 6948WAT     H121086   9.700   7.390   0.229
 6948WAT     H221087   9.574   7.469   0.162
 6949WAT      O21088   5.570   1.132   9.727
 6949WAT     H121089   5.619   1.219   9.738
 6949WAT     H221090   5.621   1.059   9.771
 6950WAT      O21091   4.132   0.935   3.882
 6950WAT     H121092   4.120   0.902   3.788
 6950WAT     H221093   4.110   0.861   3.946
 6951WAT      O21094   5.581   3.945   7.239
 6951WAT     H121095   5.551   3.965   7.333
 6951WAT     H221096   5.518   3.988   7.175
 6952WAT      O21097   8.906   9.314   0.308
 6952WAT     H121098   8.902   9.382   0.235
 6952WAT     H221099   8.882   9.224   0.271
 6953WAT      O21100   8.724   3.718   2.331
 6953WAT     H121101   8.673   3.745   2.412
 6953WAT     H221102   8.733   3.796   2.269
 6954WAT      O21103   9.042   2.797   2.213
 6954WAT     H121104   8.989   2.849   2.280
 6954WAT     H221105   9.078   2.714   2.255
 6955WAT      O21106   6.473   3.849   5.001
 6955WAT     H121107   6.460   3.765   5.054
 6955WAT     H221108   6.393   3.864   4.942
 6956WAT      O21109   4.181   6.026   3.923
 6956WAT     H121110   4.187   5.992   4.017
 6956WAT     H221111   4.269   6.064   3.896
 6957WAT      O21112   5.322   2.981   4.937
 6957WAT     H121113   5.368   2.895   4.962
 6957WAT     H221114   5.304   2.982   4.839
 6958WAT      O21115   4.717   6.329   4.659
 6958WAT     H121116   4.665   6.386   4.595
 6958WAT     H221117   4.659   6.306   4.737
 6959WAT      O21118   6.287   2.065   9.431
 6959WAT     H121119   6.240   2.137   9.380
 6959WAT     H221120   6.224   2.025   9.497
 6960WAT      O21121   5.933   1.473   0.073
 6960WAT     H121122   5.885   1.493   0.158
 6960WAT     H221123   5.922   1.376   0.050
 6961WAT      O21124   4.629   9.487   5.136
 6961WAT     H121125   4.700   9.494   5.206
 6961WAT     H221126   4.672   9.479   5.046
 6962WAT      O21127   1.339   0.429   9.774
 6962WAT     H121128   1.301   0.401   9.686
 6962WAT     H221129   1.290   0.509   9.807
 6963WAT      O21130   4.198   6.868   8.971
 6963WAT     H121131   4.133   6.792   8.971
 6963WAT     H221132   4.193   6.916   8.883
 6964WAT      O21133   9.493   4.790   8.770
 6964WAT     H121134   9.424   4.718   8.759
 6964WAT     H221135   9.487   4.854   8.693
 6965WAT      O21136   3.073   6.000   7.879
 6965WAT     H121137   3.032   5.909   7.870
 6965WAT     H221138   3.172   5.992   7.879
 6966WAT      O21139   5.774   6.119   1.538
 6966WAT     H121140   5.714   6.060   1.592
 6966WAT     H221141   5.724   6.203   1.513
 6967WAT      O21142   5.289   2.588   0.193
 6967WAT     H121143   5.265   2.673   0.239
 6967WAT     H221144   5.316   2.607   0.099
 6968WAT      O21145   2.273   3.382   0.238
 6968WAT     H121146   2.182   3.340   0.232
 6968WAT     H221147   2.275   3.465   0.182
 6969WAT      O21148   0.216   6.745   2.472
 6969WAT     H121149   0.214   6.741   2.372
 6969WAT     H221150   0.284   6.680   2.507
 6970WAT      O21151   1.277   0.830   5.766
 6970WAT     H121152   1.316   0.855   5.855
 6970WAT     H221153   1.277   0.731   5.756
 6971WAT      O21154   7.549   2.306   7.335
 6971WAT     H121155   7.599   2.356   7.406
 6971WAT     H221156   7.451   2.324   7.345
 6972WAT      O21157   1.745   2.445   3.535
 6972WAT     H121158   1.769   2.542   3.532
 6972WAT     H221159   1.760   2.410   3.627
 6973WAT      O21160   1.713   0.860   7.881
 6973WAT     H121161   1.716   0.846   7.782
 6973WAT     H221162   1.803   0.889   7.914
 6974WAT      O21163   8.719   6.523   3.432
 6974WAT     H121164   8.635   6.578   3.434
 6974WAT     H221165   8.782   6.556   3.502
 6975WAT      O21166   4.817   2.373   9.025
 6975WAT     H121167   4.895   2.386   9.086
 6975WAT     H221168   4.738   2.340   9.077
 6976WAT      O21169   4.291   5.156   9.211
 6976WAT     H121170   4.222   5.148   9.139
 6976WAT     H221171   4.286   5.076   9.271
 6977WAT      O21172   8.825   1.065   8.556
 6977WAT     H121173   8.772   1.085   8.638
 6977WAT     H221174   8.792   0.981   8.513
 6978WAT      O21175   3.915   9.317   1.388
 6978WAT     H121176   3.969   9.280   1.313
 6978WAT     H221177   3.975   9.368   1.451
 6979WAT      O21178   5.029   2.387   6.804
 6979WAT     H121179   5.044   2.328   6.884
 6979WAT     H221180   4.975   2.337   6.736
 6980WAT      O21181   6.701   0.633   5.890
 6980WAT     H121182   6.607   0.599   5.891
 6980WAT     H221183   6.710   0.704   5.820
 6981WAT      O21184   1.020   2.602   3.571
 6981WAT     H121185   1.088   2.654   3.518
 6981WAT     H221186   0.930   2.644   3.559
 6982WAT      O21187   5.851   3.037   9.122
 6982WAT     H121188   5.871   3.023   9.219
 6982WAT     H221189   5.933   3.067   9.075
 6983WAT      O21190   5.677   7.902   7.917
 6983WAT     H121191   5.676   7.882   8.015
 6983WAT     H221192   5.622   7.985   7.900
 6984WAT      O21193   3.038   7.794   1.181
 6984WAT     H121194   2.989   7.719   1.226
 6984WAT     H221195   3.112   7.757   1.125
 6985WAT      O21196   2.003   6.553   1.452
 6985WAT     H121197   1.937   6.597   1.391
 6985WAT     H221198   2.055   6.623   1.501
 6986WAT      O21199   2.070   0.998   0.168
 6986WAT     H121200   2.145   1.059   0.193
 6986WAT     H221201   2.000   1.050   0.119
 6987WAT      O21202   4.706   4.981   2.660
 6987WAT     H121203   4.781   4.926   2.623
 6987WAT     H221204   4.635   4.994   2.590
 6988WAT      O21205   0.371   2.572   7.909
 6988WAT     H121206   0.423   2.499   7.865
 6988WAT     H221207   0.303   2.609   7.846
 6989WAT      O21208   7.467   5.288   6.310
 6989WAT     H121209   7.369   5.307   6.321
 6989WAT     H221210   7.481   5.238   6.225
 6990WAT      O21211   7.881   2.764   8.041
 6990WAT     H121212   7.791   2.793   8.073
 6990WAT     H221213   7.952   2.816   8.088
 6991WAT      O21214   9.429   5.751   6.865
 6991WAT     H121215   9.386   5.677   6.814
 6991WAT     H221216   9.429   5.728   6.963
 6992WAT      O21217   1.015   1.511   7.753
 6992WAT     H121218   0.969   1.586   7.705
 6992WAT     H221219   0.948   1.457   7.803
 6993WAT      O21220   4.291   7.418   7.630
 6993WAT     H121221   4.197   7.431   7.663
 6993WAT     H221222   4.291   7.422   7.530
 6994WAT      O21223   0.620   4.961   4.444
 6994WAT     H121224   0.576   4.913   4.368
 6994WAT     H221225   0.689   4.902   4.485
 6995WAT      O21226   2.713   4.898   8.973
 6995WAT     H121227   2.773   4.978   8.969
 6995WAT     H221228   2.666   4.887   8.885
 6996WAT      O21229   0.326   9.057   3.556
 6996WAT     H121230   0.395   9.127   3.543
 6996WAT     H221231   0.368   8.974   3.594
 6997WAT      O21232   2.428   6.770   3.728
 6997WAT     H121233   2.523   6.749   3.707
 6997WAT     H221234   2.387   6.821   3.651
 6998WAT      O21235   4.276   2.618   5.023
 6998WAT     H121236   4.207   2.675   5.067
 6998WAT     H221237   4.241   2.525   5.013
 6999WAT      O21238   2.673   9.532   3.071
 6999WAT     H121239   2.673   9.599   2.997
 6999WAT     H221240   2.748   9.550   3.134
 7000WAT      O21241   4.953   8.586   8.083
 7000WAT     H121242   5.034   8.633   8.049
 7000WAT     H221243   4.872   8.620   8.036
 7001WAT      O21244   4.996   7.910   8.192
 7001WAT     H121245   5.083   7.941   8.152
 7001WAT     H221246   5.014   7.837   8.258
 7002WAT      O21247   6.557   6.007   2.989
 7002WAT     H121248   6.651   5.994   2.955
 7002WAT     H221249   6.525   5.923   3.032
 7003WAT      O21250   5.671   0.944   4.751
 7003WAT     H121251   5.745   1.008   4.731
 7003WAT     H221252   5.660   0.880   4.675
 7004WAT      O21253   7.685   5.376   8.582
 7004WAT     H121254   7.697   5.448   8.650
 7004WAT     H221255   7.773   5.332   8.564
 7005WAT      O21256   1.928   9.033   6.616
 7005WAT     H121257   2.009   8.988   6.653
 7005WAT     H221258   1.936   9.132   6.630
 7006WAT      O21259   0.914   5.032   1.630
 7006WAT     H121260   0.904   5.108   1.694
 7006WAT     H221261   0.852   4.958   1.656
 7007WAT      O21262   1.505   3.342   1.543
 7007WAT     H121263   1.537   3.345   1.448
 7007WAT     H221264   1.555   3.410   1.597
 7008WAT      O21265   6.720   5.481   8.940
 7008WAT     H121266   6.709   5.416   8.864
 7008WAT     H221267   6.754   5.433   9.021
 7009WAT      O21268   3.326   7.746   8.911
 7009WAT     H121269   3.423   7.744   8.935
 7009WAT     H221270   3.310   7.695   8.827
 7010WAT      O21271   5.979   6.359   0.904
 7010WAT     H121272   5.991   6.285   0.838
 7010WAT     H221273   6.003   6.327   0.996
 7011WAT      O21274   2.742   0.482   0.930
 7011WAT     H121275   2.806   0.517   0.998
 7011WAT     H221276   2.693   0.558   0.887
 7012WAT      O21277   9.076   5.592   0.824
 7012WAT     H121278   9.144   5.639   0.880
 7012WAT     H221279   8.993   5.647   0.818
 7013WAT      O21280   3.574   8.526   5.952
 7013WAT     H121281   3.651   8.462   5.951
 7013WAT     H221282   3.564   8.569   5.863
 7014WAT      O21283   0.327   1.490   4.541
 7014WAT     H121284   0.307   1.410   4.598
 7014WAT     H221285   0.340   1.461   4.447
 7015WAT      O21286   4.592   2.663   0.092
 7015WAT     H121287   4.637   2.752   0.086
 7015WAT     H221288   4.660   2.592   0.108
 7016WAT      O21289   2.244   5.708   7.131
 7016WAT     H121290   2.330   5.666   7.102
 7016WAT     H221291   2.197   5.747   7.051
 7017WAT      O21292   2.329   7.568   6.417
 7017WAT     H121293   2.428   7.577   6.415
 7017WAT     H221294   2.289   7.646   6.465
 7018WAT      O21295   5.807   9.761   6.566
 7018WAT     H121296   5.744   9.721   6.500
 7018WAT     H221297   5.816   9.700   6.645
 7019WAT      O21298   7.336   4.895   4.422
 7019WAT     H121299   7.395   4.848   4.356
 7019WAT     H221300   7.329   4.840   4.505
 7020WAT      O21301   9.662   9.801   8.588
 7020WAT     H121302   9.597   9.788   8.514
 7020WAT     H221303   9.636   9.882   8.641
 7021WAT      O21304   6.894   6.036   7.609
 7021WAT     H121305   6.887   5.966   7.538
 7021WAT     H221306   6.888   5.992   7.699
 7022WAT      O21307   6.499   0.683   4.622
 7022WAT     H121308   6.534   0.669   4.715
 7022WAT     H221309   6.441   0.764   4.620
 7023WAT      O21310   3.235   7.463   6.002
 7023WAT     H121311   3.305   7.449   6.072
 7023WAT     H221312   3.278   7.494   5.917
 7024WAT      O21313   8.710   8.159   0.510
 7024WAT     H121314   8.709   8.069   0.553
 7024WAT     H221315   8.800   8.175   0.469
 7025WAT      O21316   4.529   7.011   3.355
 7025WAT     H121317   4.545   6.912   3.353
 7025WAT     H221318   4.462   7.035   3.285
 7026WAT      O21319   8.446   9.677   4.549
 7026WAT     H121320   8.366   9.682   4.609
 7026WAT     H221321   8.526   9.650   4.602
 7027WAT      O21322   8.385   2.897   3.231
 7027WAT     H121323   8.431   2.976   3.190
 7027WAT     H221324   8.435   2.814   3.208
 7028WAT      O21325   7.271   5.562   6.555
 7028WAT     H121326   7.279   5.475   6.605
 7028WAT     H221327   7.361   5.591   6.524
 7029WAT      O21328   3.520   3.835   9.682
 7029WAT     H121329   3.549   3.757   9.738
 7029WAT     H221330   3.472   3.803   9.601
 7030WAT      O21331   4.996   3.407   6.427
 7030WAT     H121332   5.016   3.339   6.497
 7030WAT     H221333   4.947   3.364   6.351
 7031WAT      O21334   1.995   1.735   8.498
 7031WAT     H121335   1.928   1.766   8.565
 7031WAT     H221336   2.064   1.679   8.543
 7032WAT      O21337   7.694   3.588   9.108
 7032WAT     H121338   7.770   3.524   9.120
 7032WAT     H221339   7.609   3.545   9.135
 7033WAT      O21340   1.491   7.655   3.573
 7033WAT     H121341   1.427   7.712   3.521
 7033WAT     H221342   1.495   7.564   3.532
 7034WAT      O21343   5.364   8.174   9.342
 7034WAT     H121344   5.326   8.258   9.380
 7034WAT     H221345   5.367   8.103   9.412
 7035WAT      O21346   0.165   6.031   1.703
 7035WAT     H121347   0.099   6.104   1.687
 7035WAT     H221348   0.231   6.060   1.773
 7036WAT      O21349   4.481   3.698   7.638
 7036WAT     H121350   4.383   3.695   7.620
 7036WAT     H221351   4.497   3.739   7.728
 7037WAT      O21352   7.554   0.612   5.069
 7037WAT     H121353   7.486   0.544   5.097
 7037WAT     H221354   7.570   0.606   4.971
 7038WAT      O21355   9.488   7.403   8.834
 7038WAT     H121356   9.556   7.334   8.809
 7038WAT     H221357   9.525   7.462   8.905
 7039WAT      O21358   7.338   8.357   4.365
 7039WAT     H121359   7.426   8.311   4.353
 7039WAT     H221360   7.265   8.299   4.328
 7040WAT      O21361   0.594   7.414   7.910
 7040WAT     H121362   0.571   7.396   8.006
 7040WAT     H221363   0.663   7.348   7.880
 7041WAT      O21364   0.365   5.323   3.005
 7041WAT     H121365   0.412   5.405   2.972
 7041WAT     H221366   0.433   5.257   3.037
 7042WAT      O21367   3.190   7.390   0.664
 7042WAT     H121368   3.123   7.424   0.597
 7042WAT     H221369   3.160   7.415   0.756
 7043WAT      O21370   1.893   4.428   1.888
 7043WAT     H121371   1.825   4.476   1.833
 7043WAT     H221372   1.859   4.419   1.982
 7044WAT      O21373   7.602   7.599   1.948
 7044WAT     H121374   7.674   7.537   1.917
 7044WAT     H221375   7.577   7.578   2.042
 7045WAT      O21376   5.592   4.714   5.098
 7045WAT     H121377   5.612   4.744   5.004
 7045WAT     H221378   5.526   4.639   5.095
 7046WAT      O21379   1.309   6.150   9.040
 7046WAT     H121380   1.359   6.120   9.121
 7046WAT     H221381   1.210   6.140   9.055
 7047WAT      O21382   8.568   8.742   8.424
 7047WAT     H121383   8.561   8.831   8.377
 7047WAT     H221384   8.623   8.680   8.369
 7048WAT      O21385   4.774   5.073   0.050
 7048WAT     H121386   4.750   4.976   0.054
 7048WAT     H221387   4.699   5.127   0.087
 7049WAT      O21388   5.202   3.300   8.168
 7049WAT     H121389   5.136   3.322   8.096
 7049WAT     H221390   5.191   3.364   8.244
 7050WAT      O21391   9.081   3.696   4.948
 7050WAT     H121392   9.141   3.708   4.870
 7050WAT     H221393   9.030   3.781   4.964
 7051WAT      O21394   6.742   6.733   2.797
 7051WAT     H121395   6.836   6.718   2.765
 7051WAT     H221396   6.678   6.723   2.721
 7052WAT      O21397   1.406   7.084   3.958
 7052WAT     H121398   1.449   7.149   3.897
 7052WAT     H221399   1.422   7.111   4.053
 7053WAT      O21400   0.185   6.148   6.859
 7053WAT     H121401   0.134   6.226   6.895
 7053WAT     H221402   0.173   6.145   6.759
 7054WAT      O21403   6.016   6.055   2.907
 7054WAT     H121404   5.931   6.086   2.951
 7054WAT     H221405   6.020   5.955   2.909
 7055WAT      O21406   2.137   1.634   8.953
 7055WAT     H121407   2.136   1.726   8.993
 7055WAT     H221408   2.219   1.586   8.983
 7056WAT      O21409   5.447   8.758   5.647
 7056WAT     H121410   5.498   8.679   5.611
 7056WAT     H221411   5.469   8.770   5.744
 7057WAT      O21412   8.259   8.152   5.283
 7057WAT     H121413   8.202   8.168   5.363
 7057WAT     H221414   8.231   8.066   5.239
 7058WAT      O21415   3.820   4.589   8.619
 7058WAT     H121416   3.806   4.511   8.680
 7058WAT     H221417   3.736   4.609   8.570
 7059WAT      O21418   8.413   7.042   2.786
 7059WAT     H121419   8.377   7.089   2.867
 7059WAT     H221420   8.508   7.015   2.802
 7060WAT      O21421   5.756   2.002   3.343
 7060WAT     H121422   5.779   2.094   3.372
 7060WAT     H221423   5.836   1.943   3.351
 7061WAT      O21424   8.978   2.815   4.224
 7061WAT     H121425   8.879   2.826   4.214
 7061WAT     H221426   9.021   2.905   4.226
 7062WAT      O21427   6.554   5.396   9.784
 7062WAT     H121428   6.527   5.415   9.690
 7062WAT     H221429   6.474   5.398   9.843
 7063WAT      O21430   0.414   8.130   3.166
 7063WAT     H121431   0.418   8.031   3.148
 7063WAT     H221432   0.323   8.155   3.199
 7064WAT      O21433   2.119   0.826   1.134
 7064WAT     H121434   2.077   0.803   1.222
 7064WAT     H221435   2.182   0.903   1.147
 7065WAT      O21436   5.440   7.468   2.305
 7065WAT     H121437   5.478   7.550   2.262
 7065WAT     H221438   5.344   7.484   2.328
 7066WAT      O21439   8.383   5.769   7.902
 7066WAT     H121440   8.283   5.767   7.905
 7066WAT     H221441   8.415   5.705   7.832
 7067WAT      O21442   7.491   6.068   1.019
 7067WAT     H121443   7.448   5.979   1.032
 7067WAT     H221444   7.421   6.138   1.004
 7068WAT      O21445   7.685   7.151   5.460
 7068WAT     H121446   7.726   7.130   5.549
 7068WAT     H221447   7.680   7.068   5.405
 7069WAT      O21448   6.547   9.697   5.726
 7069WAT     H121449   6.551   9.597   5.727
 7069WAT     H221450   6.604   9.731   5.652
 7070WAT      O21451   6.399   6.546   2.562
 7070WAT     H121452   6.321   6.540   2.624
 7070WAT     H221453   6.412   6.459   2.515
 7071WAT      O21454   2.038   3.085   5.407
 7071WAT     H121455   2.118   3.130   5.448
 7071WAT     H221456   1.976   3.055   5.480
 7072WAT      O21457   8.035   8.660   5.495
 7072WAT     H121458   8.117   8.652   5.439
 7072WAT     H221459   8.013   8.571   5.535
 7073WAT      O21460   2.864   5.589   1.819
 7073WAT     H121461   2.900   5.501   1.786
 7073WAT     H221462   2.895   5.662   1.759
 7074WAT      O21463   1.878   7.732   3.352
 7074WAT     H121464   1.921   7.821   3.335
 7074WAT     H221465   1.781   7.737   3.331
 7075WAT      O21466   3.041   3.114   5.909
 7075WAT     H121467   3.088   3.170   5.977
 7075WAT     H221468   3.022   3.169   5.828
 7076WAT      O21469   3.730   1.924   7.421
 7076WAT     H121470   3.758   1.916   7.516
 7076WAT     H221471   3.633   1.944   7.416
 7077WAT      O21472   6.849   7.556   9.315
 7077WAT     H121473   6.802   7.470   9.337
 7077WAT     H221474   6.936   7.536   9.269
 7078WAT      O21475   5.408   6.322   0.893
 7078WAT     H121476   5.487   6.282   0.846
 7078WAT     H221477   5.408   6.292   0.989
 7079WAT      O21478   5.745   7.712   1.688
 7079WAT     H121479   5.696   7.792   1.652
 7079WAT     H221480   5.697   7.629   1.658
 7080WAT      O21481   4.579   7.207   7.921
 7080WAT     H121482   4.491   7.174   7.887
 7080WAT     H221483   4.610   7.283   7.864
 7081WAT      O21484   8.414   2.973   9.718
 7081WAT     H121485   8.358   3.004   9.795
 7081WAT     H221486   8.424   3.048   9.652
 7082WAT      O21487   9.617   3.610   7.225
 7082WAT     H121488   9.598   3.596   7.128
 7082WAT     H221489   9.613   3.707   7.247
 7083WAT      O21490   1.854   6.060   7.231
 7083WAT     H121491   1.938   6.099   7.270
 7083WAT     H221492   1.820   5.988   7.291
 7084WAT      O21493   3.218   3.527   7.219
 7084WAT     H121494   3.216   3.441   7.270
 7084WAT     H221495   3.268   3.513   7.133
 7085WAT      O21496   0.418   4.329   6.752
 7085WAT     H121497   0.514   4.352   6.733
 7085WAT     H221498   0.397   4.351   6.847
 7086WAT      O21499   2.587   4.081   4.828
 7086WAT     H121500   2.570   4.143   4.904
 7086WAT     H221501   2.660   4.017   4.852
 7087WAT      O21502   8.320   8.653   2.682
 7087WAT     H121503   8.267   8.569   2.694
 7087WAT     H221504   8.418   8.630   2.678
 7088WAT      O21505   9.407   3.521   4.847
 7088WAT     H121506   9.474   3.529   4.920
 7088WAT     H221507   9.332   3.462   4.876
 7089WAT      O21508   9.834   7.951   9.345
 7089WAT     H121509   9.911   7.934   9.284
 7089WAT     H221510   9.799   8.044   9.328
 7090WAT      O21511   9.105   2.284   4.670
 7090WAT     H121512   9.168   2.226   4.722
 7090WAT     H221513   9.085   2.367   4.722
 7091WAT      O21514   7.719   0.085   9.058
 7091WAT     H121515   7.721   0.111   9.154
 7091WAT     H221516   7.749  -0.010   9.048
 7092WAT      O21517   9.002   1.866   2.916
 7092WAT     H121518   9.011   1.959   2.879
 7092WAT     H221519   9.087   1.816   2.904
 7093WAT      O21520   2.854   4.499   0.384
 7093WAT     H121521   2.785   4.471   0.451
 7093WAT     H221522   2.931   4.542   0.431
 7094WAT      O21523   1.533   5.108   2.511
 7094WAT     H121524   1.440   5.093   2.477
 7094WAT     H221525   1.571   5.021   2.542
 7095WAT      O21526   1.772   6.002   4.399
 7095WAT     H121527   1.756   5.942   4.321
 7095WAT     H221528   1.784   6.096   4.367
 7096WAT      O21529   6.866   4.882   6.946
 7096WAT     H121530   6.947   4.924   6.906
 7096WAT     H221531   6.785   4.914   6.899
 7097WAT      O21532   5.022   2.884   7.641
 7097WAT     H121533   4.990   2.914   7.730
 7097WAT     H221534   5.035   2.785   7.641
 7098WAT      O21535   8.521   0.201   6.207
 7098WAT     H121536   8.590   0.274   6.204
 7098WAT     H221537   8.514   0.165   6.300
 7099WAT      O21538   1.223   5.220   0.855
 7099WAT     H121539   1.309   5.180   0.825
 7099WAT     H221540   1.231   5.320   0.853
 7100WAT      O21541   6.224   4.406   8.796
 7100WAT     H121542   6.157   4.334   8.778
 7100WAT     H221543   6.221   4.473   8.722
 7101WAT      O21544   7.752   2.138   6.511
 7101WAT     H121545   7.736   2.083   6.429
 7101WAT     H221546   7.810   2.087   6.574
 7102WAT      O21547   6.594   0.184   8.633
 7102WAT     H121548   6.573   0.199   8.536
 7102WAT     H221549   6.677   0.130   8.641
 7103WAT      O21550   0.990   7.641   4.144
 7103WAT     H121551   0.988   7.649   4.244
 7103WAT     H221552   0.940   7.560   4.115
 7104WAT      O21553   2.479   0.006   3.367
 7104WAT     H121554   2.535  -0.076   3.380
 7104WAT     H221555   2.397  -0.016   3.315
 7105WAT      O21556   6.261   3.465   4.471
 7105WAT     H121557   6.298   3.454   4.379
 7105WAT     H221558   6.308   3.541   4.517
 7106WAT      O21559   0.162   3.380   1.433
 7106WAT     H121560   0.228   3.449   1.403
 7106WAT     H221561   0.170   3.299   1.374
 7107WAT      O21562   3.027   9.407   8.434
 7107WAT     H121563   2.938   9.363   8.443
 7107WAT     H221564   3.089   9.348   8.383
 7108WAT      O21565   3.713   4.078   8.993
 7108WAT     H121566   3.676   4.168   8.970
 7108WAT     H221567   3.639   4.010   8.991
 7109WAT      O21568   7.229   2.608   5.932
 7109WAT     H121569   7.237   2.670   6.010
 7109WAT     H221570   7.135   2.606   5.900
 7110WAT      O21571   8.136   1.566   8.183
 7110WAT     H121572   8.199   1.588   8.258
 7110WAT     H221573   8.046   1.606   8.202
 7111WAT      O21574   7.571   2.620   5.509
 7111WAT     H121575   7.602   2.700   5.561
 7111WAT     H221576   7.474   2.632   5.485
 7112WAT      O21577   2.311   7.251   8.449
 7112WAT     H121578   2.399   7.287   8.419
 7112WAT     H221579   2.288   7.288   8.539
 7113WAT      O21580   6.492   4.018   1.166
 7113WAT     H121581   6.396   4.043   1.159
 7113WAT     H221582   6.547   4.078   1.108
 7114WAT      O21583   7.669   0.616   2.067
 7114WAT     H121584   7.664   0.707   2.111
 7114WAT     H221585   7.763   0.596   2.043
 7115WAT      O21586   6.829   4.785   4.713
 7115WAT     H121587   6.731   4.766   4.714
 7115WAT     H221588   6.870   4.750   4.797
 7116WAT      O21589   2.011   0.461   1.277
 7116WAT     H121590   1.978   0.372   1.245
 7116WAT     H221591   1.998   0.530   1.206
 7117WAT      O21592   7.137   1.677   5.971
 7117WAT     H121593   7.062   1.739   5.997
 7117WAT     H221594   7.194   1.659   6.051
 7118WAT      O21595   7.972   7.336   3.791
 7118WAT     H121596   7.941   7.424   3.756
 7118WAT     H221597   7.972   7.269   3.716
 7119WAT      O21598   3.282   0.698   5.803
 7119WAT     H121599   3.291   0.797   5.796
 7119WAT     H221600   3.259   0.673   5.897
 7120WAT      O21601   5.371   2.427   2.623
 7120WAT     H121602   5.411   2.458   2.537
 7120WAT     H221603   5.441   2.427   2.694
 7121WAT      O21604   6.671   4.002   1.901
 7121WAT     H121605   6.726   3.942   1.843
 7121WAT     H221606   6.721   4.087   1.918
 7122WAT      O21607   5.252   7.053   4.549
 7122WAT     H121608   5.284   6.980   4.488
 7122WAT     H221609   5.156   7.072   4.530
 7123WAT      O21610   7.071   2.709   0.258
 7123WAT     H121611   7.066   2.770   0.338
 7123WAT     H221612   7.036   2.757   0.178
 7124WAT      O21613   6.330   1.339   0.305
 7124WAT     H121614   6.417   1.299   0.274
 7124WAT     H221615   6.281   1.272   0.361
 7125WAT      O21616   2.864   3.301   3.308
 7125WAT     H121617   2.811   3.262   3.233
 7125WAT     H221618   2.956   3.324   3.275
 7126WAT      O21619   1.973   5.969   6.338
 7126WAT     H121620   1.935   5.997   6.250
 7126WAT     H221621   2.054   5.911   6.324
 7127WAT      O21622   1.033   3.039   4.627
 7127WAT     H121623   1.127   3.062   4.651
 7127WAT     H221624   0.990   3.116   4.580
 7128WAT      O21625   5.980   9.227   4.473
 7128WAT     H121626   6.037   9.307   4.489
 7128WAT     H221627   5.916   9.215   4.548
 7129WAT      O21628   9.834   3.723   0.084
 7129WAT     H121629   9.768   3.651   0.105
 7129WAT     H221630   9.809   3.767  -0.002
 7130WAT      O21631   7.452   2.404   3.438
 7130WAT     H121632   7.449   2.470   3.363
 7130WAT     H221633   7.527   2.427   3.500
 7131WAT      O21634   8.026   5.508   5.793
 7131WAT     H121635   7.933   5.482   5.819
 7131WAT     H221636   8.023   5.560   5.707
 7132WAT      O21637   4.530   4.454   9.100
 7132WAT     H121638   4.594   4.516   9.056
 7132WAT     H221639   4.483   4.501   9.175
 7133WAT      O21640   1.547   0.153   4.050
 7133WAT     H121641   1.638   0.133   4.087
 7133WAT     H221642   1.541   0.117   3.957
 7134WAT      O21643   1.037   4.020   7.021
 7134WAT     H121644   1.073   4.028   7.114
 7134WAT     H221645   1.106   4.049   6.956
 7135WAT      O21646   8.904   3.913   4.356
 7135WAT     H121647   8.992   3.877   4.324
 7135WAT     H221648   8.861   3.847   4.417
 7136WAT      O21649   3.067   4.768   0.950
 7136WAT     H121650   3.000   4.794   1.020
 7136WAT     H221651   3.136   4.709   0.992
 7137WAT      O21652   9.216   5.671   9.247
 7137WAT     H121653   9.139   5.695   9.305
 7137WAT     H221654   9.208   5.575   9.217
 7138WAT      O21655   4.814   6.306   8.315
 7138WAT     H121656   4.715   6.307   8.331
 7138WAT     H221657   4.839   6.221   8.268
 7139WAT      O21658   8.334   0.685   4.604
 7139WAT     H121659   8.328   0.759   4.537
 7139WAT     H221660   8.280   0.709   4.685
 7140WAT      O21661   5.682   1.517   4.388
 7140WAT     H121662   5.624   1.583   4.438
 7140WAT     H221663   5.677   1.536   4.290
 7141WAT      O21664   4.419   3.419   8.251
 7141WAT     H121665   4.471   3.393   8.333
 7141WAT     H221666   4.338   3.362   8.244
 7142WAT      O21667   4.984   3.739   4.305
 7142WAT     H121668   5.050   3.666   4.325
 7142WAT     H221669   5.018   3.825   4.343
 7143WAT      O21670   8.914   6.203   4.823
 7143WAT     H121671   8.840   6.221   4.887
 7143WAT     H221672   8.985   6.272   4.833
 7144WAT      O21673   0.988   0.083   5.841
 7144WAT     H121674   0.978   0.029   5.925
 7144WAT     H221675   1.084   0.105   5.827
 7145WAT      O21676   9.463   6.318   6.362
 7145WAT     H121677   9.521   6.248   6.319
 7145WAT     H221678   9.478   6.316   6.461
 7146WAT      O21679   0.175   1.086   8.088
 7146WAT     H121680   0.244   1.122   8.151
 7146WAT     H221681   0.218   1.021   8.025
 7147WAT      O21682   4.929   8.511   0.430
 7147WAT     H121683   4.919   8.535   0.527
 7147WAT     H221684   4.926   8.594   0.374
 7148WAT      O21685   4.076   8.821   3.336
 7148WAT     H121686   4.007   8.811   3.265
 7148WAT     H221687   4.130   8.737   3.342
 7149WAT      O21688   7.207   4.177   6.620
 7149WAT     H121689   7.219   4.078   6.616
 7149WAT     H221690   7.112   4.200   6.597
 7150WAT      O21691   3.720   0.751   6.477
 7150WAT     H121692   3.752   0.845   6.477
 7150WAT     H221693   3.642   0.742   6.540
 7151WAT      O21694   9.754   7.322   4.673
 7151WAT     H121695   9.717   7.392   4.734
 7151WAT     H221696   9.680   7.287   4.615
 7152WAT      O21697   0.511   8.870   5.307
 7152WAT     H121698   0.520   8.801   5.379
 7152WAT     H221699   0.425   8.920   5.319
 7153WAT      O21700   0.330   7.520   0.983
 7153WAT     H121701   0.386   7.443   1.012
 7153WAT     H221702   0.250   7.528   1.042
 7154WAT      O21703   1.458   1.704   5.539
 7154WAT     H121704   1.391   1.673   5.607
 7154WAT     H221705   1.502   1.625   5.498
 7155WAT      O21706   3.376   6.601   7.760
 7155WAT     H121707   3.356   6.554   7.674
 7155WAT     H221708   3.474   6.617   7.767
 7156WAT      O21709   7.696   6.742   9.128
 7156WAT     H121710   7.786   6.709   9.156
 7156WAT     H221711   7.703   6.835   9.093
 7157WAT      O21712   2.747   4.653   2.999
 7157WAT     H121713   2.690   4.725   3.038
 7157WAT     H221714   2.769   4.586   3.069
 7158WAT      O21715   5.981   9.105   8.164
 7158WAT     H121716   6.013   9.034   8.101
 7158WAT     H221717   6.028   9.096   8.251
 7159WAT      O21718   9.866   6.955   8.656
 7159WAT     H121719   9.915   6.973   8.571
 7159WAT     H221720   9.882   7.031   8.720
 7160WAT      O21721   1.850   5.825   4.711
 7160WAT     H121722   1.791   5.756   4.753
 7160WAT     H221723   1.799   5.873   4.639
 7161WAT      O21724   6.337   5.368   0.072
 7161WAT     H121725   6.376   5.377   0.163
 7161WAT     H221726   6.254   5.423   0.065
 7162WAT      O21727   6.880   8.577   7.496
 7162WAT     H121728   6.969   8.618   7.480
 7162WAT     H221729   6.814   8.649   7.517
 7163WAT      O21730   8.305   5.621   1.921
 7163WAT     H121731   8.324   5.720   1.919
 7163WAT     H221732   8.257   5.596   1.837
 7164WAT      O21733   9.497   2.312   0.504
 7164WAT     H121734   9.533   2.259   0.427
 7164WAT     H221735   9.565   2.317   0.577
 7165WAT      O21736   6.707   9.554   1.887
 7165WAT     H121737   6.673   9.495   1.960
 7165WAT     H221738   6.675   9.647   1.901
 7166WAT      O21739   6.222   5.001   3.176
 7166WAT     H121740   6.126   4.999   3.147
 7166WAT     H221741   6.254   5.096   3.180
 7167WAT      O21742   8.499   7.910   5.080
 7167WAT     H121743   8.543   7.822   5.099
 7167WAT     H221744   8.566   7.973   5.042
 7168WAT      O21745   9.763   0.127   7.100
 7168WAT     H121746   9.680   0.180   7.114
 7168WAT     H221747   9.752   0.035   7.137
 7169WAT      O21748   6.068   6.954   9.730
 7169WAT     H121749   6.102   6.952   9.824
 7169WAT     H221750   6.129   6.900   9.671
 7170WAT      O21751   7.475   1.149   8.443
 7170WAT     H121752   7.422   1.202   8.376
 7170WAT     H221753   7.412   1.106   8.509
 7171WAT      O21754   7.561   3.955   6.339
 7171WAT     H121755   7.629   4.012   6.383
 7171WAT     H221756   7.603   3.870   6.306
 7172WAT      O21757   9.832   3.977   5.668
 7172WAT     H121758   9.850   4.016   5.758
 7172WAT     H221759   9.818   3.878   5.676
 7173WAT      O21760   8.921   2.308   3.495
 7173WAT     H121761   8.892   2.376   3.427
 7173WAT     H221762   8.960   2.354   3.574
 7174WAT      O21763   5.346   8.642   0.877
 7174WAT     H121764   5.284   8.718   0.861
 7174WAT     H221765   5.352   8.586   0.794
 7175WAT      O21766   2.765   3.200   4.474
 7175WAT     H121767   2.796   3.175   4.566
 7175WAT     H221768   2.689   3.140   4.447
 7176WAT      O21769   8.981   4.660   3.466
 7176WAT     H121770   8.897   4.637   3.417
 7176WAT     H221771   9.047   4.586   3.456
 7177WAT      O21772   0.575   5.658   7.009
 7177WAT     H121773   0.562   5.559   7.010
 7177WAT     H221774   0.659   5.682   7.057
 7178WAT      O21775   0.210   3.494   6.555
 7178WAT     H121776   0.292   3.440   6.534
 7178WAT     H221777   0.146   3.487   6.479
 7179WAT      O21778   4.860   1.959   6.299
 7179WAT     H121779   4.874   2.057   6.284
 7179WAT     H221780   4.946   1.919   6.331
 7180WAT      O21781   4.017   2.678   2.086
 7180WAT     H121782   3.991   2.624   2.167
 7180WAT     H221783   4.001   2.775   2.104
 7181WAT      O21784   2.418   6.923   6.282
 7181WAT     H121785   2.340   6.911   6.220
 7181WAT     H221786   2.494   6.867   6.250
 7182WAT      O21787   3.448   6.806   6.040
 7182WAT     H121788   3.546   6.792   6.028
 7182WAT     H221789   3.400   6.719   6.024
 7183WAT      O21790   8.744   9.044   3.927
 7183WAT     H121791   8.840   9.023   3.945
 7183WAT     H221792   8.704   9.090   4.006
 7184WAT      O21793   1.053   0.311   5.414
 7184WAT     H121794   1.106   0.396   5.419
 7184WAT     H221795   1.116   0.234   5.397
 7185WAT      O21796   4.224   2.824   6.970
 7185WAT     H121797   4.320   2.848   6.955
 7185WAT     H221798   4.201   2.744   6.914
 7186WAT      O21799   7.736   4.511   0.984
 7186WAT     H121800   7.769   4.584   1.044
 7186WAT     H221801   7.638   4.497   1.001
 7187WAT      O21802   2.032   2.825   3.853
 7187WAT     H121803   2.044   2.842   3.951
 7187WAT     H221804   2.116   2.848   3.805
 7188WAT      O21805   9.792   6.403   2.193
 7188WAT     H121806   9.742   6.326   2.233
 7188WAT     H221807   9.771   6.486   2.243
 7189WAT      O21808   9.384   2.539   9.365
 7189WAT     H121809   9.455   2.469   9.369
 7189WAT     H221810   9.307   2.506   9.311
 7190WAT      O21811   2.096   2.373   6.467
 7190WAT     H121812   2.079   2.469   6.445
 7190WAT     H221813   2.069   2.355   6.562
 7191WAT      O21814   8.490   8.030   4.660
 7191WAT     H121815   8.476   7.931   4.657
 7191WAT     H221816   8.405   8.075   4.688
 7192WAT      O21817   7.242   8.658   6.104
 7192WAT     H121818   7.306   8.725   6.067
 7192WAT     H221819   7.168   8.643   6.038
 7193WAT      O21820   2.568   7.527   6.720
 7193WAT     H121821   2.566   7.428   6.706
 7193WAT     H221822   2.478   7.559   6.748
 7194WAT      O21823   7.985   9.571   8.673
 7194WAT     H121824   8.060   9.618   8.720
 7194WAT     H221825   8.022   9.498   8.615
 7195WAT      O21826   0.784   3.624   9.197
 7195WAT     H121827   0.720   3.554   9.228
 7195WAT     H221828   0.840   3.587   9.123
 7196WAT      O21829   6.833   2.314   5.261
 7196WAT     H121830   6.739   2.294   5.290
 7196WAT     H221831   6.879   2.229   5.237
 7197WAT      O21832   3.389   1.127   6.998
 7197WAT     H121833   3.366   1.105   6.904
 7197WAT     H221834   3.434   1.049   7.041
 7198WAT      O21835   9.211   6.824   8.641
 7198WAT     H121836   9.148   6.901   8.633
 7198WAT     H221837   9.298   6.855   8.679
 7199WAT      O21838   4.392   6.327   6.601
 7199WAT     H121839   4.460   6.395   6.571
 7199WAT     H221840   4.389   6.252   6.535
 7200WAT      O21841   9.547   9.125   4.339
 7200WAT     H121842   9.620   9.193   4.347
 7200WAT     H221843   9.568   9.063   4.263
 7201WAT      O21844   5.926   1.678   9.780
 7201WAT     H121845   5.913   1.754   9.845
 7201WAT     H221846   5.926   1.592   9.831
 7202WAT      O21847   6.349   7.082   7.067
 7202WAT     H121848   6.426   7.132   7.105
 7202WAT     H221849   6.292   7.144   7.013
 7203WAT      O21850   7.237   2.953   1.780
 7203WAT     H121851   7.239   2.964   1.880
 7203WAT     H221852   7.147   2.978   1.746
 7204WAT      O21853   3.885   1.541   6.084
 7204WAT     H121854   3.950   1.605   6.043
 7204WAT     H221855   3.930   1.452   6.097
 7205WAT      O21856   2.318   3.894   0.215
 7205WAT     H121857   2.383   3.935   0.278
 7205WAT     H221858   2.271   3.817   0.260
 7206WAT      O21859   0.356   6.057   7.557
 7206WAT     H121860   0.445   6.012   7.551
 7206WAT     H221861   0.327   6.085   7.465
 7207WAT      O21862   0.097   7.584   1.910
 7207WAT     H121863   0.083   7.509   1.975
 7207WAT     H221864   0.111   7.670   1.960
 7208WAT      O21865   8.447   9.068   4.672
 7208WAT     H121866   8.423   9.121   4.590
 7208WAT     H221867   8.546   9.052   4.674
 7209WAT      O21868   6.121   8.345   3.482
 7209WAT     H121869   6.107   8.378   3.575
 7209WAT     H221870   6.106   8.246   3.479
 7210WAT      O21871   0.606   3.584   1.759
 7210WAT     H121872   0.509   3.607   1.754
 7210WAT     H221873   0.657   3.660   1.799
 7211WAT      O21874   3.113   3.161   6.635
 7211WAT     H121875   3.071   3.098   6.570
 7211WAT     H221876   3.060   3.162   6.720
 7212WAT      O21877   0.470   0.514   2.489
 7212WAT     H121878   0.478   0.600   2.540
 7212WAT     H221879   0.551   0.458   2.504
 7213WAT      O21880   7.552   3.855   0.633
 7213WAT     H121881   7.495   3.886   0.557
 7213WAT     H221882   7.595   3.768   0.609
 7214WAT      O21883   2.271   2.879   0.280
 7214WAT     H121884   2.201   2.923   0.336
 7214WAT     H221885   2.348   2.851   0.337
 7215WAT      O21886   8.429   6.778   9.042
 7215WAT     H121887   8.500   6.714   9.012
 7215WAT     H221888   8.469   6.847   9.101
 7216WAT      O21889   7.085   4.763   7.165
 7216WAT     H121890   7.042   4.841   7.211
 7216WAT     H221891   7.044   4.750   7.075
 7217WAT      O21892   6.934   2.035   1.506
 7217WAT     H121893   6.917   1.987   1.420
 7217WAT     H221894   6.847   2.061   1.548
 7218WAT      O21895   7.840   9.817   4.186
 7218WAT     H121896   7.830   9.879   4.264
 7218WAT     H221897   7.889   9.863   4.112
 7219WAT      O21898   9.627   1.930   9.419
 7219WAT     H121899   9.592   1.902   9.508
 7219WAT     H221900   9.664   2.022   9.425
 7220WAT      O21901   4.073   4.667   8.818
 7220WAT     H121902   4.022   4.718   8.889
 7220WAT     H221903   4.008   4.620   8.758
 7221WAT      O21904   1.648   3.419   6.567
 7221WAT     H121905   1.574   3.417   6.635
 7221WAT     H221906   1.691   3.509   6.567
 7222WAT      O21907   2.468   0.533   5.208
 7222WAT     H121908   2.515   0.619   5.184
 7222WAT     H221909   2.371   0.540   5.183
 7223WAT      O21910   2.841   8.394   9.103
 7223WAT     H121911   2.772   8.409   9.032
 7223WAT     H221912   2.801   8.411   9.193
 7224WAT      O21913   5.876   7.100   5.248
 7224WAT     H121914   5.784   7.120   5.280
 7224WAT     H221915   5.904   7.009   5.280
 7225WAT      O21916   6.220   3.667   7.330
 7225WAT     H121917   6.187   3.648   7.237
 7225WAT     H221918   6.177   3.751   7.364
 7226WAT      O21919   6.979   1.585   4.757
 7226WAT     H121920   6.946   1.668   4.802
 7226WAT     H221921   7.068   1.560   4.795
 7227WAT      O21922   8.347   1.945   0.006
 7227WAT     H121923   8.369   1.908  -0.085
 7227WAT     H221924   8.281   1.884   0.051
 7228WAT      O21925   5.473   3.024   6.175
 7228WAT     H121926   5.377   3.014   6.146
 7228WAT     H221927   5.500   3.120   6.164
 7229WAT      O21928   8.790   0.215   9.857
 7229WAT     H121929   8.772   0.196   9.954
 7229WAT     H221930   8.846   0.298   9.850
 7230WAT      O21931   4.920   0.798   4.228
 7230WAT     H121932   5.016   0.823   4.223
 7230WAT     H221933   4.863   0.880   4.221
 7231WAT      O21934   2.999   6.311   3.111
 7231WAT     H121935   2.974   6.398   3.154
 7231WAT     H221936   3.098   6.298   3.118
 7232WAT      O21937   6.556   1.477   3.178
 7232WAT     H121938   6.546   1.576   3.173
 7232WAT     H221939   6.505   1.442   3.256
 7233WAT      O21940   1.390   0.999   0.014
 7233WAT     H121941   1.293   1.013  -0.009
 7233WAT     H221942   1.447   1.041  -0.056
 7234WAT      O21943   2.676   8.769   0.527
 7234WAT     H121944   2.607   8.800   0.461
 7234WAT     H221945   2.748   8.720   0.478
 7235WAT      O21946   8.571   1.351   7.898
 7235WAT     H121947   8.479   1.376   7.930
 7235WAT     H221948   8.577   1.251   7.891
 7236WAT      O21949   5.657   8.004   0.697
 7236WAT     H121950   5.624   7.909   0.699
 7236WAT     H221951   5.596   8.059   0.640
 7237WAT      O21952   7.002   2.452   0.180
 7237WAT     H121953   7.023   2.541   0.220
 7237WAT     H221954   6.946   2.399   0.244
 7238WAT      O21955   9.655   6.651   0.794
 7238WAT     H121956   9.728   6.668   0.727
 7238WAT     H221957   9.571   6.627   0.746
 7239WAT      O21958   9.185   7.764   2.472
 7239WAT     H121959   9.107   7.704   2.488
 7239WAT     H221960   9.257   7.713   2.423
 7240WAT      O21961   4.580   8.264   3.036
 7240WAT     H121962   4.501   8.213   3.003
 7240WAT     H221963   4.555   8.359   3.051
 7241WAT      O21964   0.467   6.897   9.333
 7241WAT     H121965   0.482   6.934   9.241
 7241WAT     H221966   0.480   6.798   9.331
 7242WAT      O21967   3.229   8.652   6.787
 7242WAT     H121968   3.212   8.588   6.862
 7242WAT     H221969   3.173   8.626   6.708
 7243WAT      O21970   0.008   4.150   1.771
 7243WAT     H121971   0.007   4.114   1.678
 7243WAT     H221972   0.075   4.099   1.825
 7244WAT      O21973   6.134   0.906   8.890
 7244WAT     H121974   6.226   0.900   8.928
 7244WAT     H221975   6.096   0.815   8.878
 7245WAT      O21976   4.751   2.440   8.786
 7245WAT     H121977   4.803   2.504   8.730
 7245WAT     H221978   4.797   2.426   8.873
 7246WAT      O21979   7.922   2.487   5.666
 7246WAT     H121980   7.962   2.400   5.635
 7246WAT     H221981   7.944   2.559   5.600
 7247WAT      O21982   8.503   0.898   9.356
 7247WAT     H121983   8.434   0.944   9.300
 7247WAT     H221984   8.512   0.945   9.443
 7248WAT      O21985   5.259   5.749   7.319
 7248WAT     H121986   5.344   5.756   7.267
 7248WAT     H221987   5.245   5.654   7.347
 7249WAT      O21988   0.748   0.187   5.779
 7249WAT     H121989   0.847   0.176   5.776
 7249WAT     H221990   0.709   0.118   5.840
 7250WAT      O21991   4.601   1.184   8.428
 7250WAT     H121992   4.501   1.173   8.423
 7250WAT     H221993   4.639   1.189   8.336
 7251WAT      O21994   3.828   5.196   8.990
 7251WAT     H121995   3.747   5.225   8.939
 7251WAT     H221996   3.801   5.162   9.080
 7252WAT      O21997   6.268   1.913   1.180
 7252WAT     H121998   6.308   1.822   1.183
 7252WAT     H221999   6.333   1.979   1.218
 7253WAT      O22000   0.527   0.575   9.413
 7253WAT     H122001   0.517   0.502   9.480
 7253WAT     H222002   0.493   0.661   9.451
 7254WAT      O22003   6.497   9.356   2.320
 7254WAT     H122004   6.429   9.284   2.327
 7254WAT     H222005   6.456   9.443   2.348
 7255WAT      O22006   6.862   8.136   0.675
 7255WAT     H122007   6.828   8.103   0.587
 7255WAT     H222008   6.790   8.189   0.720
 7256WAT      O22009   1.056   5.391   7.768
 7256WAT     H122010   1.142   5.429   7.735
 7256WAT     H222011   1.075   5.326   7.842
 7257WAT      O22012   2.060   0.723   8.519
 7257WAT     H122013   2.110   0.698   8.602
 7257WAT     H222014   1.962   0.725   8.538
 7258WAT      O22015   2.487   8.646   2.302
 7258WAT     H122016   2.560   8.668   2.367
 7258WAT     H222017   2.400   8.680   2.336
 7259WAT      O22018   4.653   6.882   9.712
 7259WAT     H122019   4.554   6.899   9.711
 7259WAT     H222020   4.694   6.919   9.628
 7260WAT      O22021   6.920   8.699   2.462
 7260WAT     H122022   6.965   8.788   2.473
 7260WAT     H222023   6.874   8.696   2.373
 7261WAT      O22024   1.865   9.139   5.490
 7261WAT     H122025   1.779   9.186   5.470
 7261WAT     H222026   1.912   9.187   5.564
 7262WAT      O22027   8.061   6.114   2.747
 7262WAT     H122028   8.028   6.020   2.743
 7262WAT     H222029   8.069   6.150   2.654
 7263WAT      O22030   5.630   7.639   3.983
 7263WAT     H122031   5.717   7.644   4.033
 7263WAT     H222032   5.564   7.700   4.026
 7264WAT      O22033   1.087   5.488   6.644
 7264WAT     H122034   1.184   5.511   6.637
 7264WAT     H222035   1.069   5.402   6.597
 7265WAT      O22036   3.242   8.623   2.132
 7265WAT     H122037   3.314   8.569   2.090
 7265WAT     H222038   3.171   8.643   2.065
 7266WAT      O22039   1.583   7.110   7.827
 7266WAT     H122040   1.669   7.161   7.829
 7266WAT     H222041   1.507   7.172   7.847
 7267WAT      O22042   9.518   8.813   4.262
 7267WAT     H122043   9.563   8.753   4.195
 7267WAT     H222044   9.560   8.800   4.352
 7268WAT      O22045   2.708   4.279   8.608
 7268WAT     H122046   2.651   4.203   8.638
 7268WAT     H222047   2.772   4.303   8.681
 7269WAT      O22048   1.968   2.030   4.746
 7269WAT     H122049   2.020   2.115   4.757
 7269WAT     H222050   2.029   1.952   4.753
 7270WAT      O22051   5.441   6.141   7.143
 7270WAT     H122052   5.410   6.079   7.070
 7270WAT     H222053   5.476   6.087   7.219
 7271WAT      O22054   9.783   8.445   7.600
 7271WAT     H122055   9.742   8.452   7.691
 7271WAT     H222056   9.856   8.376   7.602
 7272WAT      O22057   1.956   2.819   6.736
 7272WAT     H122058   1.888   2.861   6.676
 7272WAT     H222059   1.976   2.882   6.812
 7273WAT      O22060   0.277   7.070   5.894
 7273WAT     H122061   0.251   7.097   5.986
 7273WAT     H222062   0.196   7.060   5.837
 7274WAT      O22063   0.832   1.491   6.883
 7274WAT     H122064   0.922   1.490   6.841
 7274WAT     H222065   0.841   1.495   6.983
 7275WAT      O22066   9.113   6.975   8.932
 7275WAT     H122067   9.175   7.026   8.992
 7275WAT     H222068   9.085   7.032   8.855
 7276WAT      O22069   9.796   8.416   0.545
 7276WAT     H122070   9.881   8.424   0.494
 7276WAT     H222071   9.721   8.455   0.492
 7277WAT      O22072   0.151   9.169   7.594
 7277WAT     H122073   0.069   9.187   7.538
 7277WAT     H222074   0.131   9.192   7.689
 7278WAT      O22075   0.894   0.517   3.779
 7278WAT     H122076   0.804   0.532   3.738
 7278WAT     H222077   0.904   0.575   3.860
 7279WAT      O22078   4.649   7.850   1.383
 7279WAT     H122079   4.742   7.887   1.377
 7279WAT     H222080   4.636   7.783   1.310
 7280WAT      O22081   1.697   8.776   6.053
 7280WAT     H122082   1.614   8.824   6.023
 7280WAT     H222083   1.731   8.719   5.979
 7281WAT      O22084   4.922   6.875   9.111
 7281WAT     H122085   4.954   6.806   9.047
 7281WAT     H222086   4.960   6.858   9.202
 7282WAT      O22087   8.927   0.576   2.027
 7282WAT     H122088   9.019   0.573   2.067
 7282WAT     H222089   8.882   0.487   2.039
 7283WAT      O22090   5.856   6.441   3.180
 7283WAT     H122091   5.883   6.537   3.181
 7283WAT     H222092   5.920   6.388   3.125
 7284WAT      O22093   8.385   9.724   9.030
 7284WAT     H122094   8.481   9.711   9.054
 7284WAT     H222095   8.344   9.793   9.090
 7285WAT      O22096   9.459   0.271   6.716
 7285WAT     H122097   9.373   0.254   6.668
 7285WAT     H222098   9.441   0.323   6.800
 7286WAT      O22099   7.110   2.001   5.866
 7286WAT     H122100   7.127   1.917   5.815
 7286WAT     H222101   7.169   2.074   5.831
 7287WAT      O22102   7.357   8.856   4.250
 7287WAT     H122103   7.322   8.774   4.295
 7287WAT     H222104   7.412   8.830   4.171
 7288WAT      O22105   0.741   9.364   6.631
 7288WAT     H122106   0.732   9.416   6.716
 7288WAT     H222107   0.789   9.278   6.650
 7289WAT      O22108   0.233   2.142   3.593
 7289WAT     H122109   0.261   2.167   3.686
 7289WAT     H222110   0.305   2.086   3.552
 7290WAT      O22111   7.730   3.857   2.611
 7290WAT     H122112   7.747   3.869   2.709
 7290WAT     H222113   7.708   3.946   2.571
 7291WAT      O22114   2.344   1.725   8.020
 7291WAT     H122115   2.367   1.628   8.029
 7291WAT     H222116   2.292   1.738   7.935
 7292WAT      O22117   6.995   5.470   1.783
 7292WAT     H122118   6.955   5.519   1.860
 7292WAT     H222119   6.969   5.513   1.697
 7293WAT      O22120   8.118   8.913   9.564
 7293WAT     H122121   8.206   8.910   9.612
 7293WAT     H222122   8.130   8.878   9.471
 7294WAT      O22123   4.601   8.097   0.528
 7294WAT     H122124   4.656   8.177   0.502
 7294WAT     H222125   4.520   8.092   0.471
 7295WAT      O22126   2.823   1.639   4.135
 7295WAT     H122127   2.856   1.602   4.048
 7295WAT     H222128   2.786   1.564   4.191
 7296WAT      O22129   3.701   2.906   8.869
 7296WAT     H122130   3.695   2.873   8.963
 7296WAT     H222131   3.794   2.942   8.853
 7297WAT      O22132   5.902   7.144   4.865
 7297WAT     H122133   5.940   7.079   4.930
 7297WAT     H222134   5.821   7.105   4.822
 7298WAT      O22135   2.582   4.364   0.501
 7298WAT     H122136   2.553   4.273   0.532
 7298WAT     H222137   2.639   4.407   0.571
 7299WAT      O22138   6.794   7.951   9.552
 7299WAT     H122139   6.748   7.994   9.474
 7299WAT     H222140   6.836   7.865   9.523
 7300WAT      O22141   2.459   3.404   4.575
 7300WAT     H122142   2.388   3.471   4.599
 7300WAT     H222143   2.450   3.323   4.633
 7301WAT      O22144   0.048   4.799   4.198
 7301WAT     H122145   0.042   4.771   4.103
 7301WAT     H222146  -0.028   4.861   4.219
 7302WAT      O22147   9.445   2.703   4.457
 7302WAT     H122148   9.425   2.609   4.430
 7302WAT     H222149   9.513   2.704   4.530
 7303WAT      O22150   4.048   5.647   0.565
 7303WAT     H122151   3.999   5.720   0.517
 7303WAT     H222152   4.089   5.585   0.497
 7304WAT      O22153   8.713   7.885   5.249
 7304WAT     H122154   8.678   7.794   5.227
 7304WAT     H222155   8.637   7.951   5.248
 7305WAT      O22156   7.769   0.034   8.293
 7305WAT     H122157   7.751  -0.016   8.378
 7305WAT     H222158   7.779   0.131   8.313
 7306WAT      O22159   3.570   3.181   0.422
 7306WAT     H122160   3.616   3.266   0.397
 7306WAT     H222161   3.514   3.150   0.345
 7307WAT      O22162   8.690   5.711   4.247
 7307WAT     H122163   8.610   5.681   4.195
 7307WAT     H222164   8.662   5.735   4.340
 7308WAT      O22165   2.151   8.223   6.950
 7308WAT     H122166   2.095   8.246   7.030
 7308WAT     H222167   2.208   8.302   6.926
 7309WAT      O22168   5.873   3.611   6.064
 7309WAT     H122169   5.953   3.618   6.123
 7309WAT     H222170   5.795   3.656   6.107
 7310WAT      O22171   9.854   9.065   0.992
 7310WAT     H122172   9.795   8.995   0.951
 7310WAT     H222173   9.802   9.118   1.058
 7311WAT      O22174   1.793   8.516   9.323
 7311WAT     H122175   1.879   8.469   9.305
 7311WAT     H222176   1.717   8.452   9.313
 7312WAT      O22177   9.172   2.459   5.791
 7312WAT     H122178   9.075   2.435   5.794
 7312WAT     H222179   9.182   2.558   5.783
 7313WAT      O22180   6.584   4.876   9.876
 7313WAT     H122181   6.646   4.954   9.867
 7313WAT     H222182   6.538   4.880   9.964
 7314WAT      O22183   0.562   3.397   7.362
 7314WAT     H122184   0.632   3.448   7.413
 7314WAT     H222185   0.544   3.310   7.408
 7315WAT      O22186   1.998   1.878   3.144
 7315WAT     H122187   1.962   1.812   3.210
 7315WAT     H222188   2.095   1.861   3.128
 7316WAT      O22189   9.415   8.141   5.467
 7316WAT     H122190   9.486   8.153   5.536
 7316WAT     H222191   9.327   8.173   5.503
 7317WAT      O22192   9.847   9.786   9.527
 7317WAT     H122193   9.884   9.774   9.619
 7317WAT     H222194   9.866   9.704   9.472
 7318WAT      O22195   0.802   4.623   4.192
 7318WAT     H122196   0.877   4.656   4.249
 7318WAT     H222197   0.825   4.531   4.157
 7319WAT      O22198   4.753   2.447   0.051
 7319WAT     H122199   4.843   2.409   0.072
 7319WAT     H222200   4.710   2.392  -0.020
 7320WAT      O22201   3.081   7.004   1.095
 7320WAT     H122202   3.006   7.069   1.106
 7320WAT     H222203   3.089   6.947   1.176
 7321WAT      O22204   8.813   8.653   8.886
 7321WAT     H122205   8.783   8.701   8.968
 7321WAT     H222206   8.753   8.676   8.809
 7322WAT      O22207   0.548   8.318   4.947
 7322WAT     H122208   0.636   8.292   4.907
 7322WAT     H222209   0.544   8.417   4.956
 7323WAT      O22210   5.805   7.663   9.341
 7323WAT     H122211   5.792   7.606   9.422
 7323WAT     H222212   5.817   7.758   9.369
 7324WAT      O22213   5.479   8.750   8.229
 7324WAT     H122214   5.473   8.652   8.207
 7324WAT     H222215   5.539   8.763   8.307
 7325WAT      O22216   9.104   4.793   1.345
 7325WAT     H122217   9.031   4.860   1.359
 7325WAT     H222218   9.141   4.764   1.433
 7326WAT      O22219   7.748   4.538   6.216
 7326WAT     H122220   7.839   4.506   6.190
 7326WAT     H222221   7.683   4.517   6.143
 7327WAT      O22222   4.467   9.525   0.213
 7327WAT     H122223   4.514   9.536   0.300
 7327WAT     H222224   4.524   9.560   0.139
 7328WAT      O22225   0.004   0.090   8.558
 7328WAT     H122226   0.077   0.071   8.623
 7328WAT     H222227  -0.081   0.048   8.591
 7329WAT      O22228   0.527   6.250   9.302
 7329WAT     H122229   0.443   6.290   9.266
 7329WAT     H222230   0.534   6.270   9.400
 7330WAT      O22231   8.968   9.004   5.625
 7330WAT     H122232   8.979   8.951   5.542
 7330WAT     H222233   8.945   9.099   5.602
 7331WAT      O22234   0.978   1.759   6.406
 7331WAT     H122235   0.962   1.692   6.334
 7331WAT     H222236   1.040   1.830   6.373
 7332WAT      O22237   8.715   9.517   9.414
 7332WAT     H122238   8.770   9.481   9.338
 7332WAT     H222239   8.693   9.613   9.397
 7333WAT      O22240   5.562   8.650   6.938
 7333WAT     H122241   5.491   8.580   6.944
 7333WAT     H222242   5.558   8.708   7.020
 7334WAT      O22243   9.112   3.999   4.641
 7334WAT     H122244   9.057   4.061   4.585
 7334WAT     H222245   9.209   4.016   4.623
 7335WAT      O22246   7.238   1.266   2.330
 7335WAT     H122247   7.231   1.217   2.243
 7335WAT     H222248   7.147   1.283   2.366
 7336WAT      O22249   9.059   0.055   5.339
 7336WAT     H122250   9.039   0.153   5.346
 7336WAT     H222251   9.087   0.033   5.246
 7337WAT      O22252   5.660   9.148   1.370
 7337WAT     H122253   5.655   9.212   1.293
 7337WAT     H222254   5.686   9.058   1.337
 7338WAT      O22255   8.726   2.932   3.993
 7338WAT     H122256   8.657   2.928   4.065
 7338WAT     H222257   8.759   2.840   3.972
 7339WAT      O22258   5.583   7.032   4.065
 7339WAT     H122259   5.662   7.021   4.126
 7339WAT     H222260   5.534   7.115   4.089
 7340WAT      O22261   1.902   2.979   5.910
 7340WAT     H122262   1.931   3.074   5.919
 7340WAT     H222263   1.808   2.976   5.874
 7341WAT      O22264   0.492   8.113   8.338
 7341WAT     H122265   0.434   8.066   8.404
 7341WAT     H222266   0.468   8.210   8.336
 7342WAT      O22267   8.326   2.461   4.621
 7342WAT     H122268   8.401   2.503   4.672
 7342WAT     H222269   8.240   2.506   4.646
 7343WAT      O22270   7.241   1.877   2.901
 7343WAT     H122271   7.190   1.791   2.907
 7343WAT     H222272   7.269   1.893   2.807
 7344WAT      O22273   0.359   5.595   5.070
 7344WAT     H122274   0.447   5.574   5.028
 7344WAT     H222275   0.334   5.689   5.048
 7345WAT      O22276   6.476   0.579   2.966
 7345WAT     H122277   6.455   0.676   2.977
 7345WAT     H222278   6.510   0.563   2.873
 7346WAT      O22279   0.078   6.260   8.991
 7346WAT     H122280   0.085   6.249   8.892
 7346WAT     H222281   0.067   6.170   9.035
 7347WAT      O22282   8.911   6.078   5.557
 7347WAT     H122283   8.846   6.074   5.481
 7347WAT     H222284   8.899   5.997   5.615
 7348WAT      O22285   8.024   8.371   4.229
 7348WAT     H122286   8.072   8.332   4.150
 7348WAT     H222287   8.063   8.335   4.313
 7349WAT      O22288   3.033   7.803   0.384
 7349WAT     H122289   3.043   7.834   0.290
 7349WAT     H222290   3.110   7.837   0.438
 7350WAT      O22291   1.418   5.994   9.598
 7350WAT     H122292   1.343   6.003   9.663
 7350WAT     H222293   1.449   6.084   9.570
 7351WAT      O22294   6.647   5.736   1.918
 7351WAT     H122295   6.624   5.797   1.994
 7351WAT     H222296   6.720   5.674   1.947
 7352WAT      O22297   7.751   6.102   9.653
 7352WAT     H122298   7.690   6.180   9.640
 7352WAT     H222299   7.828   6.108   9.589
 7353WAT      O22300   2.206   5.315   6.831
 7353WAT     H122301   2.137   5.364   6.884
 7353WAT     H222302   2.160   5.247   6.772
 7354WAT      O22303   5.770   7.635   4.906
 7354WAT     H122304   5.802   7.704   4.841
 7354WAT     H222305   5.680   7.662   4.941
 7355WAT      O22306   7.994   7.921   0.158
 7355WAT     H122307   8.069   7.925   0.092
 7355WAT     H222308   7.994   7.832   0.202
 7356WAT      O22309   5.768   8.564   5.052
 7356WAT     H122310   5.736   8.493   5.114
 7356WAT     H222311   5.713   8.563   4.968
 7357WAT      O22312   9.121   6.598   5.407
 7357WAT     H122313   9.119   6.629   5.502
 7357WAT     H222314   9.190   6.650   5.356
 7358WAT      O22315   8.943   4.105   8.927
 7358WAT     H122316   8.997   4.189   8.940
 7358WAT     H222317   8.997   4.040   8.873
 7359WAT      O22318   3.709   6.934   1.360
 7359WAT     H122319   3.740   6.932   1.456
 7359WAT     H222320   3.703   6.840   1.326
 7360WAT      O22321   4.456   1.013   2.434
 7360WAT     H122322   4.545   1.032   2.394
 7360WAT     H222323   4.403   1.097   2.440
 7361WAT      O22324   1.257   1.851   0.178
 7361WAT     H122325   1.261   1.901   0.265
 7361WAT     H222326   1.343   1.803   0.164
 7362WAT      O22327   1.576   4.518   0.327
 7362WAT     H122328   1.524   4.453   0.272
 7362WAT     H222329   1.513   4.584   0.368
 7363WAT      O22330   2.147   2.346   9.560
 7363WAT     H122331   2.136   2.267   9.500
 7363WAT     H222332   2.243   2.357   9.586
 7364WAT      O22333   5.784   0.228   2.465
 7364WAT     H122334   5.699   0.184   2.496
 7364WAT     H222335   5.856   0.213   2.533
 7365WAT      O22336   3.550   2.010   8.269
 7365WAT     H122337   3.480   1.952   8.311
 7365WAT     H222338   3.512   2.055   8.188
 7366WAT      O22339   0.999   7.468   0.130
 7366WAT     H122340   1.005   7.371   0.152
 7366WAT     H222341   1.006   7.481   0.031
 7367WAT      O22342   2.159   5.770   3.741
 7367WAT     H122343   2.159   5.862   3.779
 7367WAT     H222344   2.153   5.703   3.816
 7368WAT      O22345   2.375   2.904   6.759
 7368WAT     H122346   2.284   2.930   6.792
 7368WAT     H222347   2.370   2.815   6.714
 7369WAT      O22348   0.971   2.277   8.481
 7369WAT     H122349   0.914   2.292   8.400
 7369WAT     H222350   0.953   2.186   8.518
 7370WAT      O22351   3.834   5.531   8.176
 7370WAT     H122352   3.806   5.517   8.271
 7370WAT     H222353   3.928   5.500   8.164
 7371WAT      O22354   3.399   6.026   8.319
 7371WAT     H122355   3.435   6.077   8.397
 7371WAT     H222356   3.350   6.088   8.257
 7372WAT      O22357   9.252   0.700   5.570
 7372WAT     H122358   9.159   0.713   5.538
 7372WAT     H222359   9.315   0.694   5.492
 7373WAT      O22360   3.298   6.137   0.083
 7373WAT     H122361   3.211   6.093   0.060
 7373WAT     H222362   3.328   6.194   0.006
 7374WAT      O22363   4.699   7.231   9.229
 7374WAT     H122364   4.698   7.330   9.215
 7374WAT     H222365   4.638   7.187   9.163
 7375WAT      O22366   2.037   3.607   6.698
 7375WAT     H122367   2.077   3.544   6.632
 7375WAT     H222368   1.937   3.604   6.690
 7376WAT      O22369   8.409   9.205   9.562
 7376WAT     H122370   8.443   9.163   9.478
 7376WAT     H222371   8.457   9.291   9.577
 7377WAT      O22372   3.820   9.581   4.155
 7377WAT     H122373   3.759   9.582   4.234
 7377WAT     H222374   3.915   9.574   4.185
 7378WAT      O22375   4.731   7.379   6.616
 7378WAT     H122376   4.778   7.367   6.529
 7378WAT     H222377   4.731   7.476   6.641
 7379WAT      O22378   9.644   2.863   9.177
 7379WAT     H122379   9.629   2.955   9.142
 7379WAT     H222380   9.566   2.837   9.234
 7380WAT      O22381   5.308   1.357   0.233
 7380WAT     H122382   5.282   1.371   0.137
 7380WAT     H222383   5.341   1.444   0.271
 7381WAT      O22384   0.782   4.367   7.019
 7381WAT     H122385   0.838   4.351   7.100
 7381WAT     H222386   0.710   4.298   7.013
 7382WAT      O22387   1.407   3.872   9.371
 7382WAT     H122388   1.422   3.962   9.412
 7382WAT     H222389   1.432   3.801   9.436
 7383WAT      O22390   8.980   1.358   0.240
 7383WAT     H122391   8.898   1.333   0.291
 7383WAT     H222392   9.054   1.381   0.303
 7384WAT      O22393   4.160   8.674   8.955
 7384WAT     H122394   4.248   8.682   8.908
 7384WAT     H222395   4.089   8.722   8.903
 7385WAT      O22396   2.851   2.945   6.023
 7385WAT     H122397   2.890   2.867   6.071
 7385WAT     H222398   2.917   3.021   6.024
 7386WAT      O22399   4.176   1.066   4.361
 7386WAT     H122400   4.109   1.012   4.312
 7386WAT     H222401   4.265   1.020   4.360
 7387WAT      O22402   2.146   8.506   9.815
 7387WAT     H122403   2.150   8.509   9.915
 7387WAT     H222404   2.055   8.477   9.787
 7388WAT      O22405   1.572   0.688   9.461
 7388WAT     H122406   1.567   0.605   9.406
 7388WAT     H222407   1.628   0.756   9.414
 7389WAT      O22408   5.233   2.759   5.988
 7389WAT     H122409   5.140   2.760   5.952
 7389WAT     H222410   5.246   2.677   6.045
 7390WAT      O22411   9.572   3.094   8.253
 7390WAT     H122412   9.606   3.058   8.340
 7390WAT     H222413   9.646   3.144   8.206
 7391WAT      O22414   7.040   2.014   7.166
 7391WAT     H122415   7.130   1.972   7.173
 7391WAT     H222416   7.031   2.087   7.234
 7392WAT      O22417   2.537   0.634   9.023
 7392WAT     H122418   2.545   0.535   9.013
 7392WAT     H222419   2.468   0.656   9.092
 7393WAT      O22420   4.161   0.798   7.050
 7393WAT     H122421   4.228   0.782   6.978
 7393WAT     H222422   4.163   0.721   7.114
 7394WAT      O22423   9.489   8.881   5.367
 7394WAT     H122424   9.564   8.817   5.381
 7394WAT     H222425   9.465   8.924   5.454
 7395WAT      O22426   5.796   8.418   1.551
 7395WAT     H122427   5.768   8.322   1.544
 7395WAT     H222428   5.716   8.477   1.542
 7396WAT      O22429   7.373   3.372   9.872
 7396WAT     H122430   7.275   3.386   9.853
 7396WAT     H222431   7.398   3.278   9.847
 7397WAT      O22432   5.550   7.148   0.765
 7397WAT     H122433   5.532   7.059   0.808
 7397WAT     H222434   5.592   7.209   0.832
 7398WAT      O22435   6.262   9.624   0.486
 7398WAT     H122436   6.223   9.578   0.566
 7398WAT     H222437   6.264   9.723   0.503
 7399WAT      O22438   9.135   2.318   1.710
 7399WAT     H122439   9.198   2.395   1.723
 7399WAT     H222440   9.122   2.270   1.796
 7400WAT      O22441   9.261   5.637   1.936
 7400WAT     H122442   9.299   5.560   1.886
 7400WAT     H222443   9.176   5.667   1.893
 7401WAT      O22444   2.467   3.916   6.767
 7401WAT     H122445   2.410   3.956   6.695
 7401WAT     H222446   2.563   3.938   6.749
 7402WAT      O22447   5.936   7.187   3.114
 7402WAT     H122448   5.911   7.104   3.164
 7402WAT     H222449   6.027   7.177   3.075
 7403WAT      O22450   2.589   8.233   6.079
 7403WAT     H122451   2.628   8.155   6.127
 7403WAT     H222452   2.529   8.200   6.006
 7404WAT      O22453   1.864   3.339   2.924
 7404WAT     H122454   1.771   3.341   2.887
 7404WAT     H222455   1.860   3.339   3.024
 7405WAT      O22456   5.431   6.694   8.330
 7405WAT     H122457   5.369   6.738   8.395
 7405WAT     H222458   5.524   6.694   8.366
 7406WAT      O22459   4.357   0.410   2.910
 7406WAT     H122460   4.272   0.369   2.878
 7406WAT     H222461   4.420   0.421   2.834
 7407WAT      O22462   0.445   6.311   1.686
 7407WAT     H122463   0.375   6.369   1.643
 7407WAT     H222464   0.473   6.240   1.622
 7408WAT      O22465   7.609   0.991   5.383
 7408WAT     H122466   7.649   0.928   5.317
 7408WAT     H222467   7.607   0.948   5.473
 7409WAT      O22468   5.113   2.843   1.923
 7409WAT     H122469   5.085   2.755   1.960
 7409WAT     H222470   5.060   2.863   1.840
 7410WAT      O22471   3.137   4.167   9.234
 7410WAT     H122472   3.194   4.148   9.154
 7410WAT     H222473   3.075   4.090   9.249
 7411WAT      O22474   8.549   0.268   9.699
 7411WAT     H122475   8.619   0.261   9.771
 7411WAT     H222476   8.591   0.297   9.614
 7412WAT      O22477   1.258   6.861   6.966
 7412WAT     H122478   1.211   6.888   7.050
 7412WAT     H222479   1.355   6.847   6.985
 7413WAT      O22480   3.875   0.433   5.533
 7413WAT     H122481   3.870   0.410   5.436
 7413WAT     H222482   3.798   0.492   5.558
 7414WAT      O22483   4.975   7.394   7.437
 7414WAT     H122484   4.967   7.492   7.457
 7414WAT     H222485   4.884   7.357   7.417
 7415WAT      O22486   7.966   5.403   4.157
 7415WAT     H122487   8.049   5.373   4.111
 7415WAT     H222488   7.901   5.437   4.089
 7416WAT      O22489   3.279   7.344   1.366
 7416WAT     H122490   3.198   7.285   1.372
 7416WAT     H222491   3.319   7.336   1.275
 7417WAT      O22492   8.976   7.843   1.124
 7417WAT     H122493   8.974   7.743   1.115
 7417WAT     H222494   8.986   7.884   1.033
 7418WAT      O22495   7.662   4.444   6.468
 7418WAT     H122496   7.573   4.399   6.472
 7418WAT     H222497   7.680   4.473   6.374
 7419WAT      O22498   3.049   1.975   6.563
 7419WAT     H122499   2.960   1.931   6.553
 7419WAT     H222500   3.086   1.996   6.472
 7420WAT      O22501   3.449   2.629   9.331
 7420WAT     H122502   3.396   2.673   9.404
 7420WAT     H222503   3.546   2.634   9.353
 7421WAT      O22504   4.694   2.981   1.353
 7421WAT     H122505   4.671   3.023   1.441
 7421WAT     H222506   4.791   2.995   1.334
 7422WAT      O22507   1.787   1.023   3.551
 7422WAT     H122508   1.736   0.938   3.564
 7422WAT     H222509   1.856   1.032   3.623
 7423WAT      O22510   4.563   1.102   5.619
 7423WAT     H122511   4.592   1.029   5.680
 7423WAT     H222512   4.603   1.088   5.528
 7424WAT      O22513   9.661   3.829   7.942
 7424WAT     H122514   9.661   3.928   7.951
 7424WAT     H222515   9.754   3.797   7.923
 7425WAT      O22516   3.057   7.127   7.383
 7425WAT     H122517   3.028   7.161   7.473
 7425WAT     H222518   3.077   7.204   7.323
 7426WAT      O22519   2.306   9.412   6.135
 7426WAT     H122520   2.232   9.455   6.188
 7426WAT     H222521   2.288   9.424   6.037
 7427WAT      O22522   6.970   5.497   5.829
 7427WAT     H122523   7.029   5.417   5.842
 7427WAT     H222524   6.879   5.477   5.865
 7428WAT      O22525   8.662   2.477   9.357
 7428WAT     H122526   8.697   2.383   9.356
 7428WAT     H222527   8.632   2.502   9.265
 7429WAT      O22528   2.544   6.778   1.923
 7429WAT     H122529   2.593   6.691   1.925
 7429WAT     H222530   2.531   6.811   2.017
 7430WAT      O22531   1.840   5.848   5.498
 7430WAT     H122532   1.919   5.909   5.497
 7430WAT     H222533   1.855   5.775   5.565
 7431WAT      O22534   4.831   0.708   4.923
 7431WAT     H122535   4.741   0.701   4.880
 7431WAT     H222536   4.892   0.639   4.885
 7432WAT      O22537   9.148   1.592   2.656
 7432WAT     H122538   9.061   1.641   2.660
 7432WAT     H222539   9.196   1.601   2.744
 7433WAT      O22540   1.422   8.174   2.142
 7433WAT     H122541   1.429   8.077   2.121
 7433WAT     H222542   1.476   8.227   2.076
 7434WAT      O22543   5.492   8.486   7.915
 7434WAT     H122544   5.399   8.519   7.899
 7434WAT     H222545   5.541   8.482   7.827
 7435WAT      O22546   2.679   2.141   9.561
 7435WAT     H122547   2.649   2.046   9.575
 7435WAT     H222548   2.753   2.162   9.626
 7436WAT      O22549   3.527   2.239   2.813
 7436WAT     H122550   3.496   2.148   2.784
 7436WAT     H222551   3.590   2.230   2.890
 7437WAT      O22552   7.687   1.202   3.732
 7437WAT     H122553   7.679   1.110   3.770
 7437WAT     H222554   7.611   1.219   3.669
 7438WAT      O22555   7.243   9.691   0.799
 7438WAT     H122556   7.305   9.702   0.720
 7438WAT     H222557   7.172   9.625   0.776
 7439WAT      O22558   8.755   4.403   0.070
 7439WAT     H122559   8.671   4.431   0.116
 7439WAT     H222560   8.834   4.433   0.123
 7440WAT      O22561   0.281   7.212   1.568
 7440WAT     H122562   0.302   7.300   1.611
 7440WAT     H222563   0.218   7.161   1.626
 7441WAT      O22564   6.712   0.902   3.631
 7441WAT     H122565   6.659   0.917   3.715
 7441WAT     H222566   6.790   0.843   3.651
 7442WAT      O22567   7.176   1.431   4.859
 7442WAT     H122568   7.188   1.454   4.955
 7442WAT     H222569   7.262   1.395   4.822
 7443WAT      O22570   8.594   4.954   3.030
 7443WAT     H122571   8.615   5.042   2.988
 7443WAT     H222572   8.528   4.966   3.104
 7444WAT      O22573   4.031   7.480   7.673
 7444WAT     H122574   3.989   7.446   7.589
 7444WAT     H222575   3.962   7.527   7.728
 7445WAT      O22576   1.232   1.658   9.012
 7445WAT     H122577   1.315   1.621   8.972
 7445WAT     H222578   1.152   1.614   8.971
 7446WAT      O22579   8.981   9.675   9.125
 7446WAT     H122580   9.078   9.673   9.100
 7446WAT     H222581   8.965   9.750   9.190
 7447WAT      O22582   3.439   9.842   6.669
 7447WAT     H122583   3.477   9.917   6.725
 7447WAT     H222584   3.514   9.788   6.632
 7448WAT      O22585   3.764   8.175   2.744
 7448WAT     H122586   3.833   8.241   2.715
 7448WAT     H222587   3.690   8.173   2.676
 7449WAT      O22588   3.171   6.131   9.036
 7449WAT     H122589   3.185   6.147   9.134
 7449WAT     H222590   3.103   6.196   9.001
 7450WAT      O22591   2.880   4.752   8.518
 7450WAT     H122592   2.843   4.727   8.428
 7450WAT     H222593   2.806   4.755   8.585
 7451WAT      O22594   6.764   2.798   2.584
 7451WAT     H122595   6.812   2.727   2.636
 7451WAT     H222596   6.726   2.865   2.648
 7452WAT      O22597   5.915   2.771   7.366
 7452WAT     H122598   5.901   2.708   7.442
 7452WAT     H222599   5.989   2.834   7.388
 7453WAT      O22600   0.947   8.034   8.318
 7453WAT     H122601   1.000   7.950   8.310
 7453WAT     H222602   1.008   8.111   8.335
 7454WAT      O22603   3.421   7.097   8.829
 7454WAT     H122604   3.350   7.040   8.871
 7454WAT     H222605   3.418   7.086   8.730
 7455WAT      O22606   2.752   0.149   6.456
 7455WAT     H122607   2.653   0.166   6.454
 7455WAT     H222608   2.785   0.133   6.363
 7456WAT      O22609   9.447   5.390   5.291
 7456WAT     H122610   9.432   5.377   5.389
 7456WAT     H222611   9.517   5.461   5.278
 7457WAT      O22612   4.556   6.608   0.984
 7457WAT     H122613   4.637   6.633   0.932
 7457WAT     H222614   4.527   6.516   0.959
 7458WAT      O22615   4.938   4.118   9.131
 7458WAT     H122616   4.952   4.101   9.229
 7458WAT     H222617   5.019   4.088   9.080
 7459WAT      O22618   1.674   7.972   0.616
 7459WAT     H122619   1.696   7.902   0.548
 7459WAT     H222620   1.602   7.938   0.677
 7460WAT      O22621   1.325   2.096   3.660
 7460WAT     H122622   1.363   2.023   3.602
 7460WAT     H222623   1.260   2.056   3.725
 7461WAT      O22624   6.087   2.031   9.807
 7461WAT     H122625   6.120   2.002   9.897
 7461WAT     H222626   6.149   2.100   9.770
 7462WAT      O22627   5.971   4.312   9.041
 7462WAT     H122628   6.040   4.365   9.090
 7462WAT     H222629   5.946   4.232   9.096
 7463WAT      O22630   4.458   3.831   0.844
 7463WAT     H122631   4.502   3.852   0.757
 7463WAT     H222632   4.398   3.907   0.871
 7464WAT      O22633   3.470   2.802   4.000
 7464WAT     H122634   3.371   2.792   4.011
 7464WAT     H222635   3.491   2.827   3.905
 7465WAT      O22636   0.187   3.480   3.759
 7465WAT     H122637   0.200   3.499   3.662
 7465WAT     H222638   0.091   3.457   3.775
 7466WAT      O22639   0.231   9.298   3.652
 7466WAT     H122640   0.136   9.299   3.684
 7466WAT     H222641   0.257   9.205   3.625
 7467WAT      O22642   7.715   6.263   2.432
 7467WAT     H122643   7.658   6.264   2.515
 7467WAT     H222644   7.673   6.322   2.363
 7468WAT      O22645   6.754   1.261   4.757
 7468WAT     H122646   6.715   1.316   4.684
 7468WAT     H222647   6.853   1.254   4.745
 7469WAT      O22648   5.548   8.827   7.146
 7469WAT     H122649   5.533   8.922   7.175
 7469WAT     H222650   5.503   8.765   7.210
 7470WAT      O22651   0.727   9.064   9.801
 7470WAT     H122652   0.816   9.097   9.831
 7470WAT     H222653   0.676   9.138   9.756
 7471WAT      O22654   1.648   1.114   4.696
 7471WAT     H122655   1.698   1.114   4.782
 7471WAT     H222656   1.704   1.155   4.624
 7472WAT      O22657   6.149   2.488   5.803
 7472WAT     H122658   6.071   2.544   5.830
 7472WAT     H222659   6.119   2.394   5.787
 7473WAT      O22660   9.542   3.494   2.163
 7473WAT     H122661   9.453   3.509   2.120
 7473WAT     H222662   9.531   3.492   2.263
 7474WAT      O22663   9.797   8.826   8.285
 7474WAT     H122664   9.808   8.920   8.251
 7474WAT     H222665   9.846   8.763   8.225
 7475WAT      O22666   7.019   8.807   8.394
 7475WAT     H122667   6.947   8.834   8.458
 7475WAT     H222668   7.074   8.886   8.370
 7476WAT      O22669   8.344   7.863   7.655
 7476WAT     H122670   8.267   7.914   7.693
 7476WAT     H222671   8.427   7.884   7.708
 7477WAT      O22672   9.596   5.487   2.072
 7477WAT     H122673   9.682   5.470   2.122
 7477WAT     H222674   9.565   5.401   2.031
 7478WAT      O22675   3.812   1.172   4.352
 7478WAT     H122676   3.833   1.090   4.299
 7478WAT     H222677   3.794   1.248   4.289
 7479WAT      O22678   5.956   6.161   0.326
 7479WAT     H122679   5.965   6.096   0.401
 7479WAT     H222680   5.958   6.254   0.362
 7480WAT      O22681   1.890   0.851   6.043
 7480WAT     H122682   1.880   0.823   5.948
 7480WAT     H222683   1.987   0.869   6.062
 7481WAT      O22684   3.563   4.524   4.966
 7481WAT     H122685   3.622   4.595   5.004
 7481WAT     H222686   3.608   4.481   4.888
 7482WAT      O22687   0.595   6.061   7.239
 7482WAT     H122688   0.606   6.076   7.140
 7482WAT     H222689   0.664   6.114   7.288
 7483WAT      O22690   6.381   8.045   5.376
 7483WAT     H122691   6.342   7.962   5.416
 7483WAT     H222692   6.392   8.032   5.277
 7484WAT      O22693   1.568   0.545   9.694
 7484WAT     H122694   1.555   0.593   9.607
 7484WAT     H222695   1.480   0.527   9.736
 7485WAT      O22696   9.393   2.770   7.365
 7485WAT     H122697   9.373   2.772   7.267
 7485WAT     H222698   9.375   2.678   7.401
 7486WAT      O22699   1.422   0.026   0.757
 7486WAT     H122700   1.359   0.032   0.679
 7486WAT     H222701   1.416  -0.066   0.797
 7487WAT      O22702   8.496   6.886   4.053
 7487WAT     H122703   8.562   6.838   4.112
 7487WAT     H222704   8.507   6.854   3.959
 7488WAT      O22705   0.854   4.428   4.960
 7488WAT     H122706   0.906   4.394   5.038
 7488WAT     H222707   0.812   4.352   4.911
 7489WAT      O22708   4.562   3.085   3.478
 7489WAT     H122709   4.643   3.026   3.465
 7489WAT     H222710   4.572   3.168   3.424
 7490WAT      O22711   7.851   3.087   8.233
 7490WAT     H122712   7.929   3.035   8.197
 7490WAT     H222713   7.782   3.097   8.161
 7491WAT      O22714   4.918   3.307   2.535
 7491WAT     H122715   4.933   3.339   2.628
 7491WAT     H222716   4.889   3.211   2.537
 7492WAT      O22717   3.975   2.015   7.330
 7492WAT     H122718   3.973   2.108   7.292
 7492WAT     H222719   3.886   1.971   7.316
 7493WAT      O22720   7.361   9.446   2.661
 7493WAT     H122721   7.394   9.460   2.755
 7493WAT     H222722   7.389   9.523   2.604
 7494WAT      O22723   7.848   6.016   1.315
 7494WAT     H122724   7.864   6.066   1.401
 7494WAT     H222725   7.804   6.077   1.249
 7495WAT      O22726   1.590   4.950   7.685
 7495WAT     H122727   1.646   4.982   7.609
 7495WAT     H222728   1.518   5.016   7.704
 7496WAT      O22729   3.260   2.937   2.810
 7496WAT     H122730   3.245   2.851   2.762
 7496WAT     H222731   3.336   2.986   2.768
 7497WAT      O22732   6.929   4.599   5.788
 7497WAT     H122733   6.937   4.694   5.817
 7497WAT     H222734   6.970   4.588   5.697
 7498WAT      O22735   3.185   3.709   6.098
 7498WAT     H122736   3.270   3.658   6.085
 7498WAT     H222737   3.176   3.778   6.026
 7499WAT      O22738   1.824   1.579   5.747
 7499WAT     H122739   1.902   1.597   5.807
 7499WAT     H222740   1.794   1.665   5.705
 7500WAT      O22741   7.403   8.502   4.119
 7500WAT     H122742   7.449   8.590   4.106
 7500WAT     H222743   7.318   8.517   4.170
 7501WAT      O22744   3.902   5.133   0.306
 7501WAT     H122745   3.822   5.119   0.247
 7501WAT     H222746   3.896   5.072   0.385
 7502WAT      O22747   3.507   8.113   5.602
 7502WAT     H122748   3.467   8.033   5.558
 7502WAT     H222749   3.489   8.109   5.701
 7503WAT      O22750   8.225   0.327   9.135
 7503WAT     H122751   8.308   0.275   9.155
 7503WAT     H222752   8.241   0.388   9.058
 7504WAT      O22753   9.255   9.764   9.457
 7504WAT     H122754   9.254   9.851   9.409
 7504WAT     H222755   9.337   9.712   9.432
 7505WAT      O22756   8.080   8.063   0.755
 7505WAT     H122757   8.091   8.161   0.773
 7505WAT     H222758   8.106   8.044   0.661
 7506WAT      O22759   6.710   1.006   1.923
 7506WAT     H122760   6.615   1.009   1.954
 7506WAT     H222761   6.766   0.958   1.991
 7507WAT      O22762   6.515   6.032   9.770
 7507WAT     H122763   6.486   6.030   9.866
 7507WAT     H222764   6.577   5.956   9.753
 7508WAT      O22765   9.544   8.929   3.816
 7508WAT     H122766   9.566   8.832   3.824
 7508WAT     H222767   9.626   8.980   3.790
 7509WAT      O22768   5.870   4.453   9.422
 7509WAT     H122769   5.958   4.494   9.446
 7509WAT     H222770   5.873   4.355   9.440
 7510WAT      O22771   8.006   3.816   6.669
 7510WAT     H122772   7.988   3.873   6.590
 7510WAT     H222773   7.931   3.750   6.681
 7511WAT      O22774   1.484   6.411   8.121
 7511WAT     H122775   1.471   6.472   8.199
 7511WAT     H222776   1.582   6.398   8.106
 7512WAT      O22777   2.331   8.423   7.222
 7512WAT     H122778   2.313   8.433   7.124
 7512WAT     H222779   2.388   8.498   7.254
 7513WAT      O22780   0.817   3.899   3.941
 7513WAT     H122781   0.792   3.965   3.870
 7513WAT     H222782   0.916   3.882   3.937
 7514WAT      O22783   0.209   7.528   8.148
 7514WAT     H122784   0.165   7.442   8.173
 7514WAT     H222785   0.141   7.591   8.111
 7515WAT      O22786   7.798   5.852   9.165
 7515WAT     H122787   7.854   5.925   9.125
 7515WAT     H222788   7.814   5.848   9.264
 7516WAT      O22789   1.802   1.616   4.316
 7516WAT     H122790   1.826   1.596   4.411
 7516WAT     H222791   1.738   1.547   4.282
 7517WAT      O22792   1.978   6.729   8.228
 7517WAT     H122793   2.015   6.649   8.181
 7517WAT     H222794   1.918   6.780   8.166
 7518WAT      O22795   0.989   7.429   6.970
 7518WAT     H122796   1.017   7.336   6.997
 7518WAT     H222797   1.050   7.496   7.013
 7519WAT      O22798   0.087   8.672   1.149
 7519WAT     H122799   0.155   8.667   1.076
 7519WAT     H222800   0.003   8.628   1.120
 7520WAT      O22801   2.606   7.480   4.464
 7520WAT     H122802   2.557   7.422   4.530
 7520WAT     H222803   2.620   7.429   4.379
 7521WAT      O22804   2.051   7.063   3.173
 7521WAT     H122805   2.132   7.039   3.227
 7521WAT     H222806   2.063   7.029   3.080
 7522WAT      O22807   1.382   9.258   6.437
 7522WAT     H122808   1.345   9.242   6.528
 7522WAT     H222809   1.314   9.306   6.381
 7523WAT      O22810   0.550   1.314   7.867
 7523WAT     H122811   0.612   1.326   7.789
 7523WAT     H222812   0.459   1.347   7.843
 7524WAT      O22813   2.569   0.928   1.247
 7524WAT     H122814   2.487   0.959   1.296
 7524WAT     H222815   2.550   0.842   1.201
 7525WAT      O22816   3.042   1.358   8.695
 7525WAT     H122817   3.020   1.261   8.704
 7525WAT     H222818   3.140   1.372   8.711
 7526WAT      O22819   0.837   7.865   5.553
 7526WAT     H122820   0.850   7.895   5.647
 7526WAT     H222821   0.806   7.942   5.497
 7527WAT      O22822   4.183   2.787   1.048
 7527WAT     H122823   4.272   2.831   1.033
 7527WAT     H222824   4.155   2.800   1.143
 7528WAT      O22825   1.598   2.072   6.286
 7528WAT     H122826   1.529   2.130   6.329
 7528WAT     H222827   1.559   1.982   6.269
 7529WAT      O22828   4.609   0.160   7.995
 7529WAT     H122829   4.649   0.250   7.976
 7529WAT     H222830   4.663   0.113   8.065
 7530WAT      O22831   5.076   1.875   5.323
 7530WAT     H122832   5.021   1.792   5.314
 7530WAT     H222833   5.173   1.851   5.331
 7531WAT      O22834   8.120   3.966   0.884
 7531WAT     H122835   8.066   4.017   0.951
 7531WAT     H222836   8.061   3.935   0.810
 7532WAT      O22837   6.487   3.862   7.532
 7532WAT     H122838   6.464   3.923   7.456
 7532WAT     H222839   6.582   3.879   7.560
 7533WAT      O22840   8.189   0.338   6.402
 7533WAT     H122841   8.245   0.415   6.369
 7533WAT     H222842   8.224   0.308   6.491
 7534WAT      O22843   2.160   0.991   7.851
 7534WAT     H122844   2.193   0.897   7.844
 7534WAT     H222845   2.207   1.038   7.926
 7535WAT      O22846   1.627   4.696   5.239
 7535WAT     H122847   1.720   4.668   5.264
 7535WAT     H222848   1.566   4.682   5.318
 7536WAT      O22849   7.048   6.990   4.364
 7536WAT     H122850   6.957   6.965   4.333
 7536WAT     H222851   7.099   7.031   4.288
 7537WAT      O22852   1.050   4.004   9.688
 7537WAT     H122853   1.075   4.054   9.605
 7537WAT     H222854   1.012   3.915   9.664
 7538WAT      O22855   5.845   2.632   3.796
 7538WAT     H122856   5.790   2.639   3.879
 7538WAT     H222857   5.822   2.706   3.734
 7539WAT      O22858   4.163   1.402   7.771
 7539WAT     H122859   4.242   1.453   7.736
 7539WAT     H222860   4.102   1.465   7.819
 7540WAT      O22861   5.146   7.518   2.340
 7540WAT     H122862   5.072   7.487   2.282
 7540WAT     H222863   5.183   7.604   2.305
 7541WAT      O22864   3.072   2.878   1.136
 7541WAT     H122865   3.140   2.949   1.155
 7541WAT     H222866   3.119   2.796   1.103
 7542WAT      O22867   3.394   2.740   6.998
 7542WAT     H122868   3.392   2.713   6.901
 7542WAT     H222869   3.486   2.725   7.034
 7543WAT      O22870   6.253   8.131   1.792
 7543WAT     H122871   6.154   8.137   1.779
 7543WAT     H222872   6.287   8.220   1.823
 7544WAT      O22873   9.165   4.456   4.571
 7544WAT     H122874   9.170   4.383   4.640
 7544WAT     H222875   9.238   4.443   4.504
 7545WAT      O22876   7.377   8.774   9.233
 7545WAT     H122877   7.325   8.845   9.186
 7545WAT     H222878   7.381   8.796   9.331
 7546WAT      O22879   8.419   7.739   0.693
 7546WAT     H122880   8.467   7.661   0.654
 7546WAT     H222881   8.324   7.715   0.711
 7547WAT      O22882   1.446   8.755   9.000
 7547WAT     H122883   1.525   8.816   8.998
 7547WAT     H222884   1.477   8.662   9.019
 7548WAT      O22885   3.186   6.560   1.050
 7548WAT     H122886   3.119   6.544   0.977
 7548WAT     H222887   3.273   6.517   1.026
 7549WAT      O22888   5.043   0.592   2.768
 7549WAT     H122889   5.139   0.595   2.796
 7549WAT     H222890   4.984   0.601   2.849
 7550WAT      O22891   5.294   7.161   9.339
 7550WAT     H122892   5.331   7.233   9.397
 7550WAT     H222893   5.246   7.201   9.261
 7551WAT      O22894   0.845   9.514   3.380
 7551WAT     H122895   0.908   9.590   3.396
 7551WAT     H222896   0.758   9.549   3.345
 7552WAT      O22897   5.950   9.501   7.996
 7552WAT     H122898   5.911   9.472   8.083
 7552WAT     H222899   6.019   9.572   8.011
 7553WAT      O22900   1.363   8.212   1.583
 7553WAT     H122901   1.452   8.248   1.553
 7553WAT     H222902   1.349   8.121   1.544
 7554WAT      O22903   1.389   6.085   9.293
 7554WAT     H122904   1.467   6.127   9.340
 7554WAT     H222905   1.307   6.094   9.349
 7555WAT      O22906   1.955   7.613   3.758
 7555WAT     H122907   2.044   7.630   3.800
 7555WAT     H222908   1.921   7.697   3.716
 7556WAT      O22909   9.552   3.062   3.184
 7556WAT     H122910   9.503   3.087   3.101
 7556WAT     H222911   9.515   2.975   3.219
 7557WAT      O22912   1.142   9.478   6.587
 7557WAT     H122913   1.127   9.405   6.654
 7557WAT     H222914   1.069   9.545   6.593
 7558WAT      O22915   7.767   7.540   5.226
 7558WAT     H122916   7.831   7.613   5.248
 7558WAT     H222917   7.802   7.453   5.260
 7559WAT      O22918   3.083   8.825   9.066
 7559WAT     H122919   3.088   8.922   9.042
 7559WAT     H222920   3.118   8.813   9.159
 7560WAT      O22921   8.041   8.946   7.127
 7560WAT     H122922   8.041   8.960   7.226
 7560WAT     H222923   7.972   9.005   7.086
 7561WAT      O22924   7.096   2.657   7.078
 7561WAT     H122925   7.098   2.706   6.991
 7561WAT     H222926   7.189   2.633   7.105
 7562WAT      O22927   7.656   8.492   2.748
 7562WAT     H122928   7.683   8.568   2.808
 7562WAT     H222929   7.696   8.505   2.658
 7563WAT      O22930   7.028   0.864   0.985
 7563WAT     H122931   7.023   0.777   1.036
 7563WAT     H222932   7.120   0.875   0.947
 7564WAT      O22933   7.568   5.460   3.913
 7564WAT     H122934   7.508   5.502   3.846
 7564WAT     H222935   7.572   5.361   3.898
 7565WAT      O22936   1.969   2.641   4.289
 7565WAT     H122937   1.996   2.550   4.320
 7565WAT     H222938   1.902   2.679   4.353
 7566WAT      O22939   9.388   8.832   2.079
 7566WAT     H122940   9.426   8.860   1.990
 7566WAT     H222941   9.459   8.785   2.131
 7567WAT      O22942   0.373   2.852   9.650
 7567WAT     H122943   0.300   2.867   9.584
 7567WAT     H222944   0.451   2.911   9.627
 7568WAT      O22945   1.453   8.495   2.949
 7568WAT     H122946   1.504   8.447   2.878
 7568WAT     H222947   1.517   8.543   3.009
 7569WAT      O22948   7.502   0.660   0.610
 7569WAT     H122949   7.501   0.698   0.703
 7569WAT     H222950   7.408   0.648   0.578
 7570WAT      O22951   3.686   5.896   9.251
 7570WAT     H122952   3.676   5.928   9.156
 7570WAT     H222953   3.775   5.927   9.286
 7571WAT      O22954   3.269   4.369   8.477
 7571WAT     H122955   3.346   4.416   8.433
 7571WAT     H222956   3.226   4.307   8.411
 7572WAT      O22957   0.896   6.065   5.899
 7572WAT     H122958   0.987   6.089   5.931
 7572WAT     H222959   0.854   6.001   5.963
 7573WAT      O22960   6.312   3.802   2.976
 7573WAT     H122961   6.275   3.820   2.885
 7573WAT     H222962   6.339   3.888   3.019
 7574WAT      O22963   7.986   2.414   0.708
 7574WAT     H122964   8.067   2.457   0.670
 7574WAT     H222965   8.005   2.382   0.801
 7575WAT      O22966   9.116   2.910   8.738
 7575WAT     H122967   9.172   2.881   8.660
 7575WAT     H222968   9.063   2.833   8.771
 7576WAT      O22969   6.556   2.797   1.312
 7576WAT     H122970   6.569   2.896   1.317
 7576WAT     H222971   6.469   2.773   1.355
 7577WAT      O22972   0.907   6.489   0.672
 7577WAT     H122973   0.898   6.581   0.710
 7577WAT     H222974   0.992   6.483   0.619
 7578WAT      O22975   5.765   0.213   5.460
 7578WAT     H122976   5.864   0.201   5.465
 7578WAT     H222977   5.744   0.309   5.444
 7579WAT      O22978   4.423   0.333   6.566
 7579WAT     H122979   4.480   0.413   6.584
 7579WAT     H222980   4.457   0.255   6.619
 7580WAT      O22981   3.229   2.889   0.511
 7580WAT     H122982   3.208   2.825   0.584
 7580WAT     H222983   3.171   2.970   0.519
 7581WAT      O22984   5.490   5.550   7.151
 7581WAT     H122985   5.548   5.594   7.220
 7581WAT     H222986   5.512   5.587   7.060
 7582WAT      O22987   7.119   6.034   8.898
 7582WAT     H122988   7.026   6.060   8.926
 7582WAT     H222989   7.147   5.953   8.948
 7583WAT      O22990   1.093   6.446   6.791
 7583WAT     H122991   1.099   6.410   6.884
 7583WAT     H222992   1.086   6.370   6.726
 7584WAT      O22993   3.189   9.048   2.280
 7584WAT     H122994   3.126   8.990   2.331
 7584WAT     H222995   3.218   9.000   2.197
 7585WAT      O22996   4.543   2.181   3.911
 7585WAT     H122997   4.574   2.206   3.819
 7585WAT     H222998   4.539   2.081   3.918
 7586WAT      O22999   6.778   2.515   3.118
 7586WAT     H123000   6.798   2.470   3.031
 7586WAT     H223001   6.817   2.607   3.117
 7587WAT      O23002   2.604   6.802   4.577
 7587WAT     H123003   2.654   6.759   4.502
 7587WAT     H223004   2.612   6.745   4.659
 7588WAT      O23005   5.332   7.239   1.622
 7588WAT     H123006   5.315   7.222   1.525
 7588WAT     H223007   5.358   7.334   1.635
 7589WAT      O23008   2.412   2.865   3.465
 7589WAT     H123009   2.382   2.843   3.372
 7589WAT     H223010   2.511   2.854   3.473
 7590WAT      O23011   8.062   3.027   5.186
 7590WAT     H123012   7.984   3.026   5.124
 7590WAT     H223013   8.133   3.087   5.150
 7591WAT      O23014   9.213   0.537   1.350
 7591WAT     H123015   9.305   0.501   1.336
 7591WAT     H223016   9.157   0.469   1.396
 7592WAT      O23017   3.639   9.027   5.825
 7592WAT     H123018   3.557   9.000   5.877
 7592WAT     H223019   3.629   8.998   5.730
 7593WAT      O23020   5.704   0.700   3.200
 7593WAT     H123021   5.681   0.605   3.183
 7593WAT     H223022   5.782   0.706   3.263
 7594WAT      O23023   5.307   4.315   6.922
 7594WAT     H123024   5.324   4.292   6.826
 7594WAT     H223025   5.393   4.344   6.965
 7595WAT      O23026   2.688   3.217   6.981
 7595WAT     H123027   2.761   3.199   7.046
 7595WAT     H223028   2.727   3.235   6.890
 7596WAT      O23029   4.197   5.000   0.399
 7596WAT     H123030   4.129   5.043   0.339
 7596WAT     H223031   4.173   4.904   0.413
 7597WAT      O23032   2.580   8.203   2.123
 7597WAT     H123033   2.629   8.281   2.161
 7597WAT     H223034   2.557   8.139   2.197
 7598WAT      O23035   1.314   1.283   7.922
 7598WAT     H123036   1.249   1.287   7.998
 7598WAT     H223037   1.327   1.375   7.885
 7599WAT      O23038   4.301   1.472   8.905
 7599WAT     H123039   4.336   1.564   8.889
 7599WAT     H223040   4.305   1.452   9.003
 7600WAT      O23041   4.959   5.187   0.206
 7600WAT     H123042   5.045   5.213   0.164
 7600WAT     H223043   4.909   5.125   0.145
 7601WAT      O23044   5.649   7.187   6.890
 7601WAT     H123045   5.601   7.101   6.869
 7601WAT     H223046   5.739   7.166   6.930
 7602WAT      O23047   9.054   1.079   1.483
 7602WAT     H123048   9.079   1.051   1.390
 7602WAT     H223049   9.120   1.042   1.548
 7603WAT      O23050   7.420   8.551   2.265
 7603WAT     H123051   7.386   8.552   2.359
 7603WAT     H223052   7.438   8.644   2.235
 7604WAT      O23053   8.471   0.182   7.956
 7604WAT     H123054   8.481   0.272   8.000
 7604WAT     H223055   8.545   0.169   7.890
 7605WAT      O23056   3.715   4.067   2.139
 7605WAT     H123057   3.764   4.147   2.103
 7605WAT     H223058   3.727   3.990   2.076
 7606WAT      O23059   8.529   3.699   1.995
 7606WAT     H123060   8.484   3.659   1.915
 7606WAT     H223061   8.488   3.788   2.015
 7607WAT      O23062   5.447   7.474   1.340
 7607WAT     H123063   5.536   7.468   1.294
 7607WAT     H223064   5.402   7.560   1.315
 7608WAT      O23065   7.455   3.647   3.325
 7608WAT     H123066   7.530   3.690   3.275
 7608WAT     H223067   7.421   3.710   3.394
 7609WAT      O23068   6.807   5.302   9.547
 7609WAT     H123069   6.889   5.246   9.563
 7609WAT     H223070   6.732   5.243   9.516
 7610WAT      O23071   4.658   0.925   0.147
 7610WAT     H123072   4.742   0.896   0.101
 7610WAT     H223073   4.621   0.849   0.201
 7611WAT      O23074   1.905   2.159   2.821
 7611WAT     H123075   1.813   2.197   2.825
 7611WAT     H223076   1.944   2.154   2.913
 7612WAT      O23077   0.733   8.354   0.144
 7612WAT     H123078   0.716   8.268   0.192
 7612WAT     H223079   0.769   8.334   0.053
 7613WAT      O23080   7.071   5.070   1.529
 7613WAT     H123081   7.002   5.086   1.600
 7613WAT     H223082   7.159   5.105   1.561
 7614WAT      O23083   5.392   8.300   5.076
 7614WAT     H123084   5.390   8.372   5.007
 7614WAT     H223085   5.298   8.276   5.102
 7615WAT      O23086   1.034   2.770   3.781
 7615WAT     H123087   1.058   2.719   3.699
 7615WAT     H223088   0.935   2.762   3.798
 7616WAT      O23089   6.665   0.227   9.544
 7616WAT     H123090   6.577   0.267   9.570
 7616WAT     H223091   6.737   0.295   9.558
 7617WAT      O23092   4.455   6.125   3.167
 7617WAT     H123093   4.444   6.205   3.226
 7617WAT     H223094   4.545   6.129   3.122
 7618WAT      O23095   5.387   4.673   2.619
 7618WAT     H123096   5.349   4.632   2.536
 7618WAT     H223097   5.395   4.772   2.607
 7619WAT      O23098   7.837   5.795   3.231
 7619WAT     H123099   7.936   5.806   3.237
 7619WAT     H223100   7.811   5.778   3.136
 7620WAT      O23101   4.004   1.820   2.973
 7620WAT     H123102   3.911   1.795   2.944
 7620WAT     H223103   3.999   1.891   3.043
 7621WAT      O23104   6.660   4.687   2.836
 7621WAT     H123105   6.702   4.602   2.805
 7621WAT     H223106   6.561   4.677   2.838
 7622WAT      O23107   2.136   2.427   7.934
 7622WAT     H123108   2.136   2.329   7.913
 7622WAT     H223109   2.062   2.447   7.998
 7623WAT      O23110   5.238   0.633   5.544
 7623WAT     H123111   5.179   0.581   5.606
 7623WAT     H223112   5.318   0.577   5.520
 7624WAT      O23113   8.989   0.581   0.346
 7624WAT     H123114   8.907   0.620   0.388
 7624WAT     H223115   9.017   0.637   0.268
 7625WAT      O23116   3.202   5.216   1.492
 7625WAT     H123117   3.233   5.311   1.494
 7625WAT     H223118   3.170   5.193   1.400
 7626WAT      O23119   4.189   2.873   2.335
 7626WAT     H123120   4.201   2.889   2.237
 7626WAT     H223121   4.093   2.853   2.354
 7627WAT      O23122   1.238   0.239   2.074
 7627WAT     H123123   1.324   0.280   2.045
 7627WAT     H223124   1.224   0.256   2.171
 7628WAT      O23125   5.463   7.218   2.009
 7628WAT     H123126   5.475   7.195   2.106
 7628WAT     H223127   5.534   7.284   1.983
 7629WAT      O23128   3.470   7.007   2.622
 7629WAT     H123129   3.395   7.037   2.563
 7629WAT     H223130   3.523   7.087   2.652
 7630WAT      O23131   9.040   3.499   6.875
 7630WAT     H123132   9.005   3.426   6.816
 7630WAT     H223133   9.023   3.588   6.832
 7631WAT      O23134   9.179   0.319   1.716
 7631WAT     H123135   9.270   0.278   1.723
 7631WAT     H223136   9.143   0.307   1.624
 7632WAT      O23137   7.977   7.646   0.226
 7632WAT     H123138   7.926   7.619   0.144
 7632WAT     H223139   8.075   7.632   0.210
 7633WAT      O23140   9.600   8.965   6.918
 7633WAT     H123141   9.510   8.937   6.883
 7633WAT     H223142   9.597   8.967   7.018
 7634WAT      O23143   6.259   3.113   3.838
 7634WAT     H123144   6.220   3.205   3.839
 7634WAT     H223145   6.353   3.116   3.871
 7635WAT      O23146   3.184   4.259   6.837
 7635WAT     H123147   3.254   4.193   6.810
 7635WAT     H223148   3.108   4.210   6.880
 7636WAT      O23149   0.410   0.846   6.901
 7636WAT     H123150   0.419   0.747   6.907
 7636WAT     H223151   0.359   0.870   6.818
 7637WAT      O23152   5.264   0.111   8.506
 7637WAT     H123153   5.262   0.133   8.409
 7637WAT     H223154   5.230   0.189   8.559
 7638WAT      O23155   9.840   6.835   7.310
 7638WAT     H123156   9.884   6.857   7.397
 7638WAT     H223157   9.902   6.781   7.254
 7639WAT      O23158   7.080   5.188   6.175
 7639WAT     H123159   7.115   5.242   6.251
 7639WAT     H223160   7.150   5.123   6.144
 7640WAT      O23161   6.049   7.082   8.670
 7640WAT     H123162   6.027   7.010   8.605
 7640WAT     H223163   5.970   7.101   8.728
 7641WAT      O23164   9.181   3.745   9.597
 7641WAT     H123165   9.197   3.683   9.673
 7641WAT     H223166   9.266   3.794   9.575
 7642WAT      O23167   6.968   0.884   7.222
 7642WAT     H123168   7.067   0.897   7.230
 7642WAT     H223169   6.947   0.786   7.225
 7643WAT      O23170   0.758   9.398   9.049
 7643WAT     H123171   0.679   9.432   8.998
 7643WAT     H223172   0.731   9.318   9.103
 7644WAT      O23173   3.935   3.642   1.734
 7644WAT     H123174   3.902   3.553   1.768
 7644WAT     H223175   3.905   3.654   1.639
 7645WAT      O23176   5.656   4.537   7.886
 7645WAT     H123177   5.616   4.463   7.832
 7645WAT     H223178   5.626   4.625   7.850
 7646WAT      O23179   5.258   7.876   6.776
 7646WAT     H123180   5.201   7.802   6.812
 7646WAT     H223181   5.324   7.839   6.711
 7647WAT      O23182   8.085   2.194   8.509
 7647WAT     H123183   7.990   2.191   8.540
 7647WAT     H223184   8.130   2.107   8.528
 7648WAT      O23185   7.123   7.103   9.558
 7648WAT     H123186   7.211   7.080   9.600
 7648WAT     H223187   7.111   7.049   9.475
 7649WAT      O23188   1.064   4.317   5.169
 7649WAT     H123189   1.159   4.304   5.198
 7649WAT     H223190   1.009   4.348   5.246
 7650WAT      O23191   1.994   0.199   3.080
 7650WAT     H123192   2.030   0.281   3.125
 7650WAT     H223193   1.995   0.123   3.145
 7651WAT      O23194   4.422   6.879   0.317
 7651WAT     H123195   4.463   6.826   0.242
 7651WAT     H223196   4.492   6.938   0.357
 7652WAT      O23197   4.834   0.786   5.575
 7652WAT     H123198   4.913   0.739   5.613
 7652WAT     H223199   4.859   0.880   5.550
 7653WAT      O23200   5.914   6.549   2.568
 7653WAT     H123201   5.852   6.623   2.594
 7653WAT     H223202   5.864   6.463   2.566
 7654WAT      O23203   0.227   4.293   2.013
 7654WAT     H123204   0.325   4.296   1.993
 7654WAT     H223205   0.199   4.199   2.030
 7655WAT      O23206   3.157   8.241   9.341
 7655WAT     H123207   3.159   8.188   9.426
 7655WAT     H223208   3.073   8.223   9.291
 7656WAT      O23209   4.325   2.938   5.750
 7656WAT     H123210   4.263   2.861   5.765
 7656WAT     H223211   4.288   3.020   5.793
 7657WAT      O23212   2.815   2.811   4.333
 7657WAT     H123213   2.833   2.714   4.318
 7657WAT     H223214   2.799   2.827   4.430
 7658WAT      O23215   2.457   6.079   0.448
 7658WAT     H123216   2.474   6.097   0.544
 7658WAT     H223217   2.450   6.165   0.398
 7659WAT      O23218   5.372   6.596   7.748
 7659WAT     H123219   5.445   6.661   7.727
 7659WAT     H223220   5.316   6.631   7.823
 7660WAT      O23221   1.553   8.370   8.398
 7660WAT     H123222   1.564   8.289   8.341
 7660WAT     H223223   1.485   8.430   8.357
 7661WAT      O23224   2.887   8.392   1.554
 7661WAT     H123225   2.792   8.361   1.551
 7661WAT     H223226   2.888   8.489   1.578
 7662WAT      O23227   9.794   3.511   8.590
 7662WAT     H123228   9.865   3.500   8.660
 7662WAT     H223229   9.787   3.607   8.563
 7663WAT      O23230   6.857   9.364   6.963
 7663WAT     H123231   6.818   9.422   6.892
 7663WAT     H223232   6.891   9.421   7.038
 7664WAT      O23233   9.597   2.222   1.198
 7664WAT     H123234   9.552   2.159   1.135
 7664WAT     H223235   9.533   2.295   1.223
 7665WAT      O23236   2.751   2.871   3.132
 7665WAT     H123237   2.754   2.900   3.228
 7665WAT     H223238   2.746   2.772   3.127
 7666WAT      O23239   8.062   7.262   1.666
 7666WAT     H123240   8.094   7.270   1.572
 7666WAT     H223241   8.138   7.282   1.729
 7667WAT      O23242   3.909   5.156   0.918
 7667WAT     H123243   3.930   5.207   0.835
 7667WAT     H223244   3.960   5.070   0.918
 7668WAT      O23245   7.902   2.960   7.547
 7668WAT     H123246   7.972   3.030   7.536
 7668WAT     H223247   7.901   2.929   7.642
 7669WAT      O23248   9.163   6.323   5.136
 7669WAT     H123249   9.184   6.227   5.114
 7669WAT     H223250   9.198   6.345   5.227
 7670WAT      O23251   8.944   3.963   0.117
 7670WAT     H123252   9.017   3.933   0.054
 7670WAT     H223253   8.858   3.970   0.067
 7671WAT      O23254   5.078   9.586   3.948
 7671WAT     H123255   4.991   9.561   3.989
 7671WAT     H223256   5.152   9.534   3.992
 7672WAT      O23257   4.347   3.209   5.335
 7672WAT     H123258   4.376   3.223   5.430
 7672WAT     H223259   4.323   3.297   5.294
 7673WAT      O23260   5.453   4.780   8.500
 7673WAT     H123261   5.502   4.848   8.554
 7673WAT     H223262   5.489   4.689   8.520
 7674WAT      O23263   0.412   7.855   3.189
 7674WAT     H123264   0.390   7.802   3.271
 7674WAT     H223265   0.510   7.871   3.185
 7675WAT      O23266   8.795   5.445   9.144
 7675WAT     H123267   8.824   5.353   9.171
 7675WAT     H223268   8.841   5.470   9.058
 7676WAT      O23269   8.648   6.953   1.586
 7676WAT     H123270   8.572   6.938   1.650
 7676WAT     H223271   8.735   6.952   1.636
 7677WAT      O23272   5.523   0.612   8.450
 7677WAT     H123273   5.494   0.560   8.531
 7677WAT     H223274   5.598   0.564   8.405
 7678WAT      O23275   5.649   3.265   2.280
 7678WAT     H123276   5.595   3.290   2.200
 7678WAT     H223277   5.678   3.348   2.328
 7679WAT      O23278   2.797   1.836   6.259
 7679WAT     H123279   2.701   1.823   6.285
 7679WAT     H223280   2.801   1.881   6.170
 7680WAT      O23281   2.807   0.102   0.217
 7680WAT     H123282   2.741   0.051   0.161
 7680WAT     H223283   2.888   0.124   0.162
 7681WAT      O23284   7.410   2.104   7.805
 7681WAT     H123285   7.418   2.005   7.811
 7681WAT     H223286   7.317   2.129   7.778
 7682WAT      O23287   5.983   6.776   7.321
 7682WAT     H123288   6.049   6.735   7.259
 7682WAT     H223289   5.987   6.730   7.410
 7683WAT      O23290   1.287   3.086   4.652
 7683WAT     H123291   1.336   3.061   4.735
 7683WAT     H223292   1.313   3.179   4.625
 7684WAT      O23293   0.712   1.221   1.789
 7684WAT     H123294   0.678   1.164   1.864
 7684WAT     H223295   0.776   1.289   1.826
 7685WAT      O23296   8.688   0.514   7.899
 7685WAT     H123297   8.779   0.473   7.909
 7685WAT     H223298   8.626   0.474   7.966
 7686WAT      O23299   2.053   2.848   3.510
 7686WAT     H123300   2.081   2.765   3.461
 7686WAT     H223301   2.126   2.876   3.572
 7687WAT      O23302   9.203   6.058   5.063
 7687WAT     H123303   9.151   6.004   4.998
 7687WAT     H223304   9.186   6.024   5.156
 7688WAT      O23305   4.593   7.095   7.340
 7688WAT     H123306   4.657   7.030   7.381
 7688WAT     H223307   4.502   7.053   7.337
 7689WAT      O23308   3.794   1.346   8.988
 7689WAT     H123309   3.749   1.257   8.979
 7689WAT     H223310   3.840   1.351   9.076
 7690WAT      O23311   2.629   1.629   9.619
 7690WAT     H123312   2.718   1.605   9.660
 7690WAT     H223313   2.579   1.545   9.599
 7691WAT      O23314   7.244   4.595   1.125
 7691WAT     H123315   7.308   4.647   1.181
 7691WAT     H223316   7.176   4.658   1.085
 7692WAT      O23317   7.063   7.678   0.201
 7692WAT     H123318   7.161   7.671   0.218
 7692WAT     H223319   7.014   7.625   0.270
 7693WAT      O23320   7.999   5.488   0.020
 7693WAT     H123321   7.999   5.401  -0.030
 7693WAT     H223322   7.918   5.541  -0.006
 7694WAT      O23323   5.522   4.344   7.726
 7694WAT     H123324   5.501   4.253   7.761
 7694WAT     H223325   5.569   4.336   7.638
 7695WAT      O23326   3.288   1.226   2.180
 7695WAT     H123327   3.320   1.233   2.085
 7695WAT     H223328   3.269   1.318   2.215
 7696WAT      O23329   6.110   7.378   5.386
 7696WAT     H123330   6.151   7.290   5.360
 7696WAT     H223331   6.049   7.409   5.313
 7697WAT      O23332   8.383   5.848   8.885
 7697WAT     H123333   8.303   5.876   8.832
 7697WAT     H223334   8.415   5.759   8.853
 7698WAT      O23335   6.111   5.716   7.437
 7698WAT     H123336   6.141   5.682   7.348
 7698WAT     H223337   6.139   5.812   7.446
 7699WAT      O23338   6.999   1.108   7.740
 7699WAT     H123339   6.921   1.060   7.701
 7699WAT     H223340   7.028   1.062   7.824
 7700WAT      O23341   5.842   3.622   7.386
 7700WAT     H123342   5.895   3.538   7.371
 7700WAT     H223343   5.789   3.642   7.304
 7701WAT      O23344   3.463   6.677   4.281
 7701WAT     H123345   3.496   6.616   4.209
 7701WAT     H223346   3.364   6.668   4.289
 7702WAT      O23347   4.986   1.619   3.959
 7702WAT     H123348   4.927   1.700   3.958
 7702WAT     H223349   5.081   1.646   3.973
 7703WAT      O23350   3.803   1.410   7.603
 7703WAT     H123351   3.895   1.422   7.565
 7703WAT     H223352   3.799   1.324   7.653
 7704WAT      O23353   8.048   2.315   2.298
 7704WAT     H123354   8.000   2.351   2.218
 7704WAT     H223355   8.028   2.372   2.377
 7705WAT      O23356   7.670   6.264   8.486
 7705WAT     H123357   7.758   6.279   8.532
 7705WAT     H223358   7.671   6.311   8.397
 7706WAT      O23359   7.477   8.291   2.442
 7706WAT     H123360   7.407   8.359   2.464
 7706WAT     H223361   7.545   8.288   2.515
 7707WAT      O23362   3.482   3.289   6.399
 7707WAT     H123363   3.478   3.313   6.496
 7707WAT     H223364   3.529   3.202   6.388
 7708WAT      O23365   7.640   4.045   0.801
 7708WAT     H123366   7.636   4.126   0.743
 7708WAT     H223367   7.602   3.967   0.751
 7709WAT      O23368   1.764   8.903   1.662
 7709WAT     H123369   1.763   8.832   1.592
 7709WAT     H223370   1.776   8.860   1.752
 7710WAT      O23371   1.524   9.795   5.931
 7710WAT     H123372   1.487   9.785   6.023
 7710WAT     H223373   1.485   9.725   5.872
 7711WAT      O23374   5.517   9.178   5.364
 7711WAT     H123375   5.420   9.167   5.339
 7711WAT     H223376   5.542   9.109   5.431
 7712WAT      O23377   0.854   3.150   4.338
 7712WAT     H123378   0.810   3.062   4.354
 7712WAT     H223379   0.804   3.201   4.268
 7713WAT      O23380   0.727   3.458   0.728
 7713WAT     H123381   0.667   3.512   0.786
 7713WAT     H223382   0.821   3.492   0.735
 7714WAT      O23383   3.055   3.943   7.145
 7714WAT     H123384   2.968   3.895   7.132
 7714WAT     H223385   3.121   3.911   7.077
 7715WAT      O23386   6.635   3.158   5.665
 7715WAT     H123387   6.577   3.097   5.611
 7715WAT     H223388   6.731   3.135   5.648
 7716WAT      O23389   9.769   5.518   3.270
 7716WAT     H123390   9.834   5.456   3.314
 7716WAT     H223391   9.761   5.495   3.173
 7717WAT      O23392   4.178   6.521   6.987
 7717WAT     H123393   4.157   6.605   7.037
 7717WAT     H223394   4.239   6.543   6.911
 7718WAT      O23395   1.865   6.001   3.140
 7718WAT     H123396   1.962   6.003   3.113
 7718WAT     H223397   1.853   6.051   3.226
 7719WAT      O23398   4.884   4.615   5.859
 7719WAT     H123399   4.862   4.557   5.938
 7719WAT     H223400   4.865   4.710   5.882
 7720WAT      O23401   0.542   0.261   7.918
 7720WAT     H123402   0.482   0.235   7.843
 7720WAT     H223403   0.529   0.358   7.939
 7721WAT      O23404   7.765   1.709   2.732
 7721WAT     H123405   7.719   1.778   2.787
 7721WAT     H223406   7.696   1.647   2.692
 7722WAT      O23407   2.380   5.833   1.993
 7722WAT     H123408   2.375   5.756   1.929
 7722WAT     H223409   2.426   5.805   2.077
 7723WAT      O23410   0.682   0.480   4.342
 7723WAT     H123411   0.755   0.502   4.406
 7723WAT     H223412   0.714   0.411   4.277
 7724WAT      O23413   6.321   1.660   7.342
 7724WAT     H123414   6.387   1.638   7.414
 7724WAT     H223415   6.358   1.735   7.286
 7725WAT      O23416   9.352   1.383   9.644
 7725WAT     H123417   9.379   1.471   9.604
 7725WAT     H223418   9.299   1.399   9.727
 7726WAT      O23419   3.455   8.638   1.254
 7726WAT     H123420   3.454   8.736   1.271
 7726WAT     H223421   3.529   8.595   1.305
 7727WAT      O23422   6.639   9.266   7.145
 7727WAT     H123423   6.710   9.285   7.077
 7727WAT     H223424   6.568   9.336   7.140
 7728WAT      O23425   4.699   7.607   4.975
 7728WAT     H123426   4.710   7.697   5.017
 7728WAT     H223427   4.653   7.617   4.886
 7729WAT      O23428   0.869   1.761   5.547
 7729WAT     H123429   0.813   1.680   5.533
 7729WAT     H223430   0.957   1.749   5.501
 7730WAT      O23431   9.343   7.368   7.678
 7730WAT     H123432   9.400   7.401   7.754
 7730WAT     H223433   9.294   7.286   7.708
 7731WAT      O23434   8.594   3.110   1.716
 7731WAT     H123435   8.592   3.172   1.794
 7731WAT     H223436   8.618   3.018   1.747
 7732WAT      O23437   3.677   0.586   8.241
 7732WAT     H123438   3.702   0.585   8.144
 7732WAT     H223439   3.617   0.508   8.260
 7733WAT      O23440   3.870   4.763   9.605
 7733WAT     H123441   3.852   4.826   9.529
 7733WAT     H223442   3.956   4.715   9.589
 7734WAT      O23443   1.587   9.820   0.584
 7734WAT     H123444   1.576   9.886   0.509
 7734WAT     H223445   1.529   9.848   0.661
 7735WAT      O23446   8.496   7.435   4.431
 7735WAT     H123447   8.553   7.424   4.513
 7735WAT     H223448   8.469   7.530   4.422
 7736WAT      O23449   1.205   9.181   6.944
 7736WAT     H123450   1.124   9.234   6.970
 7736WAT     H223451   1.281   9.205   7.004
 7737WAT      O23452   2.549   3.529   5.606
 7737WAT     H123453   2.589   3.555   5.694
 7737WAT     H223454   2.611   3.555   5.533
 7738WAT      O23455   9.343   1.531   0.729
 7738WAT     H123456   9.356   1.570   0.638
 7738WAT     H223457   9.417   1.562   0.789
 7739WAT      O23458   3.943   2.221   6.631
 7739WAT     H123459   3.871   2.268   6.581
 7739WAT     H223460   3.902   2.155   6.695
 7740WAT      O23461   1.632   3.275   1.313
 7740WAT     H123462   1.675   3.222   1.387
 7740WAT     H223463   1.689   3.267   1.231
 7741WAT      O23464   4.979   0.461   9.197
 7741WAT     H123465   4.965   0.362   9.197
 7741WAT     H223466   4.897   0.506   9.164
 7742WAT      O23467   4.133   8.948   6.870
 7742WAT     H123468   4.052   8.945   6.812
 7742WAT     H223469   4.177   9.037   6.861
 7743WAT      O23470   2.428   3.599   8.698
 7743WAT     H123471   2.366   3.558   8.631
 7743WAT     H223472   2.523   3.576   8.674
 7744WAT      O23473   1.479   1.972   4.948
 7744WAT     H123474   1.433   1.958   4.860
 7744WAT     H223475   1.548   1.901   4.961
 7745WAT      O23476   8.777   1.046   9.527
 7745WAT     H123477   8.847   0.978   9.506
 7745WAT     H223478   8.762   1.104   9.448
 7746WAT      O23479   2.072   4.683   6.967
 7746WAT     H123480   2.008   4.711   6.896
 7746WAT     H223481   2.160   4.658   6.926
 7747WAT      O23482   2.693   5.015   2.661
 7747WAT     H123483   2.728   4.966   2.740
 7747WAT     H223484   2.762   5.016   2.589
 7748WAT      O23485   5.006   0.027   6.566
 7748WAT     H123486   4.913   0.061   6.579
 7748WAT     H223487   5.071   0.102   6.579
 7749WAT      O23488   9.165   0.999   8.081
 7749WAT     H123489   9.166   1.082   8.025
 7749WAT     H223490   9.183   1.023   8.176
 7750WAT      O23491   1.428   4.654   5.415
 7750WAT     H123492   1.392   4.567   5.448
 7750WAT     H223493   1.367   4.693   5.346
 7751WAT      O23494   0.686   7.246   1.213
 7751WAT     H123495   0.762   7.297   1.175
 7751WAT     H223496   0.670   7.276   1.307
 7752WAT      O23497   6.231   9.486   4.762
 7752WAT     H123498   6.235   9.517   4.856
 7752WAT     H223499   6.271   9.555   4.702
 7753WAT      O23500   1.441   1.132   5.917
 7753WAT     H123501   1.539   1.136   5.933
 7753WAT     H223502   1.411   1.216   5.870
 7754WAT      O23503   4.655   3.824   5.252
 7754WAT     H123504   4.599   3.773   5.187
 7754WAT     H223505   4.610   3.911   5.274
 7755WAT      O23506   9.776   7.083   7.160
 7755WAT     H123507   9.746   7.000   7.207
 7755WAT     H223508   9.777   7.160   7.224
 7756WAT      O23509   9.581   1.913   7.424
 7756WAT     H123510   9.633   1.890   7.505
 7756WAT     H223511   9.483   1.917   7.446
 7757WAT      O23512   5.579   8.985   5.557
 7757WAT     H123513   5.551   8.892   5.580
 7757WAT     H223514   5.676   8.997   5.577
 7758WAT      O23515   2.962   1.393   9.026
 7758WAT     H123516   2.908   1.355   8.950
 7758WAT     H223517   3.052   1.350   9.026
 7759WAT      O23518   4.736   7.440   5.356
 7759WAT     H123519   4.733   7.341   5.357
 7759WAT     H223520   4.656   7.476   5.308
 7760WAT      O23521   9.526   8.270   9.792
 7760WAT     H123522   9.606   8.239   9.843
 7760WAT     H223523   9.490   8.195   9.736
 7761WAT      O23524   7.360   2.148   8.303
 7761WAT     H123525   7.303   2.072   8.335
 7761WAT     H223526   7.307   2.207   8.243
 7762WAT      O23527   6.525   8.805   3.366
 7762WAT     H123528   6.623   8.822   3.364
 7762WAT     H223529   6.508   8.708   3.385
 7763WAT      O23530   3.471   5.260   0.362
 7763WAT     H123531   3.387   5.209   0.381
 7763WAT     H223532   3.450   5.357   0.356
 7764WAT      O23533   2.756   1.130   0.791
 7764WAT     H123534   2.779   1.069   0.867
 7764WAT     H223535   2.706   1.078   0.722
 7765WAT      O23536   0.052   7.222   0.799
 7765WAT     H123537   0.012   7.313   0.790
 7765WAT     H223538   0.134   7.227   0.857
 7766WAT      O23539   0.548   6.264   2.981
 7766WAT     H123540   0.506   6.206   2.912
 7766WAT     H223541   0.642   6.285   2.955
 7767WAT      O23542   7.744   2.188   3.209
 7767WAT     H123543   7.689   2.201   3.291
 7767WAT     H223544   7.839   2.215   3.228
 7768WAT      O23545   8.797   6.496   0.414
 7768WAT     H123546   8.897   6.493   0.402
 7768WAT     H223547   8.769   6.590   0.436
 7769WAT      O23548   2.414   2.283   3.086
 7769WAT     H123549   2.378   2.204   3.136
 7769WAT     H223550   2.507   2.261   3.054
 7770WAT      O23551   2.826   9.274   3.596
 7770WAT     H123552   2.818   9.282   3.696
 7770WAT     H223553   2.750   9.219   3.561
 7771WAT      O23554   3.808   9.813   2.816
 7771WAT     H123555   3.877   9.742   2.802
 7771WAT     H223556   3.750   9.820   2.735
 7772WAT      O23557   7.592   2.138   0.485
 7772WAT     H123558   7.687   2.164   0.468
 7772WAT     H223559   7.572   2.051   0.441
 7773WAT      O23560   7.398   8.852   1.990
 7773WAT     H123561   7.455   8.820   2.065
 7773WAT     H223562   7.438   8.823   1.903
 7774WAT      O23563   5.886   5.569   3.317
 7774WAT     H123564   5.798   5.615   3.326
 7774WAT     H223565   5.893   5.497   3.385
 7775WAT      O23566   4.991   0.636   4.493
 7775WAT     H123567   5.069   0.688   4.525
 7775WAT     H223568   4.954   0.678   4.410
 7776WAT      O23569   9.796   1.610   2.862
 7776WAT     H123570   9.767   1.611   2.766
 7776WAT     H223571   9.890   1.578   2.868
 7777WAT      O23572   5.298   6.331   7.618
 7777WAT     H123573   5.253   6.401   7.674
 7777WAT     H223574   5.369   6.286   7.672
 7778WAT      O23575   9.393   6.358   9.713
 7778WAT     H123576   9.365   6.437   9.659
 7778WAT     H223577   9.444   6.294   9.655
 7779WAT      O23578   7.549   7.480   0.993
 7779WAT     H123579   7.518   7.405   1.051
 7779WAT     H223580   7.523   7.462   0.898
 7780WAT      O23581   8.524   6.835   2.426
 7780WAT     H123582   8.446   6.773   2.432
 7780WAT     H223583   8.495   6.927   2.454
 7781WAT      O23584   2.596   1.247   3.454
 7781WAT     H123585   2.505   1.228   3.492
 7781WAT     H223586   2.632   1.164   3.410
 7782WAT      O23587   7.022   3.478   5.037
 7782WAT     H123588   6.957   3.547   5.068
 7782WAT     H223589   6.976   3.390   5.027
 7783WAT      O23590   2.583   5.420   9.671
 7783WAT     H123591   2.621   5.460   9.754
 7783WAT     H223592   2.494   5.380   9.690
 7784WAT      O23593   8.402   3.129   1.528
 7784WAT     H123594   8.462   3.134   1.607
 7784WAT     H223595   8.449   3.080   1.454
 7785WAT      O23596   8.217   1.334   1.333
 7785WAT     H123597   8.191   1.404   1.268
 7785WAT     H223598   8.276   1.373   1.403
 7786WAT      O23599   1.459   2.840   0.864
 7786WAT     H123600   1.396   2.898   0.812
 7786WAT     H223601   1.491   2.766   0.805
 7787WAT      O23602   1.210   0.485   6.651
 7787WAT     H123603   1.297   0.516   6.613
 7787WAT     H223604   1.226   0.438   6.738
 7788WAT      O23605   6.633   1.448   8.287
 7788WAT     H123606   6.700   1.504   8.336
 7788WAT     H223607   6.583   1.391   8.352
 7789WAT      O23608   1.548   0.910   5.185
 7789WAT     H123609   1.564   0.989   5.243
 7789WAT     H223610   1.474   0.855   5.223
 7790WAT      O23611   7.901   9.159   7.024
 7790WAT     H123612   7.859   9.173   6.934
 7790WAT     H223613   7.832   9.168   7.095
 7791WAT      O23614   5.599   6.749   5.207
 7791WAT     H123615   5.525   6.756   5.140
 7791WAT     H223616   5.663   6.825   5.193
 7792WAT      O23617   9.728   2.370   3.651
 7792WAT     H123618   9.741   2.337   3.557
 7792WAT     H223619   9.756   2.300   3.716
 7793WAT      O23620   9.021   9.257   8.744
 7793WAT     H123621   8.955   9.193   8.703
 7793WAT     H223622   9.083   9.290   8.673
 7794WAT      O23623   8.934   3.017   3.809
 7794WAT     H123624   8.962   3.107   3.843
 7794WAT     H223625   8.846   2.992   3.848
 7795WAT      O23626   4.732   9.647   3.999
 7795WAT     H123627   4.800   9.720   4.006
 7795WAT     H223628   4.768   9.563   4.038
 7796WAT      O23629   2.119   2.133   7.918
 7796WAT     H123630   2.022   2.123   7.939
 7796WAT     H223631   2.136   2.100   7.825
 7797WAT      O23632   4.529   0.267   1.679
 7797WAT     H123633   4.545   0.366   1.686
 7797WAT     H223634   4.591   0.228   1.612
 7798WAT      O23635   4.065   5.189   8.722
 7798WAT     H123636   4.023   5.210   8.635
 7798WAT     H223637   4.163   5.208   8.718
 7799WAT      O23638   6.472   0.204   7.667
 7799WAT     H123639   6.443   0.144   7.592
 7799WAT     H223640   6.565   0.180   7.695
 7800WAT      O23641   6.072   9.158   1.963
 7800WAT     H123642   5.998   9.221   1.938
 7800WAT     H223643   6.068   9.078   1.903
 7801WAT      O23644   8.029   5.726   0.664
 7801WAT     H123645   8.012   5.806   0.721
 7801WAT     H223646   8.040   5.646   0.723
 7802WAT      O23647   1.139   7.290   9.438
 7802WAT     H123648   1.206   7.336   9.380
 7802WAT     H223649   1.141   7.192   9.420
 7803WAT      O23650   1.317   8.745   9.256
 7803WAT     H123651   1.270   8.833   9.271
 7803WAT     H223652   1.350   8.741   9.162
 7804WAT      O23653   7.580   1.886   7.555
 7804WAT     H123654   7.664   1.939   7.543
 7804WAT     H223655   7.582   1.840   7.644
 7805WAT      O23656   5.180   6.528   4.702
 7805WAT     H123657   5.178   6.626   4.721
 7805WAT     H223658   5.268   6.491   4.732
 7806WAT      O23659   9.080   8.238   1.221
 7806WAT     H123660   9.027   8.320   1.201
 7806WAT     H223661   9.110   8.197   1.135
 7807WAT      O23662   2.941   8.722   3.294
 7807WAT     H123663   2.842   8.737   3.301
 7807WAT     H223664   2.958   8.627   3.268
 7808WAT      O23665   9.670   7.054   2.915
 7808WAT     H123666   9.769   7.066   2.924
 7808WAT     H223667   9.623   7.138   2.943
 7809WAT      O23668   6.692   6.724   0.137
 7809WAT     H123669   6.661   6.731   0.042
 7809WAT     H223670   6.714   6.815   0.172
 7810WAT      O23671   9.088   4.403   1.543
 7810WAT     H123672   9.066   4.474   1.611
 7810WAT     H223673   9.157   4.342   1.581
 7811WAT      O23674   4.530   0.754   0.925
 7811WAT     H123675   4.551   0.768   0.829
 7811WAT     H223676   4.582   0.676   0.960
 7812WAT      O23677   4.104   8.866   2.061
 7812WAT     H123678   4.182   8.927   2.049
 7812WAT     H223679   4.129   8.791   2.123
 7813WAT      O23680   8.391   4.633   0.116
 7813WAT     H123681   8.398   4.540   0.151
 7813WAT     H223682   8.325   4.684   0.171
 7814WAT      O23683   8.594   0.928   1.904
 7814WAT     H123684   8.663   0.858   1.885
 7814WAT     H223685   8.617   1.012   1.855
 7815WAT      O23686   1.053   4.739   2.467
 7815WAT     H123687   1.074   4.782   2.554
 7815WAT     H223688   1.030   4.643   2.482
 7816WAT      O23689   4.670   3.193   0.389
 7816WAT     H123690   4.715   3.275   0.353
 7816WAT     H223691   4.589   3.220   0.441
 7817WAT      O23692   8.824   4.976   9.329
 7817WAT     H123693   8.880   4.911   9.277
 7817WAT     H223694   8.829   4.953   9.426
 7818WAT      O23695   4.323   7.179   5.838
 7818WAT     H123696   4.395   7.219   5.781
 7818WAT     H223697   4.354   7.177   5.933
 7819WAT      O23698   8.742   7.671   6.260
 7819WAT     H123699   8.785   7.604   6.321
 7819WAT     H223700   8.649   7.690   6.290
 7820WAT      O23701   4.987   4.483   4.258
 7820WAT     H123702   5.031   4.517   4.341
 7820WAT     H223703   4.949   4.392   4.275
 7821WAT      O23704   5.758   2.608   2.791
 7821WAT     H123705   5.698   2.531   2.815
 7821WAT     H223706   5.816   2.630   2.869
 7822WAT      O23707   0.749   1.365   5.083
 7822WAT     H123708   0.653   1.393   5.084
 7822WAT     H223709   0.789   1.385   4.993
 7823WAT      O23710   9.352   9.113   3.832
 7823WAT     H123711   9.427   9.050   3.811
 7823WAT     H223712   9.389   9.198   3.870
 7824WAT      O23713   4.782   3.443   7.086
 7824WAT     H123714   4.848   3.497   7.032
 7824WAT     H223715   4.692   3.487   7.081
 7825WAT      O23716   5.447   0.767   1.488
 7825WAT     H123717   5.418   0.673   1.470
 7825WAT     H223718   5.486   0.806   1.404
 7826WAT      O23719   7.072   5.506   1.388
 7826WAT     H123720   7.168   5.480   1.397
 7826WAT     H223721   7.014   5.429   1.417
 7827WAT      O23722   0.344   0.892   0.226
 7827WAT     H123723   0.281   0.963   0.195
 7827WAT     H223724   0.295   0.825   0.281
 7828WAT      O23725   5.167   5.400   9.662
 7828WAT     H123726   5.225   5.320   9.649
 7828WAT     H223727   5.211   5.480   9.621
 7829WAT      O23728   3.294   3.001   1.279
 7829WAT     H123729   3.392   2.987   1.291
 7829WAT     H223730   3.262   3.075   1.338
 7830WAT      O23731   5.797   8.668   1.213
 7830WAT     H123732   5.895   8.649   1.218
 7830WAT     H223733   5.756   8.615   1.139
 7831WAT      O23734   2.486   3.955   4.225
 7831WAT     H123735   2.454   3.998   4.141
 7831WAT     H223736   2.413   3.957   4.293
 7832WAT      O23737   9.040   3.121   1.168
 7832WAT     H123738   9.005   3.104   1.260
 7832WAT     H223739   9.127   3.170   1.173
 7833WAT      O23740   6.414   8.986   8.896
 7833WAT     H123741   6.422   9.014   8.992
 7833WAT     H223742   6.335   8.925   8.886
 7834WAT      O23743   2.504   4.533   0.219
 7834WAT     H123744   2.500   4.434   0.210
 7834WAT     H223745   2.413   4.568   0.242
 7835WAT      O23746   7.499   5.468   1.648
 7835WAT     H123747   7.458   5.554   1.677
 7835WAT     H223748   7.590   5.459   1.690
 7836WAT      O23749   3.591   3.186   8.603
 7836WAT     H123750   3.655   3.201   8.528
 7836WAT     H223751   3.539   3.101   8.586
 7837WAT      O23752   1.994   3.230   6.008
 7837WAT     H123753   2.043   3.154   6.052
 7837WAT     H223754   2.059   3.282   5.952
 7838WAT      O23755   2.415   7.723   1.513
 7838WAT     H123756   2.493   7.777   1.546
 7838WAT     H223757   2.394   7.750   1.419
 7839WAT      O23758   7.033   4.764   1.038
 7839WAT     H123759   6.936   4.739   1.044
 7839WAT     H223760   7.041   4.856   1.001
 7840WAT      O23761   2.291   9.212   1.166
 7840WAT     H123762   2.300   9.212   1.067
 7840WAT     H223763   2.259   9.122   1.197
 7841WAT      O23764   9.504   0.822   2.561
 7841WAT     H123765   9.487   0.852   2.467
 7841WAT     H223766   9.578   0.876   2.600
 7842WAT      O23767   4.730   9.050   5.378
 7842WAT     H123768   4.746   9.091   5.288
 7842WAT     H223769   4.770   9.109   5.448
 7843WAT      O23770   9.279   6.880   2.654
 7843WAT     H123771   9.359   6.901   2.711
 7843WAT     H223772   9.206   6.843   2.711
 7844WAT      O23773   8.491   9.024   8.906
 7844WAT     H123774   8.426   8.948   8.910
 7844WAT     H223775   8.545   9.017   8.822
 7845WAT      O23776   6.573   3.119   0.914
 7845WAT     H123777   6.572   3.078   1.005
 7845WAT     H223778   6.616   3.057   0.849
 7846WAT      O23779   7.353   6.100   1.615
 7846WAT     H123780   7.379   6.146   1.700
 7846WAT     H223781   7.425   6.112   1.547
 7847WAT      O23782   8.364   4.237   0.824
 7847WAT     H123783   8.422   4.259   0.746
 7847WAT     H223784   8.273   4.210   0.791
 7848WAT      O23785   0.425   7.429   3.308
 7848WAT     H123786   0.459   7.369   3.380
 7848WAT     H223787   0.345   7.478   3.341
 7849WAT      O23788   8.591   8.495   7.040
 7849WAT     H123789   8.663   8.432   7.069
 7849WAT     H223790   8.503   8.465   7.078
 7850WAT      O23791   9.226   0.648   7.527
 7850WAT     H123792   9.314   0.686   7.555
 7850WAT     H223793   9.240   0.572   7.463
 7851WAT      O23794   4.615   7.522   9.501
 7851WAT     H123795   4.602   7.561   9.592
 7851WAT     H223796   4.654   7.591   9.441
 7852WAT      O23797   9.428   8.417   1.690
 7852WAT     H123798   9.481   8.343   1.731
 7852WAT     H223799   9.482   8.501   1.689
 7853WAT      O23800   5.893   5.984   7.876
 7853WAT     H123801   5.902   6.064   7.817
 7853WAT     H223802   5.919   6.007   7.969
 7854WAT      O23803   5.786   1.320   7.395
 7854WAT     H123804   5.793   1.419   7.382
 7854WAT     H223805   5.817   1.273   7.313
 7855WAT      O23806   1.850   4.712   6.354
 7855WAT     H123807   1.828   4.806   6.328
 7855WAT     H223808   1.905   4.712   6.438
 7856WAT      O23809   3.027   6.732   3.080
 7856WAT     H123810   3.041   6.676   3.161
 7856WAT     H223811   3.015   6.673   3.000
 7857WAT      O23812   4.199   6.026   5.582
 7857WAT     H123813   4.109   5.982   5.583
 7857WAT     H223814   4.196   6.111   5.634
 7858WAT      O23815   9.115   6.935   3.953
 7858WAT     H123816   9.185   6.871   3.986
 7858WAT     H223817   9.026   6.889   3.953
 7859WAT      O23818   3.572   5.108   1.364
 7859WAT     H123819   3.546   5.145   1.454
 7859WAT     H223820   3.518   5.026   1.345
 7860WAT      O23821   8.661   5.540   2.687
 7860WAT     H123822   8.625   5.622   2.642
 7860WAT     H223823   8.745   5.510   2.641
 7861WAT      O23824   3.531   3.621   4.845
 7861WAT     H123825   3.488   3.537   4.812
 7861WAT     H223826   3.580   3.602   4.930
 7862WAT      O23827   4.766   7.915   5.037
 7862WAT     H123828   4.682   7.897   4.984
 7862WAT     H223829   4.750   7.893   5.133
 7863WAT      O23830   6.308   9.369   8.314
 7863WAT     H123831   6.360   9.313   8.379
 7863WAT     H223832   6.252   9.309   8.257
 7864WAT      O23833   9.534   6.955   5.154
 7864WAT     H123834   9.616   6.910   5.119
 7864WAT     H223835   9.492   7.010   5.082
 7865WAT      O23836   5.066   0.816   2.305
 7865WAT     H123837   5.090   0.719   2.297
 7865WAT     H223838   5.018   0.831   2.392
 7866WAT      O23839   0.449   8.199   5.800
 7866WAT     H123840   0.376   8.255   5.839
 7866WAT     H223841   0.412   8.141   5.728
 7867WAT      O23842   1.947   8.451   7.890
 7867WAT     H123843   2.030   8.408   7.854
 7867WAT     H223844   1.968   8.544   7.920
 7868WAT      O23845   4.185   2.996   4.981
 7868WAT     H123846   4.153   2.920   5.039
 7868WAT     H223847   4.285   2.995   4.977
 7869WAT      O23848   7.825   8.132   1.663
 7869WAT     H123849   7.801   8.166   1.572
 7869WAT     H223850   7.753   8.155   1.728
 7870WAT      O23851   9.458   8.923   1.831
 7870WAT     H123852   9.412   8.886   1.750
 7870WAT     H223853   9.555   8.898   1.829
 7871WAT      O23854   2.637   1.967   6.764
 7871WAT     H123855   2.587   2.049   6.735
 7871WAT     H223856   2.716   1.994   6.819
 7872WAT      O23857   7.005   1.152   0.179
 7872WAT     H123858   7.063   1.114   0.251
 7872WAT     H223859   7.040   1.123   0.089
 7873WAT      O23860   9.483   9.294   4.887
 7873WAT     H123861   9.469   9.210   4.835
 7873WAT     H223862   9.412   9.361   4.863
 7874WAT      O23863   9.488   9.436   3.843
 7874WAT     H123864   9.556   9.490   3.892
 7874WAT     H223865   9.421   9.497   3.802
 7875WAT      O23866   0.745   2.034   2.167
 7875WAT     H123867   0.657   2.073   2.195
 7875WAT     H223868   0.817   2.103   2.179
 7876WAT      O23869   6.947   7.783   3.845
 7876WAT     H123870   6.988   7.698   3.812
 7876WAT     H223871   6.964   7.856   3.779
 7877WAT      O23872   4.772   0.225   2.860
 7877WAT     H123873   4.704   0.248   2.929
 7877WAT     H223874   4.801   0.130   2.871
 7878WAT      O23875   2.183   9.099   2.774
 7878WAT     H123876   2.205   9.066   2.865
 7878WAT     H223877   2.200   9.198   2.769
 7879WAT      O23878   3.046   6.534   1.712
 7879WAT     H123879   3.111   6.545   1.637
 7879WAT     H223880   2.961   6.495   1.678
 7880WAT      O23881   3.349   2.749   9.581
 7880WAT     H123882   3.308   2.682   9.643
 7880WAT     H223883   3.325   2.841   9.611
 7881WAT      O23884   1.762   0.813   9.341
 7881WAT     H123885   1.842   0.753   9.339
 7881WAT     H223886   1.764   0.875   9.262
 7882WAT      O23887   2.006   8.239   0.434
 7882WAT     H123888   1.943   8.220   0.509
 7882WAT     H223889   1.968   8.310   0.375
 7883WAT      O23890   1.938   4.950   9.342
 7883WAT     H123891   1.936   4.868   9.285
 7883WAT     H223892   2.015   5.007   9.316
 7884WAT      O23893   8.421   5.999   2.614
 7884WAT     H123894   8.506   5.955   2.641
 7884WAT     H223895   8.372   6.030   2.695
 7885WAT      O23896   9.235   4.242   1.836
 7885WAT     H123897   9.147   4.277   1.869
 7885WAT     H223898   9.288   4.207   1.913
 7886WAT      O23899   9.599   3.885   6.717
 7886WAT     H123900   9.613   3.971   6.767
 7886WAT     H223901   9.548   3.904   6.633
 7887WAT      O23902   0.001   1.344   0.264
 7887WAT     H123903   0.066   1.416   0.288
 7887WAT     H223904  -0.044   1.311   0.347
 7888WAT      O23905   5.948   9.283   1.269
 7888WAT     H123906   5.964   9.193   1.228
 7888WAT     H223907   5.934   9.272   1.368
 7889WAT      O23908   7.872   6.678   7.424
 7889WAT     H123909   7.930   6.745   7.377
 7889WAT     H223910   7.799   6.726   7.473
 7890WAT      O23911   4.177   7.925   4.782
 7890WAT     H123912   4.166   8.001   4.847
 7890WAT     H223913   4.141   7.841   4.823
 7891WAT      O23914   6.581   5.863   2.612
 7891WAT     H123915   6.486   5.894   2.614
 7891WAT     H223916   6.603   5.816   2.698
 7892WAT      O23917   1.619   8.830   6.782
 7892WAT     H123918   1.614   8.857   6.878
 7892WAT     H223919   1.547   8.877   6.730
 7893WAT      O23920   4.923   7.394   2.217
 7893WAT     H123921   4.920   7.448   2.133
 7893WAT     H223922   4.949   7.300   2.194
 7894WAT      O23923   3.760   5.332   1.058
 7894WAT     H123924   3.679   5.287   1.095
 7894WAT     H223925   3.808   5.270   0.996
 7895WAT      O23926   0.799   3.464   7.228
 7895WAT     H123927   0.799   3.536   7.297
 7895WAT     H223928   0.714   3.411   7.236
 7896WAT      O23929   5.766   8.923   1.249
 7896WAT     H123930   5.789   8.826   1.245
 7896WAT     H223931   5.813   8.972   1.177
 7897WAT      O23932   6.908   4.042   9.446
 7897WAT     H123933   6.989   4.096   9.469
 7897WAT     H223934   6.871   4.000   9.529
 7898WAT      O23935   5.013   1.296   6.624
 7898WAT     H123936   5.096   1.345   6.600
 7898WAT     H223937   4.935   1.359   6.623
 7899WAT      O23938   3.358   6.736   1.820
 7899WAT     H123939   3.314   6.674   1.884
 7899WAT     H223940   3.412   6.803   1.872
 7900WAT      O23941   5.624   2.011   3.955
 7900WAT     H123942   5.681   2.044   3.880
 7900WAT     H223943   5.528   2.015   3.927
 7901WAT      O23944   2.402   1.636   2.209
 7901WAT     H123945   2.480   1.596   2.161
 7901WAT     H223946   2.373   1.574   2.283
 7902WAT      O23947   6.621   7.633   4.210
 7902WAT     H123948   6.696   7.609   4.272
 7902WAT     H223949   6.658   7.657   4.120
 7903WAT      O23950   6.779   3.834   2.994
 7903WAT     H123951   6.721   3.910   2.965
 7903WAT     H223952   6.776   3.826   3.094
 7904WAT      O23953   0.860   6.786   6.654
 7904WAT     H123954   0.878   6.732   6.737
 7904WAT     H223955   0.941   6.840   6.633
 7905WAT      O23956   8.858   6.471   5.600
 7905WAT     H123957   8.943   6.523   5.606
 7905WAT     H223958   8.863   6.392   5.662
 7906WAT      O23959   1.325   2.284   6.117
 7906WAT     H123960   1.229   2.306   6.099
 7906WAT     H223961   1.330   2.220   6.194
 7907WAT      O23962   4.210   4.011   2.945
 7907WAT     H123963   4.128   4.028   2.890
 7907WAT     H223964   4.289   3.999   2.885
 7908WAT      O23965   0.536   1.088   5.564
 7908WAT     H123966   0.464   1.155   5.586
 7908WAT     H223967   0.495   1.009   5.518
 7909WAT      O23968   4.461   2.998   1.961
 7909WAT     H123969   4.370   3.007   2.001
 7909WAT     H223970   4.478   2.902   1.937
 7910WAT      O23971   2.845   0.792   0.477
 7910WAT     H123972   2.915   0.773   0.545
 7910WAT     H223973   2.876   0.865   0.416
 7911WAT      O23974   0.682   7.317   9.144
 7911WAT     H123975   0.689   7.272   9.055
 7911WAT     H223976   0.765   7.369   9.162
 7912WAT      O23977   2.833   6.578   2.217
 7912WAT     H123978   2.781   6.493   2.221
 7912WAT     H223979   2.898   6.574   2.142
 7913WAT      O23980   1.291   0.237   5.129
 7913WAT     H123981   1.389   0.251   5.145
 7913WAT     H223982   1.259   0.161   5.186
 7914WAT      O23983   9.280   4.250   7.904
 7914WAT     H123984   9.329   4.318   7.850
 7914WAT     H223985   9.194   4.227   7.858
 7915WAT      O23986   4.528   0.921   4.790
 7915WAT     H123987   4.550   0.990   4.859
 7915WAT     H223988   4.592   0.928   4.714
 7916WAT      O23989   8.530   2.165   7.438
 7916WAT     H123990   8.558   2.186   7.532
 7916WAT     H223991   8.450   2.220   7.415
 7917WAT      O23992   1.402   5.262   6.472
 7917WAT     H123993   1.445   5.293   6.557
 7917WAT     H223994   1.474   5.247   6.403
 7918WAT      O23995   3.865   4.601   1.881
 7918WAT     H123996   3.809   4.679   1.854
 7918WAT     H223997   3.868   4.594   1.980
 7919WAT      O23998   6.114   8.759   2.568
 7919WAT     H123999   6.209   8.762   2.600
 7919WAT     H224000   6.054   8.733   2.644
 7920WAT      O24001   9.763   5.575   3.913
 7920WAT     H124002   9.699   5.626   3.970
 7920WAT     H224003   9.783   5.487   3.956
 7921WAT      O24004   3.882   9.260   4.188
 7921WAT     H124005   3.961   9.253   4.126
 7921WAT     H224006   3.803   9.293   4.137
 7922WAT      O24007   1.692   8.614   8.453
 7922WAT     H124008   1.671   8.659   8.540
 7922WAT     H224009   1.652   8.523   8.451
 7923WAT      O24010   0.186   5.962   9.761
 7923WAT     H124011   0.271   5.921   9.795
 7923WAT     H224012   0.204   6.009   9.675
 7924WAT      O24013   0.735   2.960   0.541
 7924WAT     H124014   0.769   3.028   0.476
 7924WAT     H224015   0.754   2.991   0.634
 7925WAT      O24016   2.797   2.203   9.127
 7925WAT     H124017   2.757   2.286   9.088
 7925WAT     H224018   2.858   2.161   9.060
 7926WAT      O24019   1.123   7.561   7.164
 7926WAT     H124020   1.181   7.627   7.117
 7926WAT     H224021   1.116   7.584   7.261
 7927WAT      O24022   6.778   4.697   0.996
 7927WAT     H124023   6.728   4.615   1.025
 7927WAT     H224024   6.731   4.779   1.029
 7928WAT      O24025   9.729   7.604   1.803
 7928WAT     H124026   9.740   7.565   1.712
 7928WAT     H224027   9.816   7.598   1.853
 7929WAT      O24028   0.395   6.594   2.574
 7929WAT     H124029   0.471   6.620   2.635
 7929WAT     H224030   0.399   6.496   2.557
 7930WAT      O24031   4.648   0.818   7.039
 7930WAT     H124032   4.673   0.785   7.130
 7930WAT     H224033   4.635   0.917   7.043
 7931WAT      O24034   1.809   0.335   5.320
 7931WAT     H124035   1.871   0.257   5.319
 7931WAT     H224036   1.738   0.323   5.250
 7932WAT      O24037   6.754   5.054   8.765
 7932WAT     H124038   6.688   5.010   8.826
 7932WAT     H224039   6.781   4.989   8.694
 7933WAT      O24040   4.120   6.397   9.569
 7933WAT     H124041   4.133   6.491   9.600
 7933WAT     H224042   4.093   6.340   9.646
 7934WAT      O24043   0.729   9.811   4.791
 7934WAT     H124044   0.684   9.880   4.848
 7934WAT     H224045   0.828   9.828   4.789
 7935WAT      O24046   2.266   0.713   7.798
 7935WAT     H124047   2.258   0.617   7.825
 7935WAT     H224048   2.221   0.726   7.709
 7936WAT      O24049   8.549   4.035   0.139
 7936WAT     H124050   8.512   4.126   0.157
 7936WAT     H224051   8.585   4.031   0.045
 7937WAT      O24052   6.535   0.401   5.241
 7937WAT     H124053   6.499   0.318   5.198
 7937WAT     H224054   6.586   0.454   5.173
 7938WAT      O24055   7.106   0.603   3.806
 7938WAT     H124056   7.035   0.532   3.799
 7938WAT     H224057   7.187   0.565   3.850
 7939WAT      O24058   8.591   2.973   8.254
 7939WAT     H124059   8.538   3.000   8.334
 7939WAT     H224060   8.687   2.959   8.279
 7940WAT      O24061   9.100   4.789   7.205
 7940WAT     H124062   9.087   4.704   7.154
 7940WAT     H224063   9.017   4.811   7.255
 7941WAT      O24064   7.566   2.547   7.008
 7941WAT     H124065   7.648   2.499   7.039
 7941WAT     H224066   7.515   2.488   6.945
 7942WAT      O24067   8.148   7.811   6.107
 7942WAT     H124068   8.160   7.786   6.011
 7942WAT     H224069   8.225   7.869   6.136
 7943WAT      O24070   8.263   7.974   8.235
 7943WAT     H124071   8.342   8.035   8.231
 7943WAT     H224072   8.238   7.957   8.330
 7944WAT      O24073   5.593   2.342   3.732
 7944WAT     H124074   5.692   2.331   3.743
 7944WAT     H224075   5.560   2.274   3.667
 7945WAT      O24076   3.854   2.529   8.788
 7945WAT     H124077   3.898   2.569   8.868
 7945WAT     H224078   3.923   2.506   8.720
 7946WAT      O24079   7.861   9.358   3.539
 7946WAT     H124080   7.764   9.355   3.563
 7946WAT     H224081   7.906   9.274   3.568
 7947WAT      O24082   2.009   6.205   6.665
 7947WAT     H124083   2.085   6.140   6.667
 7947WAT     H224084   1.933   6.167   6.613
 7948WAT      O24085   5.708   3.710   7.186
 7948WAT     H124086   5.666   3.799   7.205
 7948WAT     H224087   5.661   3.668   7.108
 7949WAT      O24088   8.053   1.161   5.577
 7949WAT     H124089   8.054   1.227   5.653
 7949WAT     H224090   8.014   1.074   5.608
 7950WAT      O24091   0.812   0.547   2.144
 7950WAT     H124092   0.884   0.496   2.096
 7950WAT     H224093   0.841   0.565   2.238
 7951WAT      O24094   7.057   6.547   4.592
 7951WAT     H124095   7.086   6.453   4.577
 7951WAT     H224096   6.964   6.548   4.629
 7952WAT      O24097   9.225   0.957   5.409
 7952WAT     H124098   9.140   0.966   5.460
 7952WAT     H224099   9.216   1.005   5.321
 7953WAT      O24100   8.835   6.682   4.654
 7953WAT     H124101   8.736   6.698   4.646
 7953WAT     H224102   8.853   6.628   4.736
 7954WAT      O24103   2.302   9.227   1.962
 7954WAT     H124104   2.212   9.250   2.000
 7954WAT     H224105   2.299   9.135   1.924
 7955WAT      O24106   6.772   9.463   6.723
 7955WAT     H124107   6.848   9.468   6.658
 7955WAT     H224108   6.695   9.416   6.680
 7956WAT      O24109   3.257   6.003   2.721
 7956WAT     H124110   3.245   5.905   2.733
 7956WAT     H224111   3.293   6.021   2.629
 7957WAT      O24112   2.516   1.785   9.368
 7957WAT     H124113   2.548   1.693   9.389
 7957WAT     H224114   2.579   1.852   9.408
 7958WAT      O24115   4.796   5.194   0.418
 7958WAT     H124116   4.847   5.128   0.473
 7958WAT     H224117   4.847   5.216   0.335
 7959WAT      O24118   1.586   4.591   6.120
 7959WAT     H124119   1.563   4.499   6.152
 7959WAT     H224120   1.680   4.591   6.085
 7960WAT      O24121   2.139   7.737   4.327
 7960WAT     H124122   2.165   7.646   4.358
 7960WAT     H224123   2.056   7.732   4.271
 7961WAT      O24124   7.124   9.221   5.247
 7961WAT     H124125   7.207   9.194   5.199
 7961WAT     H224126   7.075   9.140   5.279
 7962WAT      O24127   8.639   9.552   5.520
 7962WAT     H124128   8.564   9.487   5.529
 7962WAT     H224129   8.719   9.518   5.568
 7963WAT      O24130   1.375   2.561   3.413
 7963WAT     H124131   1.338   2.498   3.480
 7963WAT     H224132   1.339   2.653   3.430
 7964WAT      O24133   5.595   9.034   7.592
 7964WAT     H124134   5.558   9.089   7.667
 7964WAT     H224135   5.638   9.093   7.525
 7965WAT      O24136   4.892   4.452   1.018
 7965WAT     H124137   4.904   4.547   0.990
 7965WAT     H224138   4.970   4.423   1.075
 7966WAT      O24139   2.894   7.554   1.250
 7966WAT     H124140   2.919   7.460   1.225
 7966WAT     H224141   2.798   7.570   1.226
 7967WAT      O24142   4.504   8.658   6.847
 7967WAT     H124143   4.433   8.646   6.777
 7967WAT     H224144   4.594   8.646   6.805
 7968WAT      O24145   0.152   9.327   8.839
 7968WAT     H124146   0.085   9.254   8.827
 7968WAT     H224147   0.172   9.369   8.751
 7969WAT      O24148   2.784   6.110   0.610
 7969WAT     H124149   2.813   6.014   0.603
 7969WAT     H224150   2.688   6.113   0.639
 7970WAT      O24151   3.008   0.590   3.648
 7970WAT     H124152   3.006   0.686   3.675
 7970WAT     H224153   2.960   0.535   3.717
 7971WAT      O24154   6.073   8.674   1.185
 7971WAT     H124155   6.123   8.760   1.188
 7971WAT     H224156   6.131   8.600   1.216
 7972WAT      O24157   2.872   8.731   9.846
 7972WAT     H124158   2.938   8.714   9.772
 7972WAT     H224159   2.911   8.797   9.910
 7973WAT      O24160   6.981   8.833   9.548
 7973WAT     H124161   7.046   8.898   9.587
 7973WAT     H224162   7.021   8.741   9.550
 7974WAT      O24163   2.203   9.475   1.228
 7974WAT     H124164   2.267   9.519   1.164
 7974WAT     H224165   2.195   9.378   1.204
 7975WAT      O24166   3.910   2.158   2.288
 7975WAT     H124167   3.899   2.134   2.384
 7975WAT     H224168   3.832   2.124   2.236
 7976WAT      O24169   6.047   4.827   6.518
 7976WAT     H124170   5.975   4.880   6.564
 7976WAT     H224171   6.056   4.738   6.564
 7977WAT      O24172   5.454   8.502   4.335
 7977WAT     H124173   5.499   8.591   4.327
 7977WAT     H224174   5.369   8.502   4.281
 7978WAT      O24175   6.050   9.183   1.529
 7978WAT     H124176   6.100   9.135   1.457
 7978WAT     H224177   6.111   9.203   1.605
 7979WAT      O24178   7.537   0.121   5.312
 7979WAT     H124179   7.468   0.176   5.265
 7979WAT     H224180   7.575   0.054   5.249
 7980WAT      O24181   8.344   2.448   2.585
 7980WAT     H124182   8.261   2.466   2.638
 7980WAT     H224183   8.337   2.492   2.496
 7981WAT      O24184   5.166   1.383   8.989
 7981WAT     H124185   5.101   1.453   8.957
 7981WAT     H224186   5.259   1.419   8.984
 7982WAT      O24187   3.317   3.180   5.211
 7982WAT     H124188   3.348   3.099   5.262
 7982WAT     H224189   3.246   3.152   5.146
 7983WAT      O24190   0.451   1.229   1.266
 7983WAT     H124191   0.386   1.281   1.322
 7983WAT     H224192   0.544   1.263   1.284
 7984WAT      O24193   6.538   7.088   5.612
 7984WAT     H124194   6.491   7.162   5.660
 7984WAT     H224195   6.474   7.040   5.552
 7985WAT      O24196   1.638   4.469   8.610
 7985WAT     H124197   1.705   4.526   8.658
 7985WAT     H224198   1.588   4.413   8.676
 7986WAT      O24199   3.291   1.614   2.750
 7986WAT     H124200   3.388   1.605   2.774
 7986WAT     H224201   3.235   1.588   2.828
 7987WAT      O24202   8.337   0.229   9.466
 7987WAT     H124203   8.352   0.238   9.564
 7987WAT     H224204   8.239   0.221   9.448
 7988WAT      O24205   2.234   5.186   4.209
 7988WAT     H124206   2.234   5.254   4.282
 7988WAT     H224207   2.147   5.190   4.160
 7989WAT      O24208   4.255   5.789   6.987
 7989WAT     H124209   4.309   5.706   6.972
 7989WAT     H224210   4.277   5.857   6.917
 7990WAT      O24211   4.764   5.542   2.772
 7990WAT     H124212   4.734   5.482   2.846
 7990WAT     H224213   4.782   5.633   2.808
 7991WAT      O24214   6.674   1.199   2.253
 7991WAT     H124215   6.729   1.124   2.289
 7991WAT     H224216   6.577   1.174   2.257
 7992WAT      O24217   3.106   8.944   6.347
 7992WAT     H124218   3.012   8.947   6.314
 7992WAT     H224219   3.151   8.862   6.311
 7993WAT      O24220   7.325   8.634   0.880
 7993WAT     H124221   7.410   8.671   0.841
 7993WAT     H224222   7.345   8.550   0.930
 7994WAT      O24223   3.123   9.697   6.427
 7994WAT     H124224   3.063   9.732   6.354
 7994WAT     H224225   3.127   9.763   6.502
 7995WAT      O24226   0.511   6.757   0.110
 7995WAT     H124227   0.508   6.854   0.134
 7995WAT     H224228   0.561   6.745   0.025
 7996WAT      O24229   6.428   1.823   8.283
 7996WAT     H124230   6.466   1.771   8.207
 7996WAT     H224231   6.495   1.891   8.314
 7997WAT      O24232   4.119   9.428   9.836
 7997WAT     H124233   4.070   9.469   9.759
 7997WAT     H224234   4.183   9.359   9.802
 7998WAT      O24235   2.087   3.663   8.416
 7998WAT     H124236   2.079   3.763   8.421
 7998WAT     H224237   2.109   3.636   8.322
 7999WAT      O24238   3.570   6.442   0.298
 7999WAT     H124239   3.564   6.534   0.336
 7999WAT     H224240   3.503   6.382   0.342
 8000WAT      O24241   8.161   1.361   6.297
 8000WAT     H124242   8.206   1.273   6.316
 8000WAT     H224243   8.077   1.368   6.350
 8001WAT      O24244   0.256   3.783   5.052
 8001WAT     H124245   0.287   3.865   5.005
 8001WAT     H224246   0.174   3.748   5.008
 8002WAT      O24247   1.254   2.848   0.086
 8002WAT     H124248   1.187   2.774   0.088
 8002WAT     H224249   1.250   2.895  -0.002
 8003WAT      O24250   5.203   2.895   0.017
 8003WAT     H124251   5.147   2.844  -0.048
 8003WAT     H224252   5.144   2.939   0.085
 8004WAT      O24253   6.256   4.680   2.236
 8004WAT     H124254   6.238   4.587   2.205
 8004WAT     H224255   6.281   4.678   2.333
 8005WAT      O24256   9.677   9.575   9.289
 8005WAT     H124257   9.761   9.528   9.315
 8005WAT     H224258   9.695   9.637   9.212
 8006WAT      O24259   5.016   1.694   4.832
 8006WAT     H124260   5.057   1.783   4.811
 8006WAT     H224261   4.957   1.665   4.756
 8007WAT      O24262   4.988   7.017   4.394
 8007WAT     H124263   5.062   7.029   4.327
 8007WAT     H224264   4.982   6.921   4.421
 8008WAT      O24265   8.018   9.462   7.325
 8008WAT     H124266   8.038   9.447   7.422
 8008WAT     H224267   7.937   9.520   7.317
 8009WAT      O24268   6.328   9.073   2.968
 8009WAT     H124269   6.369   9.164   2.968
 8009WAT     H224270   6.264   9.065   2.891
 8010WAT      O24271   2.279   5.045   8.334
 8010WAT     H124272   2.378   5.054   8.349
 8010WAT     H224273   2.237   5.002   8.413
 8011WAT      O24274   8.568   9.473   8.983
 8011WAT     H124275   8.541   9.512   9.071
 8011WAT     H224276   8.608   9.382   8.998
 8012WAT      O24277   9.710   2.044   4.581
 8012WAT     H124278   9.758   1.957   4.570
 8012WAT     H224279   9.696   2.062   4.679
 8013WAT      O24280   0.302   7.266   4.523
 8013WAT     H124281   0.204   7.256   4.506
 8013WAT     H224282   0.353   7.216   4.454
 8014WAT      O24283   9.045   6.773   0.547
 8014WAT     H124284   9.096   6.836   0.488
 8014WAT     H224285   8.947   6.783   0.530
 8015WAT      O24286   9.648   6.123   6.627
 8015WAT     H124287   9.722   6.127   6.693
 8015WAT     H224288   9.590   6.205   6.636
 8016WAT      O24289   0.519   1.988   8.928
 8016WAT     H124290   0.486   1.895   8.912
 8016WAT     H224291   0.483   2.021   9.015
 8017WAT      O24292   0.274   8.605   8.438
 8017WAT     H124293   0.358   8.549   8.435
 8017WAT     H224294   0.199   8.549   8.472
 8018WAT      O24295   2.099   1.716   7.138
 8018WAT     H124296   2.057   1.630   7.108
 8018WAT     H224297   2.073   1.735   7.232
 8019WAT      O24298   0.131   7.790   8.777
 8019WAT     H124299   0.080   7.741   8.848
 8019WAT     H224300   0.186   7.725   8.725
 8020WAT      O24301   2.018   1.890   2.349
 8020WAT     H124302   1.961   1.930   2.421
 8020WAT     H224303   1.984   1.919   2.259
 8021WAT      O24304   3.348   4.214   5.943
 8021WAT     H124305   3.255   4.232   5.911
 8021WAT     H224306   3.401   4.171   5.870
 8022WAT      O24307   1.017   8.877   3.809
 8022WAT     H124308   1.010   8.789   3.763
 8022WAT     H224309   1.052   8.864   3.901
 8023WAT      O24310   1.416   5.593   1.548
 8023WAT     H124311   1.488   5.620   1.613
 8023WAT     H224312   1.428   5.644   1.463
 8024WAT      O24313   5.678   4.241   5.963
 8024WAT     H124314   5.769   4.266   5.930
 8024WAT     H224315   5.685   4.160   6.022
 8025WAT      O24316   7.185   8.238   5.352
 8025WAT     H124317   7.191   8.239   5.252
 8025WAT     H224318   7.208   8.328   5.387
 8026WAT      O24319   9.593   5.968   6.033
 8026WAT     H124320   9.540   6.048   6.005
 8026WAT     H224321   9.548   5.925   6.111
 8027WAT      O24322   0.409   3.526   2.318
 8027WAT     H124323   0.415   3.452   2.384
 8027WAT     H224324   0.387   3.490   2.228
 8028WAT      O24325   8.186   5.664   6.947
 8028WAT     H124326   8.091   5.693   6.934
 8028WAT     H224327   8.193   5.611   7.032
 8029WAT      O24328   1.502   2.736   3.791
 8029WAT     H124329   1.490   2.637   3.802
 8029WAT     H224330   1.543   2.774   3.874
 8030WAT      O24331   6.077   3.372   9.139
 8030WAT     H124332   6.162   3.362   9.190
 8030WAT     H224333   6.000   3.371   9.204
 8031WAT      O24334   8.634   2.207   9.065
 8031WAT     H124335   8.565   2.272   9.034
 8031WAT     H224336   8.592   2.117   9.077
 8032WAT      O24337   9.781   9.486   0.025
 8032WAT     H124338   9.687   9.463   0.048
 8032WAT     H224339   9.843   9.416   0.061
 8033WAT      O24340   2.681   5.083   2.091
 8033WAT     H124341   2.721   5.002   2.048
 8033WAT     H224342   2.631   5.056   2.173
 8034WAT      O24343   6.273   9.261   9.108
 8034WAT     H124344   6.300   9.327   9.178
 8034WAT     H224345   6.315   9.172   9.127
 8035WAT      O24346   3.055   1.097   1.852
 8035WAT     H124347   2.975   1.045   1.883
 8035WAT     H224348   3.073   1.077   1.756
 8036WAT      O24349   1.826   2.905   2.472
 8036WAT     H124350   1.925   2.890   2.473
 8036WAT     H224351   1.803   2.982   2.413
 8037WAT      O24352   7.053   4.987   6.554
 8037WAT     H124353   7.057   4.900   6.505
 8037WAT     H224354   7.146   5.017   6.575
 8038WAT      O24355   2.858   3.333   8.890
 8038WAT     H124356   2.825   3.427   8.903
 8038WAT     H224357   2.904   3.326   8.801
 8039WAT      O24358   9.689   6.020   1.186
 8039WAT     H124359   9.739   6.087   1.131
 8039WAT     H224360   9.592   6.025   1.163
 8040WAT      O24361   9.634   2.389   5.222
 8040WAT     H124362   9.603   2.342   5.139
 8040WAT     H224363   9.579   2.471   5.236
 8041WAT      O24364   2.319   1.436   4.967
 8041WAT     H124365   2.315   1.464   5.063
 8041WAT     H224366   2.292   1.340   4.959
 8042WAT      O24367   1.258   3.133   7.302
 8042WAT     H124368   1.187   3.199   7.327
 8042WAT     H224369   1.215   3.051   7.264
 8043WAT      O24370   6.885   1.180   6.776
 8043WAT     H124371   6.899   1.278   6.782
 8043WAT     H224372   6.900   1.139   6.866
 8044WAT      O24373   0.689   5.172   4.282
 8044WAT     H124374   0.642   5.258   4.303
 8044WAT     H224375   0.665   5.103   4.349
 8045WAT      O24376   4.756   2.798   8.189
 8045WAT     H124377   4.681   2.735   8.169
 8045WAT     H224378   4.744   2.835   8.281
 8046WAT      O24379   3.268   0.607   9.055
 8046WAT     H124380   3.364   0.615   9.028
 8046WAT     H224381   3.214   0.675   9.004
 8047WAT      O24382   3.643   5.844   7.759
 8047WAT     H124383   3.591   5.759   7.770
 8047WAT     H224384   3.634   5.900   7.841
 8048WAT      O24385   3.334   9.497   7.454
 8048WAT     H124386   3.358   9.543   7.369
 8048WAT     H224387   3.379   9.544   7.531
 8049WAT      O24388   0.155   6.752   4.097
 8049WAT     H124389   0.095   6.830   4.079
 8049WAT     H224390   0.104   6.667   4.083
 8050WAT      O24391   1.737   5.318   3.420
 8050WAT     H124392   1.729   5.220   3.435
 8050WAT     H224393   1.699   5.367   3.498
 8051WAT      O24394   2.647   7.784   6.311
 8051WAT     H124395   2.558   7.828   6.315
 8051WAT     H224396   2.640   7.690   6.346
 8052WAT      O24397   2.118   6.097   2.961
 8052WAT     H124398   2.161   6.079   2.872
 8052WAT     H224399   2.061   6.178   2.954
 8053WAT      O24400   7.099   6.401   3.444
 8053WAT     H124401   7.076   6.435   3.353
 8053WAT     H224402   7.061   6.310   3.456
 8054WAT      O24403   0.549   3.653   5.794
 8054WAT     H124404   0.647   3.639   5.802
 8054WAT     H224405   0.505   3.639   5.883
 8055WAT      O24406   7.760   2.247   3.577
 8055WAT     H124407   7.703   2.183   3.526
 8055WAT     H224408   7.856   2.219   3.570
 8056WAT      O24409   3.669   5.899   5.895
 8056WAT     H124410   3.575   5.869   5.906
 8056WAT     H224411   3.674   5.998   5.901
 8057WAT      O24412   9.686   7.026   9.405
 8057WAT     H124413   9.756   6.985   9.463
 8057WAT     H224414   9.630   6.954   9.364
 8058WAT      O24415   8.844   0.666   0.803
 8058WAT     H124416   8.843   0.615   0.889
 8058WAT     H224417   8.916   0.735   0.806
 8059WAT      O24418   7.836   0.919   3.106
 8059WAT     H124419   7.806   0.902   3.012
 8059WAT     H224420   7.812   1.012   3.133
 8060WAT      O24421   9.404   0.238   3.760
 8060WAT     H124422   9.424   0.141   3.774
 8060WAT     H224423   9.413   0.286   3.847
 8061WAT      O24424   7.081   9.486   3.012
 8061WAT     H124425   7.166   9.533   3.037
 8061WAT     H224426   7.013   9.502   3.084
 8062WAT      O24427   6.501   6.602   9.520
 8062WAT     H124428   6.419   6.634   9.568
 8062WAT     H224429   6.488   6.507   9.491
 8063WAT      O24430   4.380   8.126   0.395
 8063WAT     H124431   4.348   8.106   0.302
 8063WAT     H224432   4.332   8.207   0.430
 8064WAT      O24433   8.671   2.230   3.569
 8064WAT     H124434   8.670   2.196   3.663
 8064WAT     H224435   8.764   2.254   3.543
 8065WAT      O24436   1.902   2.650   4.665
 8065WAT     H124437   1.857   2.574   4.617
 8065WAT     H224438   1.900   2.634   4.763
 8066WAT      O24439   9.292   0.560   0.999
 8066WAT     H124440   9.245   0.489   1.052
 8066WAT     H224441   9.226   0.605   0.939
 8067WAT      O24442   7.474   7.510   2.199
 8067WAT     H124443   7.448   7.431   2.255
 8067WAT     H224444   7.460   7.594   2.251
 8068WAT      O24445   7.554   3.190   6.146
 8068WAT     H124446   7.534   3.265   6.208
 8068WAT     H224447   7.477   3.125   6.147
 8069WAT      O24448   3.876   5.624   3.195
 8069WAT     H124449   3.904   5.590   3.105
 8069WAT     H224450   3.938   5.697   3.223
 8070WAT      O24451   1.206   7.838   4.641
 8070WAT     H124452   1.128   7.889   4.679
 8070WAT     H224453   1.285   7.848   4.701
 8071WAT      O24454   7.482   1.878   2.230
 8071WAT     H124455   7.496   1.909   2.135
 8071WAT     H224456   7.462   1.957   2.288
 8072WAT      O24457   3.326   4.973   3.092
 8072WAT     H124458   3.383   4.891   3.091
 8072WAT     H224459   3.269   4.973   3.174
 8073WAT      O24460   2.285   5.605   1.454
 8073WAT     H124461   2.363   5.544   1.463
 8073WAT     H224462   2.200   5.552   1.454
 8074WAT      O24463   0.940   0.302   6.217
 8074WAT     H124464   0.931   0.279   6.314
 8074WAT     H224465   0.850   0.321   6.179
 8075WAT      O24466   0.225   1.692   0.497
 8075WAT     H124467   0.168   1.774   0.493
 8075WAT     H224468   0.305   1.711   0.554
 8076WAT      O24469   8.433   3.272   4.559
 8076WAT     H124470   8.528   3.293   4.535
 8076WAT     H224471   8.373   3.344   4.523
 8077WAT      O24472   9.468   2.931   5.287
 8077WAT     H124473   9.448   2.929   5.189
 8077WAT     H224474   9.386   2.958   5.337
 8078WAT      O24475   7.811   2.635   2.428
 8078WAT     H124476   7.772   2.702   2.492
 8078WAT     H224477   7.784   2.659   2.335
 8079WAT      O24478   9.035   7.044   8.141
 8079WAT     H124479   8.956   6.989   8.114
 8079WAT     H224480   9.108   6.984   8.173
 8080WAT      O24481   5.807   6.102   0.923
 8080WAT     H124482   5.769   6.193   0.935
 8080WAT     H224483   5.841   6.068   1.010
 8081WAT      O24484   2.187   2.675   5.021
 8081WAT     H124485   2.285   2.662   5.006
 8081WAT     H224486   2.173   2.751   5.085
 8082WAT      O24487   4.459   4.575   1.225
 8082WAT     H124488   4.490   4.481   1.234
 8082WAT     H224489   4.491   4.613   1.138
 8083WAT      O24490   4.564   9.098   3.665
 8083WAT     H124491   4.585   9.191   3.694
 8083WAT     H224492   4.619   9.074   3.585
 8084WAT      O24493   5.118   5.593   0.769
 8084WAT     H124494   5.074   5.683   0.760
 8084WAT     H224495   5.054   5.522   0.738
 8085WAT      O24496   3.069   7.795   9.211
 8085WAT     H124497   3.128   7.872   9.186
 8085WAT     H224498   2.973   7.820   9.195
 8086WAT      O24499   9.599   6.289   4.511
 8086WAT     H124500   9.605   6.319   4.415
 8086WAT     H224501   9.553   6.359   4.565
 8087WAT      O24502   9.306   3.072   3.001
 8087WAT     H124503   9.247   2.995   3.027
 8087WAT     H224504   9.377   3.039   2.939
 8088WAT      O24505   3.025   3.602   9.396
 8088WAT     H124506   3.025   3.503   9.379
 8088WAT     H224507   2.992   3.650   9.315
 8089WAT      O24508   7.976   6.941   9.303
 8089WAT     H124509   7.975   7.039   9.327
 8089WAT     H224510   8.066   6.902   9.325
 8090WAT      O24511   6.894   5.961   1.000
 8090WAT     H124512   6.928   6.020   0.927
 8090WAT     H224513   6.885   6.014   1.084
 8091WAT      O24514   2.291   8.215   3.785
 8091WAT     H124515   2.317   8.151   3.858
 8091WAT     H224516   2.242   8.293   3.824
 8092WAT      O24517   1.618   1.503   5.465
 8092WAT     H124518   1.697   1.562   5.454
 8092WAT     H224519   1.648   1.413   5.498
 8093WAT      O24520   3.965   9.645   1.723
 8093WAT     H124521   3.923   9.724   1.679
 8093WAT     H224522   4.016   9.675   1.804
 8094WAT      O24523   4.239   7.255   5.124
 8094WAT     H124524   4.199   7.192   5.190
 8094WAT     H224525   4.327   7.288   5.158
 8095WAT      O24526   5.279   0.432   3.073
 8095WAT     H124527   5.207   0.362   3.072
 8095WAT     H224528   5.368   0.389   3.060
 8096WAT      O24529   3.677   3.992   0.431
 8096WAT     H124530   3.713   3.996   0.338
 8096WAT     H224531   3.599   4.055   0.440
 8097WAT      O24532   1.610   2.632   6.807
 8097WAT     H124533   1.555   2.560   6.849
 8097WAT     H224534   1.590   2.636   6.709
 8098WAT      O24535   0.064   2.932   7.562
 8098WAT     H124536   0.108   2.903   7.477
 8098WAT     H224537   0.133   2.966   7.625
 8099WAT      O24538   4.888   8.141   8.615
 8099WAT     H124539   4.824   8.142   8.538
 8099WAT     H224540   4.839   8.163   8.700
 8100WAT      O24541   3.538   6.763   2.722
 8100WAT     H124542   3.510   6.858   2.710
 8100WAT     H224543   3.622   6.759   2.775
 8101WAT      O24544   7.431   7.127   0.817
 8101WAT     H124545   7.488   7.167   0.746
 8101WAT     H224546   7.376   7.054   0.778
 8102WAT      O24547   1.602   3.366   9.755
 8102WAT     H124548   1.510   3.376   9.792
 8102WAT     H224549   1.659   3.442   9.787
 8103WAT      O24550   4.899   9.483   6.990
 8103WAT     H124551   4.973   9.539   6.953
 8103WAT     H224552   4.888   9.401   6.933
 8104WAT      O24553   4.632   2.249   3.643
 8104WAT     H124554   4.664   2.344   3.642
 8104WAT     H224555   4.559   2.237   3.576
 8105WAT      O24556   9.012   7.389   2.179
 8105WAT     H124557   9.070   7.307   2.178
 8105WAT     H224558   9.069   7.469   2.163
 8106WAT      O24559   2.879   7.752   4.207
 8106WAT     H124560   2.879   7.654   4.230
 8106WAT     H224561   2.958   7.773   4.150
 8107WAT      O24562   8.739   8.310   5.472
 8107WAT     H124563   8.714   8.373   5.545
 8107WAT     H224564   8.674   8.319   5.396
 8108WAT      O24565   7.619   1.558   8.871
 8108WAT     H124566   7.711   1.587   8.846
 8108WAT     H224567   7.624   1.490   8.944
 8109WAT      O24568   2.627   6.002   0.230
 8109WAT     H124569   2.595   5.926   0.174
 8109WAT     H224570   2.558   6.026   0.298
 8110WAT      O24571   7.303   5.430   6.051
 8110WAT     H124572   7.238   5.384   5.990
 8110WAT     H224573   7.255   5.470   6.129
 8111WAT      O24574   4.262   3.744   8.584
 8111WAT     H124575   4.252   3.798   8.500
 8111WAT     H224576   4.245   3.802   8.663
 8112WAT      O24577   9.521   5.770   1.065
 8112WAT     H124578   9.545   5.703   1.135
 8112WAT     H224579   9.554   5.739   0.976
 8113WAT      O24580   2.758   5.711   9.761
 8113WAT     H124581   2.690   5.737   9.692
 8113WAT     H224582   2.725   5.631   9.811
 8114WAT      O24583   3.698   2.246   5.888
 8114WAT     H124584   3.600   2.266   5.895
 8114WAT     H224585   3.725   2.243   5.792
 8115WAT      O24586   0.873   7.261   5.717
 8115WAT     H124587   0.804   7.305   5.659
 8115WAT     H224588   0.935   7.331   5.753
 8116WAT      O24589   4.993   1.714   9.827
 8116WAT     H124590   5.009   1.799   9.776
 8116WAT     H224591   5.066   1.702   9.894
 8117WAT      O24592   3.124   3.926   7.402
 8117WAT     H124593   3.090   3.915   7.309
 8117WAT     H224594   3.177   4.010   7.409
 8118WAT      O24595   3.156   4.750   7.257
 8118WAT     H124596   3.119   4.792   7.174
 8118WAT     H224597   3.155   4.651   7.248
 8119WAT      O24598   3.453   6.588   1.489
 8119WAT     H124599   3.486   6.608   1.581
 8119WAT     H224600   3.499   6.507   1.453
 8120WAT      O24601   0.862   5.026   9.850
 8120WAT     H124602   0.892   4.948   9.905
 8120WAT     H224603   0.765   5.043   9.867
 8121WAT      O24604   5.228   3.612   3.179
 8121WAT     H124605   5.147   3.671   3.176
 8121WAT     H224606   5.258   3.601   3.274
 8122WAT      O24607   2.974   8.170   9.010
 8122WAT     H124608   2.932   8.259   9.028
 8122WAT     H224609   3.073   8.182   8.999
 8123WAT      O24610   3.804   8.360   7.271
 8123WAT     H124611   3.825   8.411   7.354
 8123WAT     H224612   3.798   8.263   7.292
 8124WAT      O24613   3.240   1.379   8.103
 8124WAT     H124614   3.240   1.309   8.032
 8124WAT     H224615   3.287   1.460   8.070
 8125WAT      O24616   0.498   6.637   4.507
 8125WAT     H124617   0.548   6.723   4.498
 8125WAT     H224618   0.507   6.584   4.423
 8126WAT      O24619   9.459   0.359   3.284
 8126WAT     H124620   9.539   0.412   3.255
 8126WAT     H224621   9.440   0.379   3.380
 8127WAT      O24622   9.222   4.474   2.522
 8127WAT     H124623   9.220   4.424   2.436
 8127WAT     H224624   9.151   4.439   2.583
 8128WAT      O24625   5.253   3.732   0.661
 8128WAT     H124626   5.329   3.776   0.612
 8128WAT     H224627   5.289   3.656   0.715
 8129WAT      O24628   8.298   5.758   4.621
 8129WAT     H124629   8.356   5.775   4.700
 8129WAT     H224630   8.266   5.663   4.623
 8130WAT      O24631   1.024   3.096   2.897
 8130WAT     H124632   0.967   3.014   2.888
 8130WAT     H224633   0.980   3.172   2.850
 8131WAT      O24634   0.096   8.327   5.183
 8131WAT     H124635   0.010   8.277   5.177
 8131WAT     H224636   0.133   8.342   5.091
 8132WAT      O24637   9.374   7.008   5.381
 8132WAT     H124638   9.282   6.973   5.364
 8132WAT     H224639   9.431   6.994   5.300
 8133WAT      O24640   9.837   2.142   4.225
 8133WAT     H124641   9.914   2.092   4.264
 8133WAT     H224642   9.865   2.184   4.138
 8134WAT      O24643   5.906   7.451   7.119
 8134WAT     H124644   5.904   7.417   7.025
 8134WAT     H224645   5.964   7.532   7.124
 8135WAT      O24646   1.211   7.855   7.501
 8135WAT     H124647   1.145   7.874   7.574
 8135WAT     H224648   1.208   7.929   7.434
 8136WAT      O24649   7.995   2.475   4.557
 8136WAT     H124650   8.023   2.473   4.654
 8136WAT     H224651   7.895   2.483   4.552
 8137WAT      O24652   4.847   6.068   4.669
 8137WAT     H124653   4.769   6.012   4.696
 8137WAT     H224654   4.817   6.162   4.652
 8138WAT      O24655   8.972   9.108   0.934
 8138WAT     H124656   8.964   9.023   0.987
 8138WAT     H224657   8.964   9.087   0.837
 8139WAT      O24658   8.755   0.295   8.379
 8139WAT     H124659   8.716   0.358   8.446
 8139WAT     H224660   8.722   0.202   8.398
 8140WAT      O24661   3.904   1.094   0.580
 8140WAT     H124662   3.956   1.133   0.504
 8140WAT     H224663   3.965   1.039   0.637
 8141WAT      O24664   6.442   8.771   9.822
 8141WAT     H124665   6.391   8.707   9.765
 8141WAT     H224666   6.508   8.721   9.878
 8142WAT      O24667   9.739   6.552   8.780
 8142WAT     H124668   9.647   6.513   8.779
 8142WAT     H224669   9.783   6.533   8.868
 8143WAT      O24670   4.511   2.697   1.909
 8143WAT     H124671   4.452   2.617   1.897
 8143WAT     H224672   4.603   2.675   1.876
 8144WAT      O24673   4.707   6.658   8.196
 8144WAT     H124674   4.747   6.662   8.287
 8144WAT     H224675   4.624   6.714   8.193
 8145WAT      O24676   6.069   4.915   0.507
 8145WAT     H124677   6.045   4.962   0.592
 8145WAT     H224678   5.990   4.863   0.474
 8146WAT      O24679   5.553   6.903   0.873
 8146WAT     H124680   5.587   6.816   0.838
 8146WAT     H224681   5.469   6.887   0.925
 8147WAT      O24682   7.754   4.907   0.080
 8147WAT     H124683   7.666   4.860   0.085
 8147WAT     H224684   7.792   4.896  -0.012
 8148WAT      O24685   4.941   4.842   8.661
 8148WAT     H124686   5.037   4.847   8.632
 8148WAT     H224687   4.889   4.915   8.616
 8149WAT      O24688   6.656   4.438   2.120
 8149WAT     H124689   6.663   4.469   2.215
 8149WAT     H224690   6.606   4.506   2.067
 8150WAT      O24691   0.109   2.351   6.264
 8150WAT     H124692   0.135   2.255   6.269
 8150WAT     H224693   0.101   2.389   6.356
 8151WAT      O24694   1.439   1.543   2.434
 8151WAT     H124695   1.406   1.449   2.431
 8151WAT     H224696   1.539   1.543   2.444
 8152WAT      O24697   1.015   9.525   1.132
 8152WAT     H124698   1.109   9.537   1.163
 8152WAT     H224699   1.011   9.533   1.033
 8153WAT      O24700   3.017   0.779   0.691
 8153WAT     H124701   3.097   0.839   0.681
 8153WAT     H224702   3.047   0.690   0.726
 8154WAT      O24703   9.726   8.481   2.068
 8154WAT     H124704   9.705   8.384   2.056
 8154WAT     H224705   9.800   8.490   2.135
 8155WAT      O24706   1.204   7.688   0.684
 8155WAT     H124707   1.182   7.760   0.618
 8155WAT     H224708   1.301   7.664   0.676
 8156WAT      O24709   7.736   5.945   2.809
 8156WAT     H124710   7.755   5.933   2.712
 8156WAT     H224711   7.723   6.042   2.830
 8157WAT      O24712   8.070   2.844   9.165
 8157WAT     H124713   8.144   2.870   9.103
 8157WAT     H224714   7.989   2.820   9.112
 8158WAT      O24715   8.749   3.054   6.119
 8158WAT     H124716   8.834   3.004   6.105
 8158WAT     H224717   8.751   3.140   6.067
 8159WAT      O24718   1.007   9.816   5.530
 8159WAT     H124719   0.937   9.743   5.526
 8159WAT     H224720   0.994   9.870   5.613
 8160WAT      O24721   5.312   4.628   0.185
 8160WAT     H124722   5.315   4.607   0.087
 8160WAT     H224723   5.382   4.575   0.233
 8161WAT      O24724   3.059   3.231   7.351
 8161WAT     H124725   3.043   3.245   7.449
 8161WAT     H224726   3.155   3.246   7.330
 8162WAT      O24727   0.930   8.703   5.309
 8162WAT     H124728   0.854   8.656   5.266
 8162WAT     H224729   0.920   8.802   5.297
 8163WAT      O24730   5.104   1.865   8.584
 8163WAT     H124731   5.092   1.781   8.531
 8163WAT     H224732   5.031   1.930   8.562
 8164WAT      O24733   2.615   5.045   6.387
 8164WAT     H124734   2.676   4.968   6.366
 8164WAT     H224735   2.665   5.131   6.380
 8165WAT      O24736   3.688   2.980   7.780
 8165WAT     H124737   3.778   3.019   7.757
 8165WAT     H224738   3.637   3.047   7.834
 8166WAT      O24739   5.016   6.087   2.822
 8166WAT     H124740   5.071   6.077   2.740
 8166WAT     H224741   5.023   6.005   2.878
 8167WAT      O24742   4.125   8.607   6.069
 8167WAT     H124743   4.077   8.651   6.144
 8167WAT     H224744   4.217   8.581   6.099
 8168WAT      O24745   1.211   6.825   3.434
 8168WAT     H124746   1.239   6.786   3.347
 8168WAT     H224747   1.289   6.827   3.497
 8169WAT      O24748   0.342   3.162   8.539
 8169WAT     H124749   0.390   3.247   8.521
 8169WAT     H224750   0.267   3.151   8.475
 8170WAT      O24751   6.184   0.374   2.305
 8170WAT     H124752   6.171   0.394   2.208
 8170WAT     H224753   6.180   0.275   2.319
 8171WAT      O24754   7.154   7.546   5.122
 8171WAT     H124755   7.169   7.456   5.082
 8171WAT     H224756   7.216   7.558   5.200
 8172WAT      O24757   2.757   8.407   6.254
 8172WAT     H124758   2.772   8.340   6.325
 8172WAT     H224759   2.696   8.369   6.184
 8173WAT      O24760   6.205   8.150   9.713
 8173WAT     H124761   6.300   8.141   9.684
 8173WAT     H224762   6.145   8.128   9.636
 8174WAT      O24763   1.812   2.004   6.467
 8174WAT     H124764   1.807   2.101   6.493
 8174WAT     H224765   1.740   1.984   6.400
 8175WAT      O24766   7.403   4.952   1.504
 8175WAT     H124767   7.343   5.012   1.557
 8175WAT     H224768   7.479   5.005   1.467
 8176WAT      O24769   8.322   6.821   7.886
 8176WAT     H124770   8.311   6.889   7.813
 8176WAT     H224771   8.243   6.761   7.888
 8177WAT      O24772   3.247   9.704   5.660
 8177WAT     H124773   3.232   9.631   5.726
 8177WAT     H224774   3.197   9.683   5.576
 8178WAT      O24775   2.096   2.859   2.511
 8178WAT     H124776   2.090   2.800   2.591
 8178WAT     H224777   2.081   2.954   2.539
 8179WAT      O24778   8.490   7.188   0.012
 8179WAT     H124779   8.545   7.104   0.009
 8179WAT     H224780   8.446   7.196   0.102
 8180WAT      O24781   3.767   4.494   3.285
 8180WAT     H124782   3.842   4.540   3.332
 8180WAT     H224783   3.716   4.439   3.351
 8181WAT      O24784   7.646   4.806   7.389
 8181WAT     H124785   7.583   4.762   7.326
 8181WAT     H224786   7.619   4.902   7.402
 8182WAT      O24787   6.531   3.533   6.967
 8182WAT     H124788   6.472   3.453   6.955
 8182WAT     H224789   6.514   3.573   7.057
 8183WAT      O24790   4.690   4.096   7.146
 8183WAT     H124791   4.785   4.074   7.171
 8183WAT     H224792   4.637   4.110   7.230
 8184WAT      O24793   9.461   7.854   7.587
 8184WAT     H124794   9.475   7.900   7.499
 8184WAT     H224795   9.549   7.842   7.633
 8185WAT      O24796   6.832   6.813   8.591
 8185WAT     H124797   6.875   6.821   8.681
 8185WAT     H224798   6.777   6.729   8.588
 8186WAT      O24799   7.260   4.755   7.784
 8186WAT     H124800   7.186   4.786   7.844
 8186WAT     H224801   7.332   4.712   7.839
 8187WAT      O24802   5.283   4.088   1.521
 8187WAT     H124803   5.311   4.040   1.604
 8187WAT     H224804   5.201   4.045   1.483
 8188WAT      O24805   0.184   7.467   7.286
 8188WAT     H124806   0.109   7.519   7.327
 8188WAT     H224807   0.174   7.370   7.311
 8189WAT      O24808   4.376   8.505   6.274
 8189WAT     H124809   4.470   8.496   6.308
 8189WAT     H224810   4.335   8.589   6.310
 8190WAT      O24811   4.781   9.541   7.238
 8190WAT     H124812   4.840   9.490   7.176
 8190WAT     H224813   4.715   9.595   7.185
 8191WAT      O24814   2.220   4.024   3.110
 8191WAT     H124815   2.177   3.980   3.189
 8191WAT     H224816   2.150   4.047   3.043
 8192WAT      O24817   0.605   1.045   3.487
 8192WAT     H124818   0.580   1.125   3.433
 8192WAT     H224819   0.561   0.964   3.449
 8193WAT      O24820   2.114   1.050   5.274
 8193WAT     H124821   2.178   1.126   5.263
 8193WAT     H224822   2.042   1.075   5.338
 8194WAT      O24823   0.757   1.188   1.285
 8194WAT     H124824   0.780   1.135   1.366
 8194WAT     H224825   0.804   1.149   1.206
 8195WAT      O24826   4.392   5.004   1.781
 8195WAT     H124827   4.337   4.930   1.742
 8195WAT     H224828   4.483   4.969   1.805
 8196WAT      O24829   4.431   8.829   8.078
 8196WAT     H124830   4.477   8.851   8.163
 8196WAT     H224831   4.400   8.913   8.033
 8197WAT      O24832   3.142   5.881   0.467
 8197WAT     H124833   3.063   5.835   0.508
 8197WAT     H224834   3.187   5.938   0.536
 8198WAT      O24835   2.501   1.082   4.108
 8198WAT     H124836   2.480   1.095   4.011
 8198WAT     H224837   2.464   0.995   4.140
 8199WAT      O24838   0.872   7.441   4.028
 8199WAT     H124839   0.786   7.484   4.002
 8199WAT     H224840   0.854   7.361   4.086
 8200WAT      O24841   1.937   7.833   1.389
 8200WAT     H124842   1.894   7.783   1.464
 8200WAT     H224843   2.027   7.865   1.417
 8201WAT      O24844   7.113   7.259   0.207
 8201WAT     H124845   7.144   7.220   0.294
 8201WAT     H224846   7.014   7.269   0.209
 8202WAT      O24847   7.981   8.079   3.509
 8202WAT     H124848   8.048   8.101   3.438
 8202WAT     H224849   7.904   8.030   3.468
 8203WAT      O24850   7.985   1.348   8.431
 8203WAT     H124851   7.939   1.436   8.418
 8203WAT     H224852   7.918   1.274   8.425
 8204WAT      O24853   5.186   1.930   4.045
 8204WAT     H124854   5.215   1.841   4.010
 8204WAT     H224855   5.106   1.961   3.994
 8205WAT      O24856   6.821   2.568   3.676
 8205WAT     H124857   6.903   2.561   3.620
 8205WAT     H224858   6.812   2.487   3.734
 8206WAT      O24859   5.190   2.986   2.507
 8206WAT     H124860   5.253   2.932   2.452
 8206WAT     H224861   5.122   2.927   2.549
 8207WAT      O24862   7.019   0.178   4.251
 8207WAT     H124863   7.007   0.275   4.272
 8207WAT     H224864   6.993   0.123   4.330
 8208WAT      O24865   3.268   7.496   7.031
 8208WAT     H124866   3.353   7.474   7.078
 8208WAT     H224867   3.287   7.526   6.938
 8209WAT      O24868   3.168   0.253   0.496
 8209WAT     H124869   3.257   0.250   0.543
 8209WAT     H224870   3.096   0.267   0.563
 8210WAT      O24871   5.618   4.908   4.046
 8210WAT     H124872   5.570   4.967   3.982
 8210WAT     H224873   5.659   4.832   3.997
 8211WAT      O24874   5.980   5.454   4.746
 8211WAT     H124875   5.907   5.464   4.814
 8211WAT     H224876   5.990   5.358   4.722
 8212WAT      O24877   7.162   6.425   8.829
 8212WAT     H124878   7.235   6.493   8.825
 8212WAT     H224879   7.074   6.470   8.814
 8213WAT      O24880   1.647   9.593   5.091
 8213WAT     H124881   1.645   9.563   5.186
 8213WAT     H224882   1.726   9.552   5.045
 8214WAT      O24883   4.719   5.815   6.803
 8214WAT     H124884   4.644   5.848   6.861
 8214WAT     H224885   4.755   5.892   6.750
 8215WAT      O24886   1.999   0.711   4.352
 8215WAT     H124887   2.007   0.799   4.399
 8215WAT     H224888   1.918   0.711   4.294
 8216WAT      O24889   5.389   3.469   5.651
 8216WAT     H124890   5.324   3.494   5.724
 8216WAT     H224891   5.444   3.549   5.628
 8217WAT      O24892   2.264   2.837   3.725
 8217WAT     H124893   2.312   2.819   3.640
 8217WAT     H224894   2.326   2.824   3.802
 8218WAT      O24895   2.338   2.809   3.227
 8218WAT     H124896   2.299   2.874   3.162
 8218WAT     H224897   2.370   2.727   3.178
 8219WAT      O24898   1.540   0.366   7.699
 8219WAT     H124899   1.589   0.355   7.786
 8219WAT     H224900   1.455   0.415   7.715
 8220WAT      O24901   6.901   9.113   0.635
 8220WAT     H124902   6.981   9.078   0.683
 8220WAT     H224903   6.820   9.104   0.694
 8221WAT      O24904   3.530   4.138   6.512
 8221WAT     H124905   3.624   4.120   6.543
 8221WAT     H224906   3.467   4.120   6.588
 8222WAT      O24907   8.890   4.128   1.745
 8222WAT     H124908   8.929   4.156   1.833
 8222WAT     H224909   8.962   4.089   1.688
 8223WAT      O24910   6.294   3.092   2.971
 8223WAT     H124911   6.303   3.086   2.872
 8223WAT     H224912   6.215   3.150   2.994
 8224WAT      O24913   7.099   1.546   3.479
 8224WAT     H124914   7.006   1.514   3.461
 8224WAT     H224915   7.109   1.568   3.576
 8225WAT      O24916   7.503   5.378   4.798
 8225WAT     H124917   7.523   5.303   4.735
 8225WAT     H224918   7.587   5.431   4.815
 8226WAT      O24919   7.121   5.603   0.555
 8226WAT     H124920   7.135   5.509   0.587
 8226WAT     H224921   7.201   5.659   0.580
 8227WAT      O24922   4.690   7.659   6.261
 8227WAT     H124923   4.703   7.663   6.360
 8227WAT     H224924   4.715   7.747   6.220
 8228WAT      O24925   5.375   3.683   0.103
 8228WAT     H124926   5.363   3.696   0.005
 8228WAT     H224927   5.405   3.589   0.121
 8229WAT      O24928   9.599   1.970   5.001
 8229WAT     H124929   9.659   1.891   4.991
 8229WAT     H224930   9.532   1.971   4.927
 8230WAT      O24931   1.139   9.546   8.674
 8230WAT     H124932   1.190   9.481   8.617
 8230WAT     H224933   1.065   9.498   8.721
 8231WAT      O24934   3.998   9.431   7.402
 8231WAT     H124935   4.042   9.508   7.448
 8231WAT     H224936   4.046   9.411   7.316
 8232WAT      O24937   0.905   8.973   4.998
 8232WAT     H124938   0.963   8.904   4.954
 8232WAT     H224939   0.843   9.013   4.931
 8233WAT      O24940   4.297   7.978   2.655
 8233WAT     H124941   4.245   7.897   2.626
 8233WAT     H224942   4.320   8.034   2.576
 8234WAT      O24943   1.697   6.239   2.390
 8234WAT     H124944   1.619   6.293   2.420
 8234WAT     H224945   1.718   6.261   2.295
 8235WAT      O24946   7.275   9.369   9.038
 8235WAT     H124947   7.359   9.416   9.011
 8235WAT     H224948   7.296   9.297   9.103
 8236WAT      O24949   7.798   7.345   0.451
 8236WAT     H124950   7.805   7.264   0.510
 8236WAT     H224951   7.811   7.428   0.506
 8237WAT      O24952   3.288   0.549   4.638
 8237WAT     H124953   3.359   0.582   4.700
 8237WAT     H224954   3.198   0.570   4.676
 8238WAT      O24955   3.887   4.292   2.056
 8238WAT     H124956   3.858   4.354   2.130
 8238WAT     H224957   3.980   4.261   2.074
 8239WAT      O24958   5.627   5.793   8.735
 8239WAT     H124959   5.659   5.789   8.829
 8239WAT     H224960   5.588   5.884   8.718
 8240WAT      O24961   6.808   8.545   1.591
 8240WAT     H124962   6.836   8.641   1.582
 8240WAT     H224963   6.871   8.487   1.540
 8241WAT      O24964   3.772   3.367   3.842
 8241WAT     H124965   3.812   3.409   3.924
 8241WAT     H224966   3.755   3.438   3.773
 8242WAT      O24967   1.678   3.937   0.350
 8242WAT     H124968   1.637   3.865   0.295
 8242WAT     H224969   1.752   3.981   0.299
 8243WAT      O24970   1.555   9.130   2.425
 8243WAT     H124971   1.482   9.062   2.434
 8243WAT     H224972   1.585   9.159   2.515
 8244WAT      O24973   5.170   8.260   9.822
 8244WAT     H124974   5.098   8.216   9.877
 8244WAT     H224975   5.236   8.191   9.792
 8245WAT      O24976   6.369   0.727   2.612
 8245WAT     H124977   6.363   0.640   2.564
 8245WAT     H224978   6.353   0.802   2.547
 8246WAT      O24979   2.214   7.105   4.470
 8246WAT     H124980   2.297   7.160   4.465
 8246WAT     H224981   2.237   7.014   4.504
 8247WAT      O24982   2.799   0.680   9.124
 8247WAT     H124983   2.708   0.690   9.084
 8247WAT     H224984   2.792   0.680   9.223
 8248WAT      O24985   9.514   6.212   5.919
 8248WAT     H124986   9.613   6.199   5.924
 8248WAT     H224987   9.489   6.294   5.969
 8249WAT      O24988   4.961   0.676   6.987
 8249WAT     H124989   4.968   0.680   7.087
 8249WAT     H224990   4.912   0.757   6.954
 8250WAT      O24991   1.174   7.270   3.242
 8250WAT     H124992   1.213   7.318   3.163
 8250WAT     H224993   1.213   7.307   3.326
 8251WAT      O24994   6.306   2.561   6.301
 8251WAT     H124995   6.253   2.540   6.219
 8251WAT     H224996   6.249   2.549   6.382
 8252WAT      O24997   2.055   8.101   4.825
 8252WAT     H124998   1.981   8.166   4.843
 8252WAT     H224999   2.079   8.053   4.910
 8253WAT      O25000   4.228   6.515   3.700
 8253WAT     H125001   4.190   6.607   3.692
 8253WAT     H225002   4.317   6.520   3.747
 8254WAT      O25003   7.074   3.311   1.258
 8254WAT     H125004   7.130   3.341   1.181
 8254WAT     H225005   7.089   3.213   1.274
 8255WAT      O25006   6.079   3.245   2.035
 8255WAT     H125007   6.165   3.213   2.075
 8255WAT     H225008   6.004   3.187   2.064
 8256WAT      O25009   8.744   4.647   4.804
 8256WAT     H125010   8.802   4.728   4.797
 8256WAT     H225011   8.783   4.584   4.871
 8257WAT      O25012   9.392   9.565   4.532
 8257WAT     H125013   9.393   9.502   4.610
 8257WAT     H225014   9.307   9.618   4.533
 8258WAT      O25015   9.647   3.986   5.950
 8258WAT     H125016   9.618   4.061   6.009
 8258WAT     H225017   9.569   3.954   5.896
 8259WAT      O25018   3.874   1.043   1.449
 8259WAT     H125019   3.925   1.011   1.369
 8259WAT     H225020   3.847   0.964   1.504
 8260WAT      O25021   5.930   1.663   6.756
 8260WAT     H125022   5.880   1.596   6.701
 8260WAT     H225023   5.966   1.735   6.696
 8261WAT      O25024   8.170   2.277   3.384
 8261WAT     H125025   8.252   2.227   3.411
 8261WAT     H225026   8.186   2.375   3.391
 8262WAT      O25027   8.555   3.312   7.201
 8262WAT     H125028   8.650   3.281   7.198
 8262WAT     H225029   8.529   3.352   7.114
 8263WAT      O25030   2.624   3.251   8.627
 8263WAT     H125031   2.683   3.179   8.664
 8263WAT     H225032   2.584   3.220   8.541
 8264WAT      O25033   1.522   8.060   0.402
 8264WAT     H125034   1.449   7.992   0.391
 8264WAT     H225035   1.558   8.057   0.495
 8265WAT      O25036   6.113   5.789   1.918
 8265WAT     H125037   6.084   5.845   1.840
 8265WAT     H225038   6.211   5.772   1.913
 8266WAT      O25039   3.149   2.716   6.663
 8266WAT     H125040   3.161   2.749   6.570
 8266WAT     H225041   3.053   2.690   6.677
 8267WAT      O25042   2.585   5.559   4.954
 8267WAT     H125043   2.522   5.485   4.977
 8267WAT     H225044   2.634   5.589   5.036
 8268WAT      O25045   3.477   9.663   6.895
 8268WAT     H125046   3.529   9.594   6.844
 8268WAT     H225047   3.452   9.738   6.834
 8269WAT      O25048   3.880   1.371   6.585
 8269WAT     H125049   3.839   1.430   6.516
 8269WAT     H225050   3.955   1.318   6.545
 8270WAT      O25051   3.440   9.751   5.006
 8270WAT     H125052   3.379   9.689   4.958
 8270WAT     H225053   3.489   9.808   4.940
 8271WAT      O25054   4.301   7.944   6.738
 8271WAT     H125055   4.228   7.960   6.672
 8271WAT     H225056   4.390   7.958   6.694
 8272WAT      O25057   9.346   0.247   6.217
 8272WAT     H125058   9.311   0.325   6.164
 8272WAT     H225059   9.444   0.261   6.233
 8273WAT      O25060   4.112   3.551   6.611
 8273WAT     H125061   4.057   3.628   6.577
 8273WAT     H225062   4.055   3.492   6.667
 8274WAT      O25063   1.406   2.726   2.655
 8274WAT     H125064   1.445   2.779   2.579
 8274WAT     H225065   1.306   2.731   2.651
 8275WAT      O25066   9.823   5.272   1.335
 8275WAT     H125067   9.819   5.229   1.425
 8275WAT     H225068   9.731   5.296   1.305
 8276WAT      O25069   0.140   4.319   6.776
 8276WAT     H125070   0.212   4.338   6.710
 8276WAT     H225071   0.117   4.221   6.774
 8277WAT      O25072   1.159   5.967   7.109
 8277WAT     H125073   1.090   5.895   7.118
 8277WAT     H225074   1.230   5.937   7.045
 8278WAT      O25075   8.408   1.636   7.640
 8278WAT     H125076   8.498   1.592   7.642
 8278WAT     H225077   8.418   1.729   7.605
 8279WAT      O25078   7.169   5.214   1.290
 8279WAT     H125079   7.171   5.193   1.388
 8279WAT     H225080   7.244   5.278   1.268
 8280WAT      O25081   1.382   7.348   6.098
 8280WAT     H125082   1.363   7.442   6.072
 8280WAT     H225083   1.298   7.294   6.091
 8281WAT      O25084   7.890   6.879   9.771
 8281WAT     H125085   7.937   6.900   9.856
 8281WAT     H225086   7.943   6.812   9.719
 8282WAT      O25087   8.732   4.745   8.694
 8282WAT     H125088   8.758   4.780   8.783
 8282WAT     H225089   8.638   4.711   8.698
 8283WAT      O25090   1.827   5.373   2.879
 8283WAT     H125091   1.805   5.335   2.790
 8283WAT     H225092   1.840   5.472   2.872
 8284WAT      O25093   4.926   7.702   1.326
 8284WAT     H125094   4.926   7.649   1.241
 8284WAT     H225095   4.941   7.799   1.305
 8285WAT      O25096   7.930   5.292   3.192
 8285WAT     H125097   7.931   5.226   3.117
 8285WAT     H225098   7.842   5.339   3.195
 8286WAT      O25099   8.686   6.116   1.662
 8286WAT     H125100   8.717   6.194   1.717
 8286WAT     H225101   8.747   6.106   1.583
 8287WAT      O25102   6.342   4.153   2.123
 8287WAT     H125103   6.401   4.073   2.133
 8287WAT     H225104   6.247   4.124   2.116
 8288WAT      O25105   8.921   1.318   1.505
 8288WAT     H125106   8.865   1.302   1.424
 8288WAT     H225107   8.976   1.237   1.524
 8289WAT      O25108   3.393   3.784   8.506
 8289WAT     H125109   3.320   3.717   8.498
 8289WAT     H225110   3.360   3.874   8.476
 8290WAT      O25111   2.812   7.320   3.670
 8290WAT     H125112   2.887   7.366   3.717
 8290WAT     H225113   2.740   7.299   3.736
 8291WAT      O25114   8.902   4.551   2.372
 8291WAT     H125115   8.966   4.551   2.295
 8291WAT     H225116   8.857   4.462   2.378
 8292WAT      O25117   3.895   5.190   9.602
 8292WAT     H125118   3.814   5.214   9.548
 8292WAT     H225119   3.867   5.128   9.676
 8293WAT      O25120   5.804   2.755   6.964
 8293WAT     H125121   5.903   2.742   6.972
 8293WAT     H225122   5.772   2.812   7.040
 8294WAT      O25123   3.986   9.780   0.149
 8294WAT     H125124   4.072   9.802   0.105
 8294WAT     H225125   3.999   9.776   0.248
 8295WAT      O25126   4.011   2.615   8.994
 8295WAT     H125127   3.957   2.640   9.074
 8295WAT     H225128   4.105   2.647   9.006
 8296WAT      O25129   8.381   4.433   4.175
 8296WAT     H125130   8.329   4.518   4.181
 8296WAT     H225131   8.476   4.449   4.201
 8297WAT      O25132   6.815   4.802   2.022
 8297WAT     H125133   6.806   4.779   2.119
 8297WAT     H225134   6.909   4.829   2.002
 8298WAT      O25135   4.273   8.144   6.355
 8298WAT     H125136   4.366   8.156   6.388
 8298WAT     H225137   4.257   8.048   6.334
 8299WAT      O25138   2.076   3.991   6.210
 8299WAT     H125139   2.159   4.046   6.215
 8299WAT     H225140   2.098   3.900   6.177
 8300WAT      O25141   7.912   8.594   9.291
 8300WAT     H125142   8.001   8.577   9.333
 8300WAT     H225143   7.925   8.607   9.192
 8301WAT      O25144   0.673   4.591   2.660
 8301WAT     H125145   0.682   4.623   2.566
 8301WAT     H225146   0.730   4.647   2.720
 8302WAT      O25147   6.705   7.046   9.658
 8302WAT     H125148   6.785   7.012   9.707
 8302WAT     H225149   6.729   7.061   9.562
 8303WAT      O25150   8.294   8.434   3.814
 8303WAT     H125151   8.385   8.472   3.833
 8303WAT     H225152   8.283   8.420   3.716
 8304WAT      O25153   5.485   3.408   7.430
 8304WAT     H125154   5.503   3.380   7.336
 8304WAT     H225155   5.485   3.508   7.436
 8305WAT      O25156   4.145   6.556   5.220
 8305WAT     H125157   4.208   6.524   5.149
 8305WAT     H225158   4.195   6.564   5.307
 8306WAT      O25159   2.241   6.879   4.705
 8306WAT     H125160   2.238   6.801   4.768
 8306WAT     H225161   2.276   6.848   4.616
 8307WAT      O25162   1.054   8.760   1.930
 8307WAT     H125163   1.011   8.827   1.870
 8307WAT     H225164   1.029   8.781   2.025
 8308WAT      O25165   1.952   5.789   8.813
 8308WAT     H125166   1.897   5.749   8.886
 8308WAT     H225167   1.955   5.727   8.735
 8309WAT      O25168   2.945   4.214   7.216
 8309WAT     H125169   2.888   4.237   7.136
 8309WAT     H225170   2.911   4.130   7.257
 8310WAT      O25171   0.168   2.506   6.474
 8310WAT     H125172   0.108   2.457   6.537
 8310WAT     H225173   0.171   2.603   6.499
 8311WAT      O25174   3.466   3.614   2.932
 8311WAT     H125175   3.369   3.591   2.941
 8311WAT     H225176   3.518   3.569   3.005
 8312WAT      O25177   3.568   8.955   0.260
 8312WAT     H125178   3.650   8.940   0.315
 8312WAT     H225179   3.540   9.050   0.266
 8313WAT      O25180   1.354   0.510   7.456
 8313WAT     H125181   1.352   0.537   7.552
 8313WAT     H225182   1.377   0.413   7.448
 8314WAT      O25183   6.212   3.709   7.059
 8314WAT     H125184   6.294   3.746   7.014
 8314WAT     H225185   6.131   3.757   7.024
 8315WAT      O25186   6.343   6.510   9.149
 8315WAT     H125187   6.428   6.551   9.184
 8315WAT     H225188   6.359   6.415   9.124
 8316WAT      O25189   2.078   2.710   0.207
 8316WAT     H125190   2.148   2.770   0.246
 8316WAT     H225191   2.094   2.617   0.238
 8317WAT      O25192   3.087   9.627   1.514
 8317WAT     H125193   3.077   9.684   1.432
 8317WAT     H225194   3.147   9.550   1.494
 8318WAT      O25195   2.001   5.843   1.707
 8318WAT     H125196   1.972   5.939   1.704
 8318WAT     H225197   2.101   5.838   1.705
 8319WAT      O25198   8.682   0.613   2.957
 8319WAT     H125199   8.731   0.587   3.040
 8319WAT     H225200   8.605   0.672   2.981
 8320WAT      O25201   1.875   8.441   6.902
 8320WAT     H125202   1.867   8.374   6.976
 8320WAT     H225203   1.816   8.414   6.826
 8321WAT      O25204   9.827   6.524   7.295
 8321WAT     H125205   9.738   6.503   7.336
 8321WAT     H225206   9.894   6.540   7.367
 8322WAT      O25207   7.240   1.830   8.638
 8322WAT     H125208   7.250   1.872   8.548
 8322WAT     H225209   7.297   1.748   8.643
 8323WAT      O25210   9.392   9.585   5.762
 8323WAT     H125211   9.300   9.551   5.777
 8323WAT     H225212   9.418   9.647   5.836
 8324WAT      O25213   5.241   1.876   1.154
 8324WAT     H125214   5.228   1.975   1.155
 8324WAT     H225215   5.261   1.844   1.247
 8325WAT      O25216   3.687   7.293   0.457
 8325WAT     H125217   3.597   7.321   0.491
 8325WAT     H225218   3.755   7.306   0.529
 8326WAT      O25219   4.286   0.364   4.586
 8326WAT     H125220   4.370   0.363   4.640
 8326WAT     H225221   4.307   0.341   4.491
 8327WAT      O25222   3.411   9.623   9.777
 8327WAT     H125223   3.462   9.699   9.738
 8327WAT     H225224   3.336   9.598   9.715
 8328WAT      O25225   8.043   4.310   7.622
 8328WAT     H125226   8.000   4.220   7.617
 8328WAT     H225227   8.103   4.323   7.542
 8329WAT      O25228   1.411   1.134   2.677
 8329WAT     H125229   1.422   1.073   2.598
 8329WAT     H225230   1.405   1.080   2.761
 8330WAT      O25231   9.219   0.849   0.967
 8330WAT     H125232   9.312   0.816   0.956
 8330WAT     H225233   9.173   0.798   1.040
 8331WAT      O25234   7.443   6.057   5.783
 8331WAT     H125235   7.455   5.970   5.735
 8331WAT     H225236   7.443   6.042   5.881
 8332WAT      O25237   1.502   6.803   4.702
 8332WAT     H125238   1.461   6.845   4.620
 8332WAT     H225239   1.601   6.815   4.699
 8333WAT      O25240   7.264   7.852   2.451
 8333WAT     H125241   7.341   7.817   2.397
 8333WAT     H225242   7.179   7.813   2.417
 8334WAT      O25243   4.333   3.776   8.975
 8334WAT     H125244   4.276   3.742   9.050
 8334WAT     H225245   4.400   3.706   8.950
 8335WAT      O25246   7.065   4.187   4.500
 8335WAT     H125247   6.991   4.125   4.476
 8335WAT     H225248   7.059   4.271   4.445
 8336WAT      O25249   1.231   7.485   8.618
 8336WAT     H125250   1.294   7.563   8.618
 8336WAT     H225251   1.180   7.483   8.704
 8337WAT      O25252   4.792   0.198   7.614
 8337WAT     H125253   4.823   0.137   7.541
 8337WAT     H225254   4.743   0.275   7.574
 8338WAT      O25255   6.429   0.689   4.285
 8338WAT     H125256   6.398   0.690   4.190
 8338WAT     H225257   6.515   0.639   4.291
 8339WAT      O25258   2.089   3.864   4.613
 8339WAT     H125259   2.134   3.780   4.641
 8339WAT     H225260   2.116   3.939   4.673
 8340WAT      O25261   0.199   5.538   6.844
 8340WAT     H125262   0.101   5.559   6.848
 8340WAT     H225263   0.250   5.621   6.823
 8341WAT      O25264   6.295   4.593   8.966
 8341WAT     H125265   6.359   4.648   8.912
 8341WAT     H225266   6.250   4.525   8.907
 8342WAT      O25267   1.502   7.192   7.105
 8342WAT     H125268   1.441   7.260   7.146
 8342WAT     H225269   1.580   7.176   7.165
 8343WAT      O25270   9.298   4.544   3.483
 8343WAT     H125271   9.357   4.490   3.423
 8343WAT     H225272   9.352   4.618   3.524
 8344WAT      O25273   2.076   4.665   5.722
 8344WAT     H125274   2.069   4.585   5.662
 8344WAT     H225275   2.145   4.648   5.793
 8345WAT      O25276   7.820   3.647   3.017
 8345WAT     H125277   7.766   3.660   3.100
 8345WAT     H225278   7.917   3.649   3.040
 8346WAT      O25279   5.951   1.998   0.433
 8346WAT     H125280   5.992   2.057   0.363
 8346WAT     H225281   5.975   1.903   0.415
 8347WAT      O25282   6.307   5.081   4.131
 8347WAT     H125283   6.247   5.008   4.164
 8347WAT     H225284   6.305   5.157   4.196
 8348WAT      O25285   0.950   4.266   8.127
 8348WAT     H125286   0.944   4.202   8.051
 8348WAT     H225287   0.858   4.297   8.153
 8349WAT      O25288   9.611   5.998   4.353
 8349WAT     H125289   9.594   6.020   4.449
 8349WAT     H225290   9.681   6.059   4.317
 8350WAT      O25291   9.258   5.255   9.478
 8350WAT     H125292   9.284   5.159   9.475
 8350WAT     H225293   9.337   5.311   9.454
 8351WAT      O25294   1.301   0.158   1.753
 8351WAT     H125295   1.344   0.149   1.843
 8351WAT     H225296   1.266   0.251   1.741
 8352WAT      O25297   9.132   5.879   8.769
 8352WAT     H125298   9.044   5.870   8.815
 8352WAT     H225299   9.117   5.910   8.675
 8353WAT      O25300   8.728   0.479   0.618
 8353WAT     H125301   8.692   0.532   0.541
 8353WAT     H225302   8.758   0.542   0.690
 8354WAT      O25303   7.611   6.878   2.405
 8354WAT     H125304   7.617   6.931   2.490
 8354WAT     H225305   7.624   6.781   2.426
 8355WAT      O25306   9.872   2.330   3.035
 8355WAT     H125307   9.815   2.248   3.030
 8355WAT     H225308   9.825   2.406   2.989
 8356WAT      O25309   6.934   7.810   8.400
 8356WAT     H125310   6.876   7.774   8.474
 8356WAT     H225311   6.880   7.872   8.344
 8357WAT      O25312   0.508   9.264   3.500
 8357WAT     H125313   0.588   9.210   3.523
 8357WAT     H225314   0.495   9.336   3.568
 8358WAT      O25315   8.052   1.809   7.546
 8358WAT     H125316   8.017   1.807   7.452
 8358WAT     H225317   8.025   1.725   7.594
 8359WAT      O25318   0.866   0.220   7.165
 8359WAT     H125319   0.956   0.177   7.160
 8359WAT     H225320   0.865   0.288   7.238
 8360WAT      O25321   9.831   3.881   9.742
 8360WAT     H125322   9.751   3.886   9.683
 8360WAT     H225323   9.841   3.967   9.792
 8361WAT      O25324   4.432   7.849   3.411
 8361WAT     H125325   4.464   7.938   3.380
 8361WAT     H225326   4.431   7.785   3.334
 8362WAT      O25327   8.081   4.426   4.437
 8362WAT     H125328   8.077   4.370   4.520
 8362WAT     H225329   8.123   4.514   4.457
 8363WAT      O25330   4.146   3.404   4.076
 8363WAT     H125331   4.192   3.493   4.078
 8363WAT     H225332   4.135   3.374   3.981
 8364WAT      O25333   9.529   4.150   0.884
 8364WAT     H125334   9.494   4.081   0.822
 8364WAT     H225335   9.629   4.145   0.886
 8365WAT      O25336   0.064   0.063   9.886
 8365WAT     H125337   0.005  -0.017   9.875
 8365WAT     H225338   0.134   0.062   9.815
 8366WAT      O25339   7.353   1.218   0.909
 8366WAT     H125340   7.291   1.158   0.960
 8366WAT     H225341   7.299   1.284   0.857
 8367WAT      O25342   9.768   7.192   9.740
 8367WAT     H125343   9.761   7.109   9.685
 8367WAT     H225344   9.676   7.229   9.757
 8368WAT      O25345   0.538   8.710   0.474
 8368WAT     H125346   0.443   8.693   0.446
 8368WAT     H225347   0.597   8.638   0.439
 8369WAT      O25348   5.686   7.723   5.246
 8369WAT     H125349   5.709   7.792   5.177
 8369WAT     H225350   5.614   7.757   5.306
 8370WAT      O25351   1.963   0.452   7.358
 8370WAT     H125352   2.050   0.491   7.328
 8370WAT     H225353   1.922   0.512   7.427
 8371WAT      O25354   4.076   0.235   6.852
 8371WAT     H125355   4.091   0.140   6.824
 8371WAT     H225356   4.165   0.281   6.862
 8372WAT      O25357   3.617   1.369   7.419
 8372WAT     H125358   3.676   1.396   7.495
 8372WAT     H225359   3.526   1.409   7.431
 8373WAT      O25360   4.841   1.327   3.495
 8373WAT     H125361   4.869   1.231   3.486
 8373WAT     H225362   4.743   1.331   3.514
 8374WAT      O25363   9.297   8.260   2.958
 8374WAT     H125364   9.328   8.205   3.036
 8374WAT     H225365   9.300   8.205   2.875
 8375WAT      O25366   5.649   7.151   9.165
 8375WAT     H125367   5.599   7.075   9.207
 8375WAT     H225368   5.585   7.227   9.148
 8376WAT      O25369   4.835   7.848   3.605
 8376WAT     H125370   4.763   7.837   3.673
 8376WAT     H225371   4.887   7.763   3.596
 8377WAT      O25372   0.140   8.418   0.399
 8377WAT     H125373   0.173   8.503   0.357
 8377WAT     H225374   0.121   8.351   0.327
 8378WAT      O25375   6.102   5.962   2.418
 8378WAT     H125376   6.071   6.004   2.503
 8378WAT     H225377   6.190   5.918   2.433
 8379WAT      O25378   8.215   6.986   6.246
 8379WAT     H125379   8.179   6.996   6.153
 8379WAT     H225380   8.224   6.889   6.268
 8380WAT      O25381   2.994   1.071   4.698
 8380WAT     H125382   2.923   1.140   4.685
 8380WAT     H225383   2.958   0.981   4.674
 8381WAT      O25384   5.291   4.643   1.208
 8381WAT     H125385   5.374   4.589   1.223
 8381WAT     H225386   5.315   4.737   1.187
 8382WAT      O25387   1.801   2.605   2.078
 8382WAT     H125388   1.878   2.606   2.014
 8382WAT     H225389   1.832   2.640   2.167
 8383WAT      O25390   7.627   9.283   8.728
 8383WAT     H125391   7.624   9.338   8.645
 8383WAT     H225392   7.625   9.186   8.704
 8384WAT      O25393   1.797   1.253   1.601
 8384WAT     H125394   1.852   1.330   1.566
 8384WAT     H225395   1.810   1.174   1.541
 8385WAT      O25396   5.937   9.486   8.423
 8385WAT     H125397   5.899   9.457   8.335
 8385WAT     H225398   5.869   9.540   8.473
 8386WAT      O25399   6.376   9.579   6.705
 8386WAT     H125400   6.442   9.512   6.670
 8386WAT     H225401   6.322   9.537   6.777
 8387WAT      O25402   4.496   6.876   5.222
 8387WAT     H125403   4.490   6.780   5.193
 8387WAT     H225404   4.477   6.936   5.144
 8388WAT      O25405   0.741   6.878   4.782
 8388WAT     H125406   0.807   6.892   4.708
 8388WAT     H225407   0.775   6.921   4.866
 8389WAT      O25408   5.890   3.524   5.174
 8389WAT     H125409   5.853   3.478   5.093
 8389WAT     H225410   5.981   3.559   5.154
 8390WAT      O25411   2.613   8.983   3.882
 8390WAT     H125412   2.645   9.043   3.955
 8390WAT     H225413   2.647   8.891   3.898
 8391WAT      O25414   5.308   3.396   5.399
 8391WAT     H125415   5.334   3.436   5.487
 8391WAT     H225416   5.243   3.457   5.353
 8392WAT      O25417   6.479   5.199   6.510
 8392WAT     H125418   6.526   5.216   6.596
 8392WAT     H225419   6.385   5.170   6.529
 8393WAT      O25420   1.949   8.983   4.283
 8393WAT     H125421   2.002   9.045   4.341
 8393WAT     H225422   1.964   9.005   4.187
 8394WAT      O25423   6.400   4.824   2.684
 8394WAT     H125424   6.345   4.879   2.747
 8394WAT     H225425   6.494   4.861   2.682
 8395WAT      O25426   8.234   8.423   7.645
 8395WAT     H125427   8.175   8.481   7.702
 8395WAT     H225428   8.210   8.436   7.549
 8396WAT      O25429   2.492   6.971   1.360
 8396WAT     H125430   2.462   7.001   1.269
 8396WAT     H225431   2.478   7.044   1.426
 8397WAT      O25432   0.963   7.498   7.891
 8397WAT     H125433   0.918   7.422   7.939
 8397WAT     H225434   0.906   7.579   7.897
 8398WAT      O25435   8.497   0.676   0.866
 8398WAT     H125436   8.548   0.599   0.828
 8398WAT     H225437   8.561   0.746   0.897
 8399WAT      O25438   6.026   6.573   1.139
 8399WAT     H125439   6.059   6.560   1.045
 8399WAT     H225440   5.957   6.503   1.160
 8400WAT      O25441   0.638   8.542   0.919
 8400WAT     H125442   0.619   8.552   1.017
 8400WAT     H225443   0.722   8.490   0.906
 8401WAT      O25444   9.290   3.810   7.377
 8401WAT     H125445   9.204   3.845   7.414
 8401WAT     H225446   9.276   3.779   7.283
 8402WAT      O25447   7.837   9.659   2.862
 8402WAT     H125448   7.799   9.746   2.832
 8402WAT     H225449   7.823   9.649   2.961
 8403WAT      O25450   9.386   7.134   8.641
 8403WAT     H125451   9.412   7.062   8.706
 8403WAT     H225452   9.291   7.161   8.657
 8404WAT      O25453   2.437   5.655   4.197
 8404WAT     H125454   2.427   5.637   4.295
 8404WAT     H225455   2.402   5.746   4.176
 8405WAT      O25456   5.705   7.264   1.511
 8405WAT     H125457   5.752   7.302   1.432
 8405WAT     H225458   5.644   7.190   1.481
 8406WAT      O25459   4.750   0.651   5.172
 8406WAT     H125460   4.670   0.591   5.162
 8406WAT     H225461   4.779   0.683   5.082
 8407WAT      O25462   1.448   6.363   2.433
 8407WAT     H125463   1.465   6.462   2.442
 8407WAT     H225464   1.387   6.334   2.506
 8408WAT      O25465   8.269   8.286   8.803
 8408WAT     H125466   8.344   8.262   8.742
 8408WAT     H225467   8.240   8.205   8.855
 8409WAT      O25468   0.541   2.432   5.780
 8409WAT     H125469   0.577   2.521   5.753
 8409WAT     H225470   0.476   2.444   5.856
 8410WAT      O25471   6.436   3.164   8.637
 8410WAT     H125472   6.531   3.191   8.619
 8410WAT     H225473   6.398   3.122   8.555
 8411WAT      O25474   5.394   7.899   2.965
 8411WAT     H125475   5.488   7.904   2.931
 8411WAT     H225476   5.375   7.807   2.999
 8412WAT      O25477   8.930   2.017   9.048
 8412WAT     H125478   8.951   2.033   9.144
 8412WAT     H225479   8.859   1.947   9.040
 8413WAT      O25480   9.037   5.684   9.435
 8413WAT     H125481   8.984   5.735   9.502
 8413WAT     H225482   9.029   5.586   9.455
 8414WAT      O25483   5.058   0.029   1.472
 8414WAT     H125484   5.097   0.053   1.561
 8414WAT     H225485   4.967   0.069   1.463
 8415WAT      O25486   4.057   6.099   6.754
 8415WAT     H125487   4.000   6.143   6.824
 8415WAT     H225488   4.005   6.025   6.711
 8416WAT      O25489   2.025   1.512   7.856
 8416WAT     H125490   2.087   1.475   7.926
 8416WAT     H225491   1.931   1.482   7.875
 8417WAT      O25492   0.803   7.132   0.612
 8417WAT     H125493   0.809   7.065   0.537
 8417WAT     H225494   0.799   7.224   0.574
 8418WAT      O25495   1.764   4.598   5.504
 8418WAT     H125496   1.842   4.604   5.441
 8418WAT     H225497   1.723   4.688   5.515
 8419WAT      O25498   9.654   8.780   4.507
 8419WAT     H125499   9.753   8.786   4.521
 8419WAT     H225500   9.607   8.815   4.587
 8420WAT      O25501   0.627   8.649   1.771
 8420WAT     H125502   0.688   8.631   1.695
 8420WAT     H225503   0.593   8.743   1.765
 8421WAT      O25504   7.878   9.556   6.201
 8421WAT     H125505   7.796   9.557   6.259
 8421WAT     H225506   7.885   9.467   6.156
 8422WAT      O25507   7.158   4.810   2.233
 8422WAT     H125508   7.111   4.799   2.146
 8422WAT     H225509   7.257   4.815   2.218
 8423WAT      O25510   0.812   7.818   9.822
 8423WAT     H125511   0.910   7.799   9.819
 8423WAT     H225512   0.762   7.741   9.785
 8424WAT      O25513   5.908   2.778   8.025
 8424WAT     H125514   5.883   2.711   8.095
 8424WAT     H225515   5.874   2.868   8.052
 8425WAT      O25516   9.408   2.478   0.306
 8425WAT     H125517   9.320   2.446   0.271
 8425WAT     H225518   9.432   2.427   0.389
 8426WAT      O25519   2.737   2.664   8.940
 8426WAT     H125520   2.644   2.700   8.933
 8426WAT     H225521   2.786   2.684   8.856
 8427WAT      O25522   1.391   1.397   9.413
 8427WAT     H125523   1.357   1.439   9.329
 8427WAT     H225524   1.343   1.434   9.492
 8428WAT      O25525   0.052   3.634   5.527
 8428WAT     H125526   0.052   3.708   5.459
 8428WAT     H225527   0.110   3.660   5.604
 8429WAT      O25528   5.249   8.830   6.863
 8429WAT     H125529   5.316   8.767   6.823
 8429WAT     H225530   5.224   8.798   6.954
 8430WAT      O25531   0.367   6.665   7.994
 8430WAT     H125532   0.352   6.581   8.047
 8430WAT     H225533   0.377   6.642   7.898
 8431WAT      O25534   1.501   8.403   6.415
 8431WAT     H125535   1.462   8.378   6.504
 8431WAT     H225536   1.505   8.502   6.407
 8432WAT      O25537   5.129   5.551   8.743
 8432WAT     H125538   5.214   5.601   8.761
 8432WAT     H225539   5.151   5.460   8.709
 8433WAT      O25540   7.140   6.963   6.917
 8433WAT     H125541   7.124   7.057   6.889
 8433WAT     H225542   7.214   6.961   6.985
 8434WAT      O25543   3.012   9.330   9.631
 8434WAT     H125544   2.951   9.379   9.569
 8434WAT     H225545   2.975   9.333   9.724
 8435WAT      O25546   4.697   0.272   3.327
 8435WAT     H125547   4.648   0.279   3.240
 8435WAT     H225548   4.691   0.178   3.360
 8436WAT      O25549   5.867   9.347   6.721
 8436WAT     H125550   5.919   9.312   6.643
 8436WAT     H225551   5.770   9.351   6.697
 8437WAT      O25552   7.745   8.292   8.319
 8437WAT     H125553   7.730   8.299   8.221
 8437WAT     H225554   7.686   8.221   8.357
 8438WAT      O25555   7.792   4.341   1.332
 8438WAT     H125556   7.772   4.248   1.301
 8438WAT     H225557   7.845   4.389   1.262
 8439WAT      O25558   0.308   5.733   0.628
 8439WAT     H125559   0.266   5.793   0.696
 8439WAT     H225560   0.407   5.729   0.643
 8440WAT      O25561   8.345   1.812   6.622
 8440WAT     H125562   8.364   1.720   6.590
 8440WAT     H225563   8.431   1.857   6.647
 8441WAT      O25564   8.830   4.374   8.539
 8441WAT     H125565   8.887   4.444   8.496
 8441WAT     H225566   8.747   4.361   8.485
 8442WAT      O25567   0.522   2.531   1.359
 8442WAT     H125568   0.464   2.476   1.419
 8442WAT     H225569   0.464   2.578   1.291
 8443WAT      O25570   3.528   8.657   4.082
 8443WAT     H125571   3.597   8.729   4.090
 8443WAT     H225572   3.566   8.580   4.031
 8444WAT      O25573   3.492   3.221   1.418
 8444WAT     H125574   3.491   3.195   1.514
 8444WAT     H225575   3.419   3.287   1.400
 8445WAT      O25576   3.805   1.845   9.513
 8445WAT     H125577   3.873   1.786   9.468
 8445WAT     H225578   3.763   1.794   9.589
 8446WAT      O25579   5.946   1.510   1.094
 8446WAT     H125580   5.891   1.498   1.177
 8446WAT     H225581   5.906   1.455   1.020
 8447WAT      O25582   4.246   2.514   1.586
 8447WAT     H125583   4.286   2.545   1.672
 8447WAT     H225584   4.269   2.578   1.513
 8448WAT      O25585   4.763   8.137   7.794
 8448WAT     H125586   4.776   8.152   7.892
 8448WAT     H225587   4.677   8.177   7.765
 8449WAT      O25588   1.218   4.354   4.484
 8449WAT     H125589   1.303   4.390   4.447
 8449WAT     H225590   1.185   4.280   4.426
 8450WAT      O25591   0.391   6.683   9.619
 8450WAT     H125592   0.393   6.646   9.526
 8450WAT     H225593   0.342   6.621   9.679
 8451WAT      O25594   4.340   3.093   1.588
 8451WAT     H125595   4.251   3.123   1.623
 8451WAT     H225596   4.364   3.149   1.508
 8452WAT      O25597   9.790   8.659   7.422
 8452WAT     H125598   9.789   8.576   7.478
 8452WAT     H225599   9.861   8.721   7.454
 8453WAT      O25600   3.216   1.455   7.739
 8453WAT     H125601   3.125   1.478   7.703
 8453WAT     H225602   3.216   1.362   7.776
 8454WAT      O25603   5.661   3.703   7.964
 8454WAT     H125604   5.588   3.635   7.958
 8454WAT     H225605   5.623   3.791   7.990
 8455WAT      O25606   0.372   7.691   0.599
 8455WAT     H125607   0.413   7.602   0.619
 8455WAT     H225608   0.288   7.701   0.653
 8456WAT      O25609   0.061   8.903   9.020
 8456WAT     H125610   0.092   8.914   8.925
 8456WAT     H225611   0.141   8.901   9.080
 8457WAT      O25612   3.005   4.366   9.339
 8457WAT     H125613   3.055   4.291   9.296
 8457WAT     H225614   3.016   4.362   9.438
 8458WAT      O25615   7.952   8.143   9.524
 8458WAT     H125616   7.860   8.157   9.489
 8458WAT     H225617   7.953   8.159   9.623
 8459WAT      O25618   5.645   0.633   5.178
 8459WAT     H125619   5.660   0.672   5.087
 8459WAT     H225620   5.557   0.586   5.179
 8460WAT      O25621   9.655   5.494   0.182
 8460WAT     H125622   9.734   5.498   0.243
 8460WAT     H225623   9.573   5.469   0.234
 8461WAT      O25624   8.770   3.424   0.191
 8461WAT     H125625   8.684   3.441   0.144
 8461WAT     H225626   8.792   3.326   0.188
 8462WAT      O25627   6.176   1.541   6.850
 8462WAT     H125628   6.226   1.615   6.805
 8462WAT     H225629   6.080   1.566   6.859
 8463WAT      O25630   0.838   1.165   1.011
 8463WAT     H125631   0.845   1.085   0.951
 8463WAT     H225632   0.929   1.200   1.032
 8464WAT      O25633   3.300   9.201   3.122
 8464WAT     H125634   3.253   9.196   3.211
 8464WAT     H225635   3.250   9.147   3.055
 8465WAT      O25636   4.987   6.102   7.083
 8465WAT     H125637   4.927   6.152   7.144
 8465WAT     H225638   4.984   6.004   7.105
 8466WAT      O25639   0.212   9.666   6.272
 8466WAT     H125640   0.218   9.626   6.180
 8466WAT     H225641   0.292   9.637   6.325
 8467WAT      O25642   6.969   7.197   0.985
 8467WAT     H125643   7.066   7.207   0.961
 8467WAT     H225644   6.958   7.121   1.049
 8468WAT      O25645   0.985   8.888   4.530
 8468WAT     H125646   1.024   8.917   4.442
 8468WAT     H225647   1.034   8.807   4.562
 8469WAT      O25648   9.328   5.143   3.172
 8469WAT     H125649   9.278   5.150   3.086
 8469WAT     H225650   9.328   5.231   3.219
 8470WAT      O25651   8.507   9.791   4.055
 8470WAT     H125652   8.486   9.772   4.151
 8470WAT     H225653   8.436   9.752   3.996
 8471WAT      O25654   3.831   4.567   8.241
 8471WAT     H125655   3.814   4.652   8.291
 8471WAT     H225656   3.926   4.565   8.208
 8472WAT      O25657   9.870   1.732   6.290
 8472WAT     H125658   9.882   1.757   6.386
 8472WAT     H225659   9.875   1.814   6.233
 8473WAT      O25660   7.291   7.383   9.010
 8473WAT     H125661   7.341   7.317   8.954
 8473WAT     H225662   7.274   7.345   9.101
 8474WAT      O25663   1.972   3.294   1.325
 8474WAT     H125664   2.012   3.240   1.399
 8474WAT     H225665   1.932   3.233   1.257
 8475WAT      O25666   1.620   7.138   4.645
 8475WAT     H125667   1.657   7.231   4.639
 8475WAT     H225668   1.579   7.124   4.735
 8476WAT      O25669   4.357   6.016   5.367
 8476WAT     H125670   4.308   6.023   5.453
 8476WAT     H225671   4.318   5.941   5.312
 8477WAT      O25672   9.491   0.173   2.949
 8477WAT     H125673   9.477   0.100   2.883
 8477WAT     H225674   9.457   0.259   2.911
 8478WAT      O25675   7.101   4.280   2.904
 8478WAT     H125676   7.059   4.342   2.971
 8478WAT     H225677   7.032   4.248   2.840
 8479WAT      O25678   2.836   8.083   9.246
 8479WAT     H125679   2.891   8.109   9.168
 8479WAT     H225680   2.786   8.162   9.281
 8480WAT      O25681   9.492   3.510   5.427
 8480WAT     H125682   9.591   3.515   5.441
 8480WAT     H225683   9.446   3.552   5.505
 8481WAT      O25684   7.792   8.062   3.981
 8481WAT     H125685   7.697   8.086   4.000
 8481WAT     H225686   7.798   7.966   3.954
 8482WAT      O25687   2.418   0.969   4.440
 8482WAT     H125688   2.507   1.014   4.432
 8482WAT     H225689   2.346   1.034   4.415
 8483WAT      O25690   5.842   8.917   3.930
 8483WAT     H125691   5.773   8.889   3.862
 8483WAT     H225692   5.910   8.845   3.940
 8484WAT      O25693   7.563   5.058   7.421
 8484WAT     H125694   7.464   5.060   7.432
 8484WAT     H225695   7.604   5.131   7.476
 8485WAT      O25696   1.094   1.141   1.888
 8485WAT     H125697   1.108   1.191   1.803
 8485WAT     H225698   1.156   1.175   1.958
 8486WAT      O25699   8.491   5.360   2.526
 8486WAT     H125700   8.553   5.429   2.564
 8486WAT     H225701   8.478   5.378   2.428
 8487WAT      O25702   7.581   8.017   3.499
 8487WAT     H125703   7.617   8.109   3.487
 8487WAT     H225704   7.588   7.990   3.595
 8488WAT      O25705   7.583   6.253   5.648
 8488WAT     H125706   7.503   6.198   5.671
 8488WAT     H225707   7.591   6.330   5.711
 8489WAT      O25708   9.784   0.411   7.998
 8489WAT     H125709   9.812   0.321   7.964
 8489WAT     H225710   9.825   0.426   8.088
 8490WAT      O25711   1.386   6.147   3.591
 8490WAT     H125712   1.471   6.104   3.561
 8490WAT     H225713   1.309   6.109   3.538
 8491WAT      O25714   0.548   6.995   9.076
 8491WAT     H125715   0.509   6.939   9.003
 8491WAT     H225716   0.636   7.031   9.045
 8492WAT      O25717   3.518   2.551   3.915
 8492WAT     H125718   3.529   2.636   3.965
 8492WAT     H225719   3.455   2.490   3.963
 8493WAT      O25720   6.754   6.196   6.378
 8493WAT     H125721   6.702   6.229   6.300
 8493WAT     H225722   6.692   6.164   6.449
 8494WAT      O25723   2.803   2.085   6.938
 8494WAT     H125724   2.872   2.110   6.870
 8494WAT     H225725   2.783   2.164   6.996
 8495WAT      O25726   1.721   8.717   1.472
 8495WAT     H125727   1.659   8.688   1.545
 8495WAT     H225728   1.765   8.637   1.431
 8496WAT      O25729   5.753   0.567   5.702
 8496WAT     H125730   5.805   0.508   5.764
 8496WAT     H225731   5.769   0.663   5.726
 8497WAT      O25732   9.760   6.630   7.049
 8497WAT     H125733   9.772   6.593   7.141
 8497WAT     H225734   9.664   6.623   7.022
 8498WAT      O25735   7.468   6.476   2.733
 8498WAT     H125736   7.462   6.516   2.642
 8498WAT     H225737   7.382   6.431   2.756
 8499WAT      O25738   1.586   9.375   8.598
 8499WAT     H125739   1.577   9.474   8.589
 8499WAT     H225740   1.496   9.334   8.612
 8500WAT      O25741   5.121   9.188   0.703
 8500WAT     H125742   5.086   9.281   0.692
 8500WAT     H225743   5.205   9.177   0.649
 8501WAT      O25744   6.111   8.416   2.240
 8501WAT     H125745   6.114   8.347   2.168
 8501WAT     H225746   6.204   8.438   2.269
 8502WAT      O25747   8.886   2.443   1.397
 8502WAT     H125748   8.888   2.522   1.336
 8502WAT     H225749   8.930   2.365   1.352
 8503WAT      O25750   0.280   8.007   7.687
 8503WAT     H125751   0.194   7.959   7.669
 8503WAT     H225752   0.316   7.981   7.776
 8504WAT      O25753   4.388   7.531   6.675
 8504WAT     H125754   4.367   7.452   6.618
 8504WAT     H225755   4.375   7.507   6.771
 8505WAT      O25756   1.454   4.365   2.365
 8505WAT     H125757   1.468   4.267   2.378
 8505WAT     H225758   1.392   4.399   2.435
 8506WAT      O25759   7.315   6.966   7.139
 8506WAT     H125760   7.397   6.914   7.118
 8506WAT     H225761   7.262   6.918   7.209
 8507WAT      O25762   5.900   2.584   8.210
 8507WAT     H125763   5.908   2.623   8.303
 8507WAT     H225764   5.816   2.531   8.204
 8508WAT      O25765   2.645   1.751   4.366
 8508WAT     H125766   2.624   1.722   4.459
 8508WAT     H225767   2.743   1.769   4.358
 8509WAT      O25768   3.262   8.809   7.768
 8509WAT     H125769   3.199   8.793   7.844
 8509WAT     H225770   3.338   8.744   7.773
 8510WAT      O25771   8.587   0.219   0.603
 8510WAT     H125772   8.512   0.241   0.664
 8510WAT     H225773   8.650   0.296   0.598
 8511WAT      O25774   3.902   3.878   9.823
 8511WAT     H125775   3.990   3.926   9.819
 8511WAT     H225776   3.917   3.784   9.854
 8512WAT      O25777   0.990   8.117   7.985
 8512WAT     H125778   1.045   8.137   7.904
 8512WAT     H225779   0.993   8.195   8.048
 8513WAT      O25780   9.023   7.540   0.239
 8513WAT     H125781   8.979   7.571   0.323
 8513WAT     H225782   9.100   7.601   0.218
 8514WAT      O25783   2.065   1.841   9.154
 8514WAT     H125784   2.017   1.791   9.225
 8514WAT     H225785   2.152   1.875   9.189
 8515WAT      O25786   8.165   9.046   2.642
 8515WAT     H125787   8.236   9.111   2.670
 8515WAT     H225788   8.145   8.983   2.717
 8516WAT      O25789   3.849   5.710   5.857
 8516WAT     H125790   3.789   5.790   5.858
 8516WAT     H225791   3.944   5.738   5.867
 8517WAT      O25792   7.636   5.341   5.767
 8517WAT     H125793   7.559   5.283   5.796
 8517WAT     H225794   7.602   5.417   5.712
 8518WAT      O25795   0.154   5.672   4.175
 8518WAT     H125796   0.070   5.706   4.215
 8518WAT     H225797   0.133   5.594   4.115
 8519WAT      O25798   4.588   9.172   1.181
 8519WAT     H125799   4.670   9.227   1.165
 8519WAT     H225800   4.600   9.082   1.138
 8520WAT      O25801   0.340   7.673   4.326
 8520WAT     H125802   0.428   7.656   4.280
 8520WAT     H225803   0.341   7.627   4.415
 8521WAT      O25804   0.183   4.051   7.314
 8521WAT     H125805   0.282   4.068   7.314
 8521WAT     H225806   0.152   4.034   7.220
 8522WAT      O25807   6.396   7.400   9.596
 8522WAT     H125808   6.405   7.464   9.672
 8522WAT     H225809   6.379   7.308   9.630
 8523WAT      O25810   2.311   8.649   6.670
 8523WAT     H125811   2.308   8.629   6.572
 8523WAT     H225812   2.222   8.629   6.711
 8524WAT      O25813   8.751   5.047   8.320
 8524WAT     H125814   8.790   5.137   8.342
 8524WAT     H225815   8.810   5.001   8.254
 8525WAT      O25816   1.341   7.883   4.408
 8525WAT     H125817   1.396   7.947   4.462
 8525WAT     H225818   1.284   7.829   4.469
 8526WAT      O25819   1.517   3.064   5.332
 8526WAT     H125820   1.575   3.002   5.279
 8526WAT     H225821   1.529   3.157   5.299
 8527WAT      O25822   9.364   9.730   4.967
 8527WAT     H125823   9.452   9.683   4.965
 8527WAT     H225824   9.303   9.684   5.032
 8528WAT      O25825   0.771   8.383   1.274
 8528WAT     H125826   0.718   8.467   1.281
 8528WAT     H225827   0.730   8.323   1.205
 8529WAT      O25828   2.411   2.546   9.550
 8529WAT     H125829   2.425   2.468   9.612
 8529WAT     H225830   2.388   2.627   9.604
 8530WAT      O25831   1.676   1.696   6.871
 8530WAT     H125832   1.652   1.607   6.833
 8530WAT     H225833   1.732   1.746   6.805
 8531WAT      O25834   3.663   6.673   1.292
 8531WAT     H125835   3.714   6.634   1.216
 8531WAT     H225836   3.629   6.599   1.351
 8532WAT      O25837   9.449   3.942   5.673
 8532WAT     H125838   9.522   3.999   5.636
 8532WAT     H225839   9.407   3.987   5.751
 8533WAT      O25840   0.174   2.894   9.871
 8533WAT     H125841   0.235   2.877   9.794
 8533WAT     H225842   0.097   2.950   9.841
 8534WAT      O25843   0.181   1.171   0.481
 8534WAT     H125844   0.094   1.197   0.441
 8534WAT     H225845   0.253   1.233   0.448
 8535WAT      O25846   2.509   3.926   5.852
 8535WAT     H125847   2.477   4.019   5.834
 8535WAT     H225848   2.484   3.900   5.946
 8536WAT      O25849   3.587   9.524   4.764
 8536WAT     H125850   3.529   9.509   4.684
 8536WAT     H225851   3.661   9.586   4.740
 8537WAT      O25852   9.410   0.740   5.782
 8537WAT     H125853   9.458   0.663   5.741
 8537WAT     H225854   9.354   0.785   5.713
 8538WAT      O25855   6.897   9.605   3.167
 8538WAT     H125856   6.880   9.693   3.122
 8538WAT     H225857   6.820   9.543   3.151
 8539WAT      O25858   7.304   8.412   6.202
 8539WAT     H125859   7.283   8.498   6.155
 8539WAT     H225860   7.219   8.364   6.225
 8540WAT      O25861   1.309   0.475   6.239
 8540WAT     H125862   1.371   0.529   6.296
 8540WAT     H225863   1.215   0.499   6.260
 8541WAT      O25864   7.345   8.454   3.051
 8541WAT     H125865   7.405   8.438   3.129
 8541WAT     H225866   7.323   8.551   3.045
 8542WAT      O25867   5.829   1.290   4.460
 8542WAT     H125868   5.921   1.330   4.456
 8542WAT     H225869   5.761   1.362   4.447
 8543WAT      O25870   5.773   9.199   0.989
 8543WAT     H125871   5.855   9.146   1.014
 8543WAT     H225872   5.786   9.295   1.014
 8544WAT      O25873   5.833   0.006   8.236
 8544WAT     H125874   5.805   0.008   8.140
 8544WAT     H225875   5.933   0.014   8.242
 8545WAT      O25876   4.068   0.502   5.195
 8545WAT     H125877   4.004   0.471   5.125
 8545WAT     H225878   4.025   0.570   5.254
 8546WAT      O25879   7.488   9.535   1.449
 8546WAT     H125880   7.426   9.600   1.406
 8546WAT     H225881   7.570   9.583   1.480
 8547WAT      O25882   3.767   1.733   2.909
 8547WAT     H125883   3.677   1.712   2.948
 8547WAT     H225884   3.762   1.727   2.809
 8548WAT      O25885   3.748   0.517   2.505
 8548WAT     H125886   3.737   0.607   2.461
 8548WAT     H225887   3.671   0.458   2.480
 8549WAT      O25888   1.988   5.639   4.168
 8549WAT     H125889   2.026   5.698   4.240
 8549WAT     H225890   1.925   5.692   4.112
 8550WAT      O25891   5.728   2.318   0.142
 8550WAT     H125892   5.817   2.364   0.142
 8550WAT     H225893   5.666   2.366   0.203
 8551WAT      O25894   4.581   6.123   5.276
 8551WAT     H125895   4.645   6.054   5.309
 8551WAT     H225896   4.493   6.112   5.323
 8552WAT      O25897   3.360   0.328   0.670
 8552WAT     H125898   3.365   0.306   0.767
 8552WAT     H225899   3.439   0.291   0.622
 8553WAT      O25900   7.870   6.104   1.560
 8553WAT     H125901   7.827   6.131   1.646
 8553WAT     H225902   7.937   6.032   1.577
 8554WAT      O25903   8.382   3.465   7.843
 8554WAT     H125904   8.321   3.489   7.767
 8554WAT     H225905   8.475   3.495   7.821
 8555WAT      O25906   4.853   4.378   9.777
 8555WAT     H125907   4.899   4.458   9.814
 8555WAT     H225908   4.838   4.311   9.849
 8556WAT      O25909   3.919   8.429   5.412
 8556WAT     H125910   4.016   8.450   5.417
 8556WAT     H225911   3.905   8.347   5.357
 8557WAT      O25912   0.326   1.875   6.253
 8557WAT     H125913   0.422   1.891   6.229
 8557WAT     H225914   0.286   1.810   6.188
 8558WAT      O25915   6.793   2.669   3.974
 8558WAT     H125916   6.776   2.572   3.953
 8558WAT     H225917   6.872   2.701   3.922
 8559WAT      O25918   4.590   4.755   3.836
 8559WAT     H125919   4.562   4.773   3.930
 8559WAT     H225920   4.689   4.744   3.832
 8560WAT      O25921   2.877   3.139   5.666
 8560WAT     H125922   2.864   3.166   5.571
 8560WAT     H225923   2.910   3.044   5.669
 8561WAT      O25924   8.226   8.563   5.327
 8561WAT     H125925   8.275   8.641   5.288
 8561WAT     H225926   8.278   8.479   5.310
 8562WAT      O25927   9.109   5.621   3.707
 8562WAT     H125928   9.019   5.628   3.749
 8562WAT     H225929   9.100   5.576   3.617
 8563WAT      O25930   9.634   9.094   3.507
 8563WAT     H125931   9.672   9.051   3.588
 8563WAT     H225932   9.594   9.183   3.531
 8564WAT      O25933   7.982   3.818   3.292
 8564WAT     H125934   7.995   3.756   3.215
 8564WAT     H225935   8.071   3.842   3.331
 8565WAT      O25936   3.410   0.245   0.185
 8565WAT     H125937   3.465   0.204   0.111
 8565WAT     H225938   3.339   0.180   0.213
 8566WAT      O25939   0.534   9.703   8.742
 8566WAT     H125940   0.443   9.721   8.704
 8566WAT     H225941   0.550   9.764   8.820
 8567WAT      O25942   5.757   7.994   9.023
 8567WAT     H125943   5.741   7.901   9.056
 8567WAT     H225944   5.717   8.005   8.933
 8568WAT      O25945   8.389   7.326   4.706
 8568WAT     H125946   8.405   7.238   4.663
 8568WAT     H225947   8.331   7.382   4.647
 8569WAT      O25948   4.349   2.190   3.271
 8569WAT     H125949   4.287   2.119   3.303
 8569WAT     H225950   4.308   2.280   3.285
 8570WAT      O25951   2.749   6.419   8.376
 8570WAT     H125952   2.746   6.518   8.360
 8570WAT     H225953   2.661   6.389   8.411
 8571WAT      O25954   7.208   1.996   0.007
 8571WAT     H125955   7.141   1.942   0.057
 8571WAT     H225956   7.251   2.062   0.068
 8572WAT      O25957   5.366   5.281   9.158
 8572WAT     H125958   5.315   5.257   9.076
 8572WAT     H225959   5.442   5.342   9.134
 8573WAT      O25960   4.800   5.108   9.645
 8573WAT     H125961   4.709   5.101   9.604
 8573WAT     H225962   4.793   5.091   9.744
 8574WAT      O25963   2.544   8.949   7.986
 8574WAT     H125964   2.456   8.980   7.950
 8574WAT     H225965   2.598   8.907   7.913
 8575WAT      O25966   7.555   4.254   4.158
 8575WAT     H125967   7.572   4.181   4.092
 8575WAT     H225968   7.489   4.221   4.227
 8576WAT      O25969   6.642   4.944   2.592
 8576WAT     H125970   6.713   5.003   2.554
 8576WAT     H225971   6.671   4.910   2.681
 8577WAT      O25972   1.013   4.478   5.846
 8577WAT     H125973   1.030   4.570   5.882
 8577WAT     H225974   1.070   4.412   5.894
 8578WAT      O25975   4.229   9.573   5.631
 8578WAT     H125976   4.275   9.570   5.542
 8578WAT     H225977   4.260   9.496   5.687
 8579WAT      O25978   9.229   4.877   6.044
 8579WAT     H125979   9.203   4.952   6.105
 8579WAT     H225980   9.269   4.913   5.960
 8580WAT      O25981   6.380   7.796   7.361
 8580WAT     H125982   6.389   7.705   7.403
 8580WAT     H225983   6.446   7.804   7.286
 8581WAT      O25984   8.274   7.854   5.232
 8581WAT     H125985   8.342   7.889   5.167
 8581WAT     H225986   8.252   7.759   5.210
 8582WAT      O25987   7.357   8.772   5.149
 8582WAT     H125988   7.275   8.715   5.154
 8582WAT     H225989   7.385   8.783   5.054
 8583WAT      O25990   5.644   4.606   5.786
 8583WAT     H125991   5.601   4.549   5.857
 8583WAT     H225992   5.678   4.549   5.712
 8584WAT      O25993   6.479   3.759   1.875
 8584WAT     H125994   6.543   3.836   1.879
 8584WAT     H225995   6.388   3.792   1.853
 8585WAT      O25996   5.314   4.292   2.623
 8585WAT     H125997   5.269   4.366   2.575
 8585WAT     H225998   5.323   4.316   2.720
 8586WAT      O25999   5.715   1.406   3.176
 8586WAT     H126000   5.735   1.341   3.249
 8586WAT     H226001   5.622   1.443   3.189
 8587WAT      O26002   4.455   0.711   4.176
 8587WAT     H126003   4.548   0.674   4.169
 8587WAT     H226004   4.393   0.657   4.120
 8588WAT      O26005   4.296   2.949   5.464
 8588WAT     H126006   4.291   3.047   5.447
 8588WAT     H226007   4.325   2.933   5.559
 8589WAT      O26008   6.725   7.935   0.355
 8589WAT     H126009   6.754   8.025   0.386
 8589WAT     H226010   6.768   7.914   0.267
 8590WAT      O26011   4.765   0.184   5.673
 8590WAT     H126012   4.772   0.190   5.772
 8590WAT     H226013   4.687   0.126   5.648
 8591WAT      O26014   4.797   8.924   8.378
 8591WAT     H126015   4.858   8.945   8.302
 8591WAT     H226016   4.850   8.915   8.463
 8592WAT      O26017   9.623   9.672   3.524
 8592WAT     H126018   9.585   9.610   3.456
 8592WAT     H226019   9.622   9.766   3.489
 8593WAT      O26020   4.113   2.290   3.009
 8593WAT     H126021   4.072   2.244   3.088
 8593WAT     H226022   4.049   2.359   2.975
 8594WAT      O26023   3.797   9.361   5.088
 8594WAT     H126024   3.850   9.392   5.167
 8594WAT     H226025   3.811   9.263   5.074
 8595WAT      O26026   6.628   8.068   1.868
 8595WAT     H126027   6.577   8.147   1.833
 8595WAT     H226028   6.683   8.029   1.793
 8596WAT      O26029   5.635   0.643   7.734
 8596WAT     H126030   5.716   0.694   7.761
 8596WAT     H226031   5.662   0.553   7.700
 8597WAT      O26032   8.531   5.391   7.111
 8597WAT     H126033   8.520   5.491   7.113
 8597WAT     H226034   8.444   5.347   7.129
 8598WAT      O26035   2.274   1.799   3.186
 8598WAT     H126036   2.253   1.749   3.270
 8598WAT     H226037   2.368   1.778   3.156
 8599WAT      O26038   5.647   8.346   8.639
 8599WAT     H126039   5.646   8.327   8.541
 8599WAT     H226040   5.591   8.426   8.658
 8600WAT      O26041   1.043   0.541   6.210
 8600WAT     H126042   1.009   0.608   6.277
 8600WAT     H226043   0.996   0.454   6.225
 8601WAT      O26044   2.091   4.758   2.981
 8601WAT     H126045   2.079   4.838   3.040
 8601WAT     H226046   2.002   4.728   2.947
 8602WAT      O26047   6.163   3.259   2.382
 8602WAT     H126048   6.187   3.341   2.330
 8602WAT     H226049   6.095   3.282   2.451
 8603WAT      O26050   6.065   8.641   7.309
 8603WAT     H126051   6.102   8.557   7.269
 8603WAT     H226052   6.012   8.617   7.391
 8604WAT      O26053   2.366   9.566   2.558
 8604WAT     H126054   2.414   9.481   2.541
 8604WAT     H226055   2.427   9.630   2.605
 8605WAT      O26056   6.483   4.442   4.863
 8605WAT     H126057   6.500   4.425   4.766
 8605WAT     H226058   6.446   4.360   4.906
 8606WAT      O26059   2.092   7.968   5.793
 8606WAT     H126060   2.095   8.049   5.852
 8606WAT     H226061   2.019   7.907   5.825
 8607WAT      O26062   2.733   0.299   7.179
 8607WAT     H126063   2.679   0.268   7.100
 8607WAT     H226064   2.724   0.232   7.253
 8608WAT      O26065   7.835   6.784   4.515
 8608WAT     H126066   7.783   6.866   4.494
 8608WAT     H226067   7.803   6.708   4.459
 8609WAT      O26068   2.155   9.425   0.258
 8609WAT     H126069   2.109   9.420   0.170
 8609WAT     H226070   2.177   9.520   0.279
 8610WAT      O26071   8.656   2.262   3.128
 8610WAT     H126072   8.700   2.173   3.112
 8610WAT     H226073   8.725   2.328   3.156
 8611WAT      O26074   1.904   0.257   7.149
 8611WAT     H126075   1.924   0.321   7.224
 8611WAT     H226076   1.924   0.302   7.062
 8612WAT      O26077   8.199   8.907   3.128
 8612WAT     H126078   8.228   8.886   3.222
 8612WAT     H226079   8.104   8.938   3.129
 8613WAT      O26080   6.850   0.632   7.220
 8613WAT     H126081   6.796   0.610   7.301
 8613WAT     H226082   6.921   0.562   7.207
 8614WAT      O26083   7.613   7.163   1.562
 8614WAT     H126084   7.630   7.072   1.524
 8614WAT     H226085   7.683   7.227   1.529
 8615WAT      O26086   5.703   7.304   9.570
 8615WAT     H126087   5.687   7.369   9.644
 8615WAT     H226088   5.766   7.233   9.602
 8616WAT      O26089   1.728   1.607   8.856
 8616WAT     H126090   1.790   1.672   8.814
 8616WAT     H226091   1.685   1.550   8.785
 8617WAT      O26092   9.009   6.443   1.456
 8617WAT     H126093   9.080   6.374   1.442
 8617WAT     H226094   9.008   6.507   1.380
 8618WAT      O26095   8.060   8.951   4.180
 8618WAT     H126096   8.087   8.970   4.085
 8618WAT     H226097   8.138   8.914   4.230
 8619WAT      O26098   9.039   5.382   9.892
 8619WAT     H126099   9.086   5.469   9.876
 8619WAT     H226100   9.082   5.310   9.836
 8620WAT      O26101   2.064   6.564   0.642
 8620WAT     H126102   1.993   6.497   0.663
 8620WAT     H226103   2.153   6.519   0.638
 8621WAT      O26104   3.734   4.088   7.399
 8621WAT     H126105   3.819   4.105   7.450
 8621WAT     H226106   3.660   4.070   7.463
 8622WAT      O26107   4.683   7.070   7.069
 8622WAT     H126108   4.616   7.044   7.138
 8622WAT     H226109   4.743   7.141   7.105
 8623WAT      O26110   1.042   5.682   7.838
 8623WAT     H126111   1.030   5.682   7.738
 8623WAT     H226112   1.088   5.766   7.866
 8624WAT      O26113   6.177   4.154   5.084
 8624WAT     H126114   6.137   4.121   4.998
 8624WAT     H226115   6.120   4.227   5.121
 8625WAT      O26116   8.970   6.834   1.061
 8625WAT     H126117   9.001   6.833   0.966
 8625WAT     H226118   9.046   6.858   1.121
 8626WAT      O26119   2.223   7.762   6.599
 8626WAT     H126120   2.217   7.856   6.632
 8626WAT     H226121   2.133   7.718   6.608
 8627WAT      O26122   5.731   1.741   1.891
 8627WAT     H126123   5.778   1.694   1.966
 8627WAT     H226124   5.729   1.682   1.811
 8628WAT      O26125   0.043   7.585   4.019
 8628WAT     H126126  -0.033   7.538   3.976
 8628WAT     H226127   0.075   7.659   3.960
 8629WAT      O26128   0.416   7.353   6.540
 8629WAT     H126129   0.330   7.354   6.591
 8629WAT     H226130   0.493   7.348   6.604
 8630WAT      O26131   4.980   5.829   2.594
 8630WAT     H126132   4.923   5.817   2.675
 8630WAT     H226133   5.076   5.814   2.618
 8631WAT      O26134   2.915   0.254   2.732
 8631WAT     H126135   2.876   0.343   2.712
 8631WAT     H226136   2.907   0.195   2.652
 8632WAT      O26137   1.893   0.766   5.406
 8632WAT     H126138   1.953   0.691   5.380
 8632WAT     H226139   1.800   0.746   5.376
 8633WAT      O26140   7.462   2.973   6.905
 8633WAT     H126141   7.377   2.958   6.853
 8633WAT     H226142   7.540   2.968   6.844
 8634WAT      O26143   2.490   7.024   5.309
 8634WAT     H126144   2.476   7.027   5.210
 8634WAT     H226145   2.561   6.956   5.330
 8635WAT      O26146   1.180   8.425   7.088
 8635WAT     H126147   1.243   8.468   7.023
 8635WAT     H226148   1.115   8.494   7.121
 8636WAT      O26149   9.331   4.144   6.565
 8636WAT     H126150   9.307   4.215   6.497
 8636WAT     H226151   9.408   4.091   6.531
 8637WAT      O26152   2.134   5.530   9.799
 8637WAT     H126153   2.169   5.469   9.728
 8637WAT     H226154   2.034   5.524   9.801
 8638WAT      O26155   9.027   1.352   2.233
 8638WAT     H126156   9.048   1.269   2.182
 8638WAT     H226157   8.957   1.404   2.183
 8639WAT      O26158   8.338   0.676   2.580
 8639WAT     H126159   8.353   0.593   2.634
 8639WAT     H226160   8.424   0.728   2.573
 8640WAT      O26161   0.154   1.198   3.417
 8640WAT     H126162   0.202   1.212   3.331
 8640WAT     H226163   0.158   1.102   3.443
 8641WAT      O26164   8.038   4.700   1.215
 8641WAT     H126165   7.945   4.727   1.191
 8641WAT     H226166   8.098   4.780   1.210
 8642WAT      O26167   6.217   1.493   5.082
 8642WAT     H126168   6.165   1.407   5.081
 8642WAT     H226169   6.266   1.503   4.995
 8643WAT      O26170   3.347   8.338   0.116
 8643WAT     H126171   3.355   8.287   0.202
 8643WAT     H226172   3.310   8.429   0.134
 8644WAT      O26173   3.780   7.985   0.265
 8644WAT     H126174   3.731   7.917   0.320
 8644WAT     H226175   3.735   7.993   0.176
 8645WAT      O26176   6.312   2.882   5.982
 8645WAT     H126177   6.383   2.858   6.048
 8645WAT     H226178   6.231   2.916   6.030
 8646WAT      O26179   8.256   4.881   1.980
 8646WAT     H126180   8.307   4.896   2.064
 8646WAT     H226181   8.318   4.849   1.908
 8647WAT      O26182   1.410   1.157   5.097
 8647WAT     H126183   1.371   1.207   5.174
 8647WAT     H226184   1.480   1.093   5.130
 8648WAT      O26185   5.707   0.421   3.111
 8648WAT     H126186   5.641   0.355   3.074
 8648WAT     H226187   5.740   0.480   3.037
 8649WAT      O26188   5.725   6.715   8.879
 8649WAT     H126189   5.716   6.616   8.878
 8649WAT     H226190   5.642   6.756   8.841
 8650WAT      O26191   8.328   1.109   9.613
 8650WAT     H126192   8.397   1.039   9.631
 8650WAT     H226193   8.345   1.188   9.672
 8651WAT      O26194   8.020   9.829   3.082
 8651WAT     H126195   7.982   9.832   3.174
 8651WAT     H226196   7.958   9.875   3.019
 8652WAT      O26197   7.652   1.610   3.029
 8652WAT     H126198   7.750   1.632   3.036
 8652WAT     H226199   7.641   1.524   2.979
 8653WAT      O26200   7.786   3.017   6.204
 8653WAT     H126201   7.713   3.077   6.171
 8653WAT     H226202   7.825   2.966   6.128
 8654WAT      O26203   4.910   0.400   3.014
 8654WAT     H126204   4.875   0.358   2.930
 8654WAT     H226205   4.989   0.349   3.046
 8655WAT      O26206   9.385   9.270   7.973
 8655WAT     H126207   9.394   9.198   7.904
 8655WAT     H226208   9.372   9.358   7.927
 8656WAT      O26209   2.019   3.877   5.724
 8656WAT     H126210   2.105   3.826   5.716
 8656WAT     H226211   2.034   3.959   5.780
 8657WAT      O26212   6.393   1.050   5.741
 8657WAT     H126213   6.435   1.102   5.667
 8657WAT     H226214   6.442   1.068   5.826
 8658WAT      O26215   0.871   1.432   0.742
 8658WAT     H126216   0.904   1.477   0.659
 8658WAT     H226217   0.835   1.341   0.718
 8659WAT      O26218   0.121   9.070   4.483
 8659WAT     H126219   0.191   9.066   4.555
 8659WAT     H226220   0.077   9.159   4.483
 8660WAT      O26221   7.193   0.578   7.020
 8660WAT     H126222   7.229   0.623   7.102
 8660WAT     H226223   7.233   0.487   7.012
 8661WAT      O26224   5.485   6.979   9.290
 8661WAT     H126225   5.407   7.037   9.313
 8661WAT     H226226   5.481   6.895   9.344
 8662WAT      O26227   8.781   6.756   1.991
 8662WAT     H126228   8.858   6.759   2.054
 8662WAT     H226229   8.698   6.786   2.038
 8663WAT      O26230   5.882   6.373   6.164
 8663WAT     H126231   5.884   6.305   6.090
 8663WAT     H226232   5.975   6.386   6.200
 8664WAT      O26233   4.764   3.032   2.459
 8664WAT     H126234   4.691   3.092   2.491
 8664WAT     H226235   4.724   2.957   2.405
 8665WAT      O26236   9.877   0.648   8.734
 8665WAT     H126237   9.957   0.690   8.777
 8665WAT     H226238   9.818   0.719   8.697
 8666WAT      O26239   1.175   6.548   0.613
 8666WAT     H126240   1.215   6.467   0.571
 8666WAT     H226241   1.179   6.624   0.548
 8667WAT      O26242   2.190   3.282   5.596
 8667WAT     H126243   2.251   3.253   5.670
 8667WAT     H226244   2.245   3.310   5.517
 8668WAT      O26245   2.981   8.747   2.014
 8668WAT     H126246   3.054   8.815   2.012
 8668WAT     H226247   2.925   8.761   2.096
 8669WAT      O26248   5.809   3.660   4.236
 8669WAT     H126249   5.845   3.737   4.184
 8669WAT     H226250   5.801   3.686   4.333
 8670WAT      O26251   9.857   4.149   2.250
 8670WAT     H126252   9.796   4.109   2.183
 8670WAT     H226253   9.905   4.076   2.299
 8671WAT      O26254   8.647   6.569   2.756
 8671WAT     H126255   8.649   6.668   2.745
 8671WAT     H226256   8.553   6.536   2.749
 8672WAT      O26257   0.264   9.647   6.699
 8672WAT     H126258   0.362   9.636   6.680
 8672WAT     H226259   0.245   9.616   6.792
 8673WAT      O26260   3.735   5.174   8.490
 8673WAT     H126261   3.681   5.229   8.554
 8673WAT     H226262   3.816   5.226   8.462
 8674WAT      O26263   2.541   7.465   9.518
 8674WAT     H126264   2.533   7.370   9.488
 8674WAT     H226265   2.553   7.524   9.439
 8675WAT      O26266   1.285   3.964   5.412
 8675WAT     H126267   1.313   3.997   5.322
 8675WAT     H226268   1.230   4.034   5.458
 8676WAT      O26269   5.293   4.870   7.102
 8676WAT     H126270   5.216   4.814   7.074
 8676WAT     H226271   5.265   4.966   7.107
 8677WAT      O26272   5.614   1.588   0.984
 8677WAT     H126273   5.608   1.597   0.884
 8677WAT     H226274   5.527   1.552   1.019
 8678WAT      O26275   7.003   7.828   1.158
 8678WAT     H126276   7.092   7.874   1.158
 8678WAT     H226277   7.007   7.749   1.095
 8679WAT      O26278   0.628   4.054   4.697
 8679WAT     H126279   0.559   4.098   4.640
 8679WAT     H226280   0.617   3.955   4.692
 8680WAT      O26281   3.754   3.124   2.432
 8680WAT     H126282   3.710   3.190   2.371
 8680WAT     H226283   3.710   3.035   2.422
 8681WAT      O26284   8.781   7.306   1.699
 8681WAT     H126285   8.688   7.269   1.697
 8681WAT     H226286   8.819   7.296   1.791
 8682WAT      O26287   9.002   6.150   4.058
 8682WAT     H126288   9.097   6.151   4.089
 8682WAT     H226289   8.947   6.094   4.120
 8683WAT      O26290   5.932   6.834   2.238
 8683WAT     H126291   5.948   6.741   2.270
 8683WAT     H226292   5.885   6.887   2.308
 8684WAT      O26293   4.112   1.711   9.475
 8684WAT     H126294   4.172   1.657   9.534
 8684WAT     H226295   4.067   1.651   9.410
 8685WAT      O26296   0.817   8.134   3.812
 8685WAT     H126297   0.772   8.133   3.901
 8685WAT     H226298   0.764   8.190   3.748
 8686WAT      O26299   0.710   6.203   9.714
 8686WAT     H126300   0.763   6.268   9.768
 8686WAT     H226301   0.645   6.252   9.656
 8687WAT      O26302   5.246   0.126   2.572
 8687WAT     H126303   5.269   0.207   2.518
 8687WAT     H226304   5.273   0.044   2.522
 8688WAT      O26305   6.244   2.710   0.995
 8688WAT     H126306   6.289   2.713   0.905
 8688WAT     H226307   6.307   2.672   1.063
 8689WAT      O26308   7.862   2.081   2.905
 8689WAT     H126309   7.765   2.060   2.915
 8689WAT     H226310   7.894   2.046   2.817
 8690WAT      O26311   2.654   5.287   6.980
 8690WAT     H126312   2.577   5.250   6.928
 8690WAT     H226313   2.677   5.378   6.945
 8691WAT      O26314   5.890   7.363   1.341
 8691WAT     H126315   5.943   7.359   1.426
 8691WAT     H226316   5.921   7.291   1.280
 8692WAT      O26317   2.438   6.849   6.956
 8692WAT     H126318   2.414   6.901   6.874
 8692WAT     H226319   2.526   6.803   6.941
 8693WAT      O26320   8.989   9.311   5.297
 8693WAT     H126321   8.908   9.262   5.264
 8693WAT     H226322   8.968   9.408   5.304
 8694WAT      O26323   9.334   4.665   4.953
 8694WAT     H126324   9.413   4.623   4.907
 8694WAT     H226325   9.297   4.601   5.020
 8695WAT      O26326   0.280   7.199   3.117
 8695WAT     H126327   0.376   7.177   3.132
 8695WAT     H226328   0.226   7.167   3.195
 8696WAT      O26329   7.278   4.302   7.276
 8696WAT     H126330   7.240   4.253   7.198
 8696WAT     H226331   7.377   4.286   7.280
 8697WAT      O26332   4.813   3.327   9.500
 8697WAT     H126333   4.898   3.380   9.491
 8697WAT     H226334   4.815   3.251   9.435
 8698WAT      O26335   0.455   8.320   0.760
 8698WAT     H126336   0.487   8.361   0.846
 8698WAT     H226337   0.474   8.222   0.762
 8699WAT      O26338   9.033   4.706   6.045
 8699WAT     H126339   8.976   4.701   5.963
 8699WAT     H226340   9.098   4.782   6.036
 8700WAT      O26341   0.294   5.836   5.665
 8700WAT     H126342   0.221   5.767   5.667
 8700WAT     H226343   0.357   5.820   5.741
 8701WAT      O26344   9.387   7.966   1.941
 8701WAT     H126345   9.398   8.014   2.027
 8701WAT     H226346   9.434   7.878   1.946
 8702WAT      O26347   4.479   0.814   6.641
 8702WAT     H126348   4.468   0.912   6.660
 8702WAT     H226349   4.441   0.794   6.551
 8703WAT      O26350   0.514   3.309   1.758
 8703WAT     H126351   0.422   3.311   1.719
 8703WAT     H226352   0.549   3.402   1.767
 8704WAT      O26353   5.461   6.434   3.706
 8704WAT     H126354   5.424   6.342   3.723
 8704WAT     H226355   5.394   6.488   3.655
 8705WAT      O26356   2.539   4.029   7.551
 8705WAT     H126357   2.588   3.966   7.611
 8705WAT     H226358   2.587   4.035   7.463
 8706WAT      O26359   5.838   1.258   0.569
 8706WAT     H126360   5.864   1.168   0.605
 8706WAT     H226361   5.775   1.246   0.492
 8707WAT      O26362   8.805   4.311   6.279
 8707WAT     H126363   8.749   4.341   6.357
 8707WAT     H226364   8.894   4.281   6.311
 8708WAT      O26365   7.538   7.268   0.103
 8708WAT     H126366   7.479   7.189   0.086
 8708WAT     H226367   7.490   7.335   0.158
 8709WAT      O26368   0.560   2.005   9.723
 8709WAT     H126369   0.560   1.936   9.795
 8709WAT     H226370   0.639   2.066   9.735
 8710WAT      O26371   4.249   8.899   3.092
 8710WAT     H126372   4.201   8.953   3.161
 8710WAT     H226373   4.183   8.847   3.038
 8711WAT      O26374   4.054   7.263   8.436
 8711WAT     H126375   3.994   7.342   8.427
 8711WAT     H226376   4.043   7.222   8.526
 8712WAT      O26377   3.035   2.201   4.227
 8712WAT     H126378   3.041   2.271   4.156
 8712WAT     H226379   3.052   2.111   4.187
 8713WAT      O26380   0.987   6.639   2.697
 8713WAT     H126381   1.047   6.605   2.625
 8713WAT     H226382   0.992   6.738   2.701
 8714WAT      O26383   3.449   3.075   2.692
 8714WAT     H126384   3.535   3.126   2.700
 8714WAT     H226385   3.423   3.070   2.595
 8715WAT      O26386   3.056   5.705   1.210
 8715WAT     H126387   3.153   5.684   1.194
 8715WAT     H226388   3.035   5.795   1.172
 8716WAT      O26389   4.377   6.121   8.688
 8716WAT     H126390   4.361   6.137   8.590
 8716WAT     H226391   4.456   6.174   8.718
 8717WAT      O26392   5.498   3.325   2.068
 8717WAT     H126393   5.480   3.414   2.026
 8717WAT     H226394   5.418   3.296   2.119
 8718WAT      O26395   9.590   8.787   8.440
 8718WAT     H126396   9.657   8.797   8.366
 8718WAT     H226397   9.591   8.869   8.497
 8719WAT      O26398   2.224   0.470   7.889
 8719WAT     H126399   2.177   0.460   7.977
 8719WAT     H226400   2.183   0.407   7.822
 8720WAT      O26401   7.756   4.892   4.842
 8720WAT     H126402   7.833   4.955   4.855
 8720WAT     H226403   7.717   4.905   4.751
 8721WAT      O26404   5.203   9.038   8.408
 8721WAT     H126405   5.134   9.098   8.448
 8721WAT     H226406   5.222   8.962   8.470
 8722WAT      O26407   5.810   9.096   9.598
 8722WAT     H126408   5.830   9.025   9.531
 8722WAT     H226409   5.856   9.181   9.571
 8723WAT      O26410   4.177   9.222   4.926
 8723WAT     H126411   4.223   9.192   5.009
 8723WAT     H226412   4.112   9.152   4.896
 8724WAT      O26413   0.787   4.604   6.876
 8724WAT     H126414   0.807   4.526   6.935
 8724WAT     H226415   0.871   4.656   6.861
 8725WAT      O26416   8.861   0.918   1.348
 8725WAT     H126417   8.894   0.938   1.256
 8725WAT     H226418   8.914   0.969   1.415
 8726WAT      O26419   0.778   7.583   0.636
 8726WAT     H126420   0.865   7.541   0.662
 8726WAT     H226421   0.738   7.627   0.716
 8727WAT      O26422   0.279   8.966   2.376
 8727WAT     H126423   0.305   9.014   2.460
 8727WAT     H226424   0.222   8.888   2.398
 8728WAT      O26425   8.080   4.668   2.674
 8728WAT     H126426   8.096   4.717   2.589
 8728WAT     H226427   7.982   4.665   2.693
 8729WAT      O26428   1.651   8.197   7.556
 8729WAT     H126429   1.724   8.258   7.585
 8729WAT     H226430   1.647   8.194   7.456
 8730WAT      O26431   8.670   0.012   7.106
 8730WAT     H126432   8.709  -0.030   7.024
 8730WAT     H226433   8.633  -0.059   7.166
 8731WAT      O26434   5.212   0.180   8.247
 8731WAT     H126435   5.128   0.142   8.209
 8731WAT     H226436   5.287   0.168   8.183
 8732WAT      O26437   7.061   1.685   2.732
 8732WAT     H126438   7.121   1.653   2.659
 8732WAT     H226439   6.969   1.648   2.718
 8733WAT      O26440   3.521   2.525   3.626
 8733WAT     H126441   3.474   2.596   3.573
 8733WAT     H226442   3.515   2.547   3.724
 8734WAT      O26443   2.497   1.800   1.920
 8734WAT     H126444   2.512   1.885   1.970
 8734WAT     H226445   2.406   1.764   1.943
 8735WAT      O26446   5.214   4.886   8.533
 8735WAT     H126447   5.280   4.816   8.560
 8735WAT     H226448   5.229   4.912   8.438
 8736WAT      O26449   3.897   8.103   4.786
 8736WAT     H126450   3.946   8.120   4.701
 8736WAT     H226451   3.917   8.177   4.851
 8737WAT      O26452   5.440   3.104   0.317
 8737WAT     H126453   5.478   3.094   0.409
 8737WAT     H226454   5.491   3.046   0.253
 8738WAT      O26455   3.988   7.346   3.165
 8738WAT     H126456   3.911   7.404   3.137
 8738WAT     H226457   3.975   7.316   3.259
 8739WAT      O26458   4.759   3.548   4.279
 8739WAT     H126459   4.839   3.595   4.315
 8739WAT     H226460   4.774   3.524   4.183
 8740WAT      O26461   6.155   6.442   7.967
 8740WAT     H126462   6.182   6.527   7.923
 8740WAT     H226463   6.068   6.454   8.014
 8741WAT      O26464   6.767   7.202   3.751
 8741WAT     H126465   6.771   7.191   3.652
 8741WAT     H226466   6.737   7.295   3.773
 8742WAT      O26467   9.355   7.947   0.364
 8742WAT     H126468   9.285   7.965   0.296
 8742WAT     H226469   9.313   7.908   0.446
 8743WAT      O26470   4.693   4.996   4.920
 8743WAT     H126471   4.772   4.961   4.971
 8743WAT     H226472   4.724   5.044   4.838
 8744WAT      O26473   5.674   6.680   7.908
 8744WAT     H126474   5.646   6.685   7.812
 8744WAT     H226475   5.634   6.756   7.959
 8745WAT      O26476   2.548   7.216   9.007
 8745WAT     H126477   2.493   7.186   9.085
 8745WAT     H226478   2.621   7.150   8.991
 8746WAT      O26479   6.320   4.299   8.444
 8746WAT     H126480   6.378   4.344   8.511
 8746WAT     H226481   6.330   4.199   8.452
 8747WAT      O26482   9.524   2.562   6.848
 8747WAT     H126483   9.475   2.482   6.883
 8747WAT     H226484   9.458   2.635   6.830
 8748WAT      O26485   4.061   6.189   9.852
 8748WAT     H126486   3.991   6.246   9.808
 8748WAT     H226487   4.052   6.197   9.951
 8749WAT      O26488   2.221   7.173   0.359
 8749WAT     H126489   2.164   7.208   0.434
 8749WAT     H226490   2.180   7.198   0.272
 8750WAT      O26491   4.942   4.767   2.843
 8750WAT     H126492   5.017   4.701   2.833
 8750WAT     H226493   4.932   4.793   2.939
 8751WAT      O26494   0.311   0.330   2.951
 8751WAT     H126495   0.215   0.346   2.929
 8751WAT     H226496   0.319   0.307   3.048
 8752WAT      O26497   2.906   3.682   6.844
 8752WAT     H126498   2.993   3.720   6.810
 8752WAT     H226499   2.843   3.669   6.768
 8753WAT      O26500   3.796   8.376   2.109
 8753WAT     H126501   3.770   8.364   2.014
 8753WAT     H226502   3.714   8.379   2.166
 8754WAT      O26503   5.892   9.475   9.256
 8754WAT     H126504   5.947   9.557   9.237
 8754WAT     H226505   5.823   9.464   9.184
 8755WAT      O26506   4.040   1.137   7.963
 8755WAT     H126507   4.064   1.234   7.969
 8755WAT     H226508   3.973   1.114   8.034
 8756WAT      O26509   7.039   8.179   7.742
 8756WAT     H126510   6.966   8.245   7.758
 8756WAT     H226511   7.050   8.164   7.644
 8757WAT      O26512   2.937   8.089   5.247
 8757WAT     H126513   2.999   8.013   5.228
 8757WAT     H226514   2.978   8.149   5.316
 8758WAT      O26515   4.788   9.793   2.630
 8758WAT     H126516   4.856   9.858   2.594
 8758WAT     H226517   4.778   9.716   2.567
 8759WAT      O26518   8.714   9.217   4.543
 8759WAT     H126519   8.716   9.121   4.571
 8759WAT     H226520   8.625   9.239   4.505
 8760WAT      O26521   3.246   4.463   1.510
 8760WAT     H126522   3.317   4.530   1.490
 8760WAT     H226523   3.200   4.486   1.595
 8761WAT      O26524   4.053   3.386   4.447
 8761WAT     H126525   4.145   3.353   4.424
 8761WAT     H226526   4.028   3.351   4.537
 8762WAT      O26527   5.261   1.378   8.107
 8762WAT     H126528   5.293   1.446   8.041
 8762WAT     H226529   5.161   1.374   8.105
 8763WAT      O26530   2.174   5.929   8.756
 8763WAT     H126531   2.095   5.870   8.770
 8763WAT     H226532   2.149   6.023   8.776
 8764WAT      O26533   3.687   3.212   6.748
 8764WAT     H126534   3.740   3.157   6.684
 8764WAT     H226535   3.654   3.154   6.822
 8765WAT      O26536   2.743   0.585   7.147
 8765WAT     H126537   2.734   0.486   7.155
 8765WAT     H226538   2.787   0.607   7.060
 8766WAT      O26539   8.376   2.966   0.428
 8766WAT     H126540   8.429   3.005   0.504
 8766WAT     H226541   8.437   2.914   0.368
 8767WAT      O26542   4.763   8.534   1.592
 8767WAT     H126543   4.724   8.543   1.501
 8767WAT     H226544   4.835   8.602   1.606
 8768WAT      O26545   6.276   5.034   3.853
 8768WAT     H126546   6.293   5.053   3.950
 8768WAT     H226547   6.302   5.114   3.799
 8769WAT      O26548   9.026   1.933   8.242
 8769WAT     H126549   8.966   1.941   8.321
 8769WAT     H226550   8.982   1.975   8.162
 8770WAT      O26551   5.855   6.717   4.401
 8770WAT     H126552   5.882   6.663   4.321
 8770WAT     H226553   5.936   6.752   4.447
 8771WAT      O26554   9.487   1.280   1.117
 8771WAT     H126555   9.576   1.306   1.080
 8771WAT     H226556   9.451   1.202   1.065
 8772WAT      O26557   5.948   9.832   5.661
 8772WAT     H126558   5.986   9.917   5.625
 8772WAT     H226559   5.848   9.838   5.663
 8773WAT      O26560   6.127   7.886   7.395
 8773WAT     H126561   6.221   7.871   7.366
 8773WAT     H226562   6.103   7.982   7.384
 8774WAT      O26563   5.124   6.954   0.137
 8774WAT     H126564   5.083   7.019   0.073
 8774WAT     H226565   5.055   6.887   0.165
 8775WAT      O26566   8.051   4.724   6.092
 8775WAT     H126567   8.140   4.746   6.052
 8775WAT     H226568   8.016   4.641   6.050
 8776WAT      O26569   4.143   0.869   4.580
 8776WAT     H126570   4.181   0.865   4.672
 8776WAT     H226571   4.193   0.936   4.526
 8777WAT      O26572   3.432   4.569   0.466
 8777WAT     H126573   3.417   4.640   0.535
 8777WAT     H226574   3.529   4.562   0.446
 8778WAT      O26575   7.199   0.497   0.888
 8778WAT     H126576   7.149   0.579   0.862
 8778WAT     H226577   7.296   0.510   0.866
 8779WAT      O26578   7.236   4.503   4.973
 8779WAT     H126579   7.254   4.574   4.905
 8779WAT     H226580   7.171   4.538   5.041
 8780WAT      O26581   1.028   4.688   6.812
 8780WAT     H126582   1.111   4.694   6.756
 8780WAT     H226583   1.053   4.678   6.908
 8781WAT      O26584   7.439   2.905   5.907
 8781WAT     H126585   7.457   3.003   5.911
 8781WAT     H226586   7.366   2.888   5.840
 8782WAT      O26587   2.314   2.180   1.823
 8782WAT     H126588   2.315   2.276   1.852
 8782WAT     H226589   2.220   2.146   1.825
 8783WAT      O26590   9.525   9.699   5.413
 8783WAT     H126591   9.477   9.617   5.382
 8783WAT     H226592   9.576   9.678   5.496
 8784WAT      O26593   7.674   8.186   9.485
 8784WAT     H126594   7.616   8.105   9.484
 8784WAT     H226595   7.617   8.269   9.489
 8785WAT      O26596   1.810   2.896   0.876
 8785WAT     H126597   1.823   2.797   0.879
 8785WAT     H226598   1.821   2.934   0.967
 8786WAT      O26599   1.099   0.005   6.461
 8786WAT     H126600   1.136   0.042   6.376
 8786WAT     H226601   1.059   0.080   6.515
 8787WAT      O26602   4.054   9.599   2.187
 8787WAT     H126603   4.131   9.542   2.216
 8787WAT     H226604   3.968   9.553   2.208
 8788WAT      O26605   6.170   2.257   9.284
 8788WAT     H126606   6.151   2.337   9.340
 8788WAT     H226607   6.187   2.285   9.190
 8789WAT      O26608   6.946   8.580   2.705
 8789WAT     H126609   7.000   8.496   2.710
 8789WAT     H226610   6.935   8.607   2.609
 8790WAT      O26611   3.553   0.224   2.966
 8790WAT     H126612   3.651   0.203   2.963
 8790WAT     H226613   3.501   0.139   2.972
 8791WAT      O26614   3.817   0.328   5.303
 8791WAT     H126615   3.839   0.348   5.207
 8791WAT     H226616   3.813   0.229   5.317
 8792WAT      O26617   8.189   4.650   4.523
 8792WAT     H126618   8.230   4.666   4.433
 8792WAT     H226619   8.240   4.700   4.592
 8793WAT      O26620   3.034   4.832   7.737
 8793WAT     H126621   3.070   4.833   7.644
 8793WAT     H226622   2.981   4.916   7.753
 8794WAT      O26623   0.058   4.044   1.497
 8794WAT     H126624   0.077   3.981   1.423
 8794WAT     H226625   0.118   4.124   1.489
 8795WAT      O26626   8.396   4.681   5.705
 8795WAT     H126627   8.324   4.720   5.648
 8795WAT     H226628   8.382   4.582   5.715
 8796WAT      O26629   0.616   4.230   6.397
 8796WAT     H126630   0.694   4.287   6.423
 8796WAT     H226631   0.531   4.276   6.423
 8797WAT      O26632   1.889   0.967   1.787
 8797WAT     H126633   1.858   1.059   1.765
 8797WAT     H226634   1.834   0.930   1.862
 8798WAT      O26635   5.505   9.790   8.527
 8798WAT     H126636   5.541   9.842   8.604
 8798WAT     H226637   5.409   9.816   8.511
 8799WAT      O26638   8.645   0.832   4.377
 8799WAT     H126639   8.663   0.896   4.303
 8799WAT     H226640   8.654   0.879   4.465
 8800WAT      O26641   9.665   8.426   7.858
 8800WAT     H126642   9.622   8.491   7.920
 8800WAT     H226643   9.599   8.357   7.830
 8801WAT      O26644   8.768   1.463   7.437
 8801WAT     H126645   8.732   1.458   7.530
 8801WAT     H226646   8.695   1.441   7.372
 8802WAT      O26647   5.048   0.918   2.741
 8802WAT     H126648   5.134   0.891   2.783
 8802WAT     H226649   4.997   0.977   2.803
 8803WAT      O26650   9.263   7.562   3.976
 8803WAT     H126651   9.218   7.480   4.012
 8803WAT     H226652   9.287   7.623   4.052
 8804WAT      O26653   7.038   4.649   2.881
 8804WAT     H126654   7.132   4.620   2.893
 8804WAT     H226655   7.034   4.721   2.811
 8805WAT      O26656   0.628   4.016   0.246
 8805WAT     H126657   0.593   4.077   0.318
 8805WAT     H226658   0.647   4.069   0.164
 8806WAT      O26659   5.389   9.200   1.479
 8806WAT     H126660   5.481   9.188   1.440
 8806WAT     H226661   5.345   9.279   1.437
 8807WAT      O26662   7.359   2.303   7.958
 8807WAT     H126663   7.390   2.231   7.896
 8807WAT     H226664   7.260   2.311   7.954
 8808WAT      O26665   0.028   6.781   0.695
 8808WAT     H126666   0.037   6.864   0.640
 8808WAT     H226667   0.033   6.701   0.636
 8809WAT      O26668   6.017   6.838   7.805
 8809WAT     H126669   6.032   6.932   7.775
 8809WAT     H226670   6.105   6.797   7.830
 8810WAT      O26671   3.919   1.986   6.314
 8810WAT     H126672   3.870   1.941   6.389
 8810WAT     H226673   3.996   2.037   6.350
 8811WAT      O26674   9.799   8.142   2.821
 8811WAT     H126675   9.796   8.197   2.737
 8811WAT     H226676   9.856   8.189   2.888
 8812WAT      O26677   3.179   8.087   8.574
 8812WAT     H126678   3.140   8.088   8.667
 8812WAT     H226679   3.263   8.032   8.575
 8813WAT      O26680   7.298   0.832   8.045
 8813WAT     H126681   7.289   0.890   8.127
 8813WAT     H226682   7.382   0.856   7.996
 8814WAT      O26683   5.825   4.182   2.508
 8814WAT     H126684   5.753   4.236   2.552
 8814WAT     H226685   5.793   4.149   2.420
 8815WAT      O26686   2.279   5.078   5.839
 8815WAT     H126687   2.242   4.996   5.797
 8815WAT     H226688   2.206   5.128   5.886
 8816WAT      O26689   2.010   3.122   7.522
 8816WAT     H126690   2.018   3.059   7.599
 8816WAT     H226691   2.051   3.210   7.546
 8817WAT      O26692   0.859   6.957   7.383
 8817WAT     H126693   0.934   6.899   7.351
 8817WAT     H226694   0.851   7.037   7.323
 8818WAT      O26695   1.047   6.685   5.148
 8818WAT     H126696   1.000   6.773   5.154
 8818WAT     H226697   1.094   6.667   5.235
 8819WAT      O26698   2.341   7.563   5.406
 8819WAT     H126699   2.347   7.576   5.307
 8819WAT     H226700   2.255   7.518   5.428
 8820WAT      O26701   6.481   8.077   1.551
 8820WAT     H126702   6.392   8.033   1.566
 8820WAT     H226703   6.468   8.177   1.553
 8821WAT      O26704   4.272   3.400   0.432
 8821WAT     H126705   4.329   3.323   0.461
 8821WAT     H226706   4.328   3.468   0.384
 8822WAT      O26707   1.326   7.084   0.408
 8822WAT     H126708   1.264   7.158   0.432
 8822WAT     H226709   1.418   7.105   0.443
 8823WAT      O26710   7.924   7.765   5.178
 8823WAT     H126711   7.848   7.777   5.114
 8823WAT     H226712   8.003   7.727   5.129
 8824WAT      O26713   8.559   1.513   7.216
 8824WAT     H126714   8.534   1.416   7.222
 8824WAT     H226715   8.574   1.538   7.121
 8825WAT      O26716   5.236   6.550   9.646
 8825WAT     H126717   5.309   6.516   9.586
 8825WAT     H226718   5.256   6.644   9.673
 8826WAT      O26719   2.434   5.483   3.756
 8826WAT     H126720   2.423   5.383   3.761
 8826WAT     H226721   2.477   5.516   3.840
 8827WAT      O26722   5.878   6.219   7.697
 8827WAT     H126723   5.881   6.164   7.614
 8827WAT     H226724   5.818   6.298   7.683
 8828WAT      O26725   5.290   1.822   1.799
 8828WAT     H126726   5.378   1.870   1.803
 8828WAT     H226727   5.220   1.879   1.842
 8829WAT      O26728   3.460   6.517   0.605
 8829WAT     H126729   3.448   6.608   0.563
 8829WAT     H226730   3.554   6.486   0.590
 8830WAT      O26731   2.206   8.141   8.466
 8830WAT     H126732   2.196   8.225   8.520
 8830WAT     H226733   2.262   8.161   8.385
 8831WAT      O26734   4.107   3.456   0.184
 8831WAT     H126735   4.104   3.363   0.148
 8831WAT     H226736   4.134   3.454   0.280
 8832WAT      O26737   3.443   0.941   3.643
 8832WAT     H126738   3.480   1.032   3.626
 8832WAT     H226739   3.383   0.915   3.567
 8833WAT      O26740   2.053   6.725   9.014
 8833WAT     H126741   2.100   6.790   8.955
 8833WAT     H226742   1.975   6.686   8.967
 8834WAT      O26743   2.677   5.202   7.278
 8834WAT     H126744   2.684   5.236   7.184
 8834WAT     H226745   2.691   5.278   7.342
 8835WAT      O26746   3.520   1.065   0.143
 8835WAT     H126747   3.550   1.113   0.226
 8835WAT     H226748   3.524   0.966   0.159
 8836WAT      O26749   6.501   1.310   0.775
 8836WAT     H126750   6.545   1.240   0.718
 8836WAT     H226751   6.405   1.287   0.787
 8837WAT      O26752   5.981   0.741   8.511
 8837WAT     H126753   5.935   0.816   8.557
 8837WAT     H226754   6.031   0.687   8.579
 8838WAT      O26755   9.583   5.326   1.257
 8838WAT     H126756   9.514   5.263   1.221
 8838WAT     H226757   9.601   5.398   1.190
 8839WAT      O26758   1.278   7.029   3.034
 8839WAT     H126759   1.251   6.933   3.030
 8839WAT     H226760   1.355   7.039   3.097
 8840WAT      O26761   0.468   8.048   0.759
 8840WAT     H126762   0.475   8.039   0.660
 8840WAT     H226763   0.500   7.963   0.803
 8841WAT      O26764   1.472   1.819   5.844
 8841WAT     H126765   1.440   1.914   5.834
 8841WAT     H226766   1.561   1.819   5.888
 8842WAT      O26767   4.686   2.113   9.546
 8842WAT     H126768   4.715   2.040   9.608
 8842WAT     H226769   4.605   2.082   9.495
 8843WAT      O26770   9.153   0.684   4.314
 8843WAT     H126771   9.243   0.725   4.326
 8843WAT     H226772   9.084   0.755   4.307
 8844WAT      O26773   9.105   6.580   1.971
 8844WAT     H126774   9.059   6.616   2.052
 8844WAT     H226775   9.148   6.654   1.920
 8845WAT      O26776   4.947   6.721   9.640
 8845WAT     H126777   5.019   6.753   9.702
 8845WAT     H226778   4.890   6.798   9.613
 8846WAT      O26779   5.103   0.165   6.018
 8846WAT     H126780   5.082   0.198   5.926
 8846WAT     H226781   5.020   0.127   6.060
 8847WAT      O26782   8.823   8.409   6.513
 8847WAT     H126783   8.864   8.410   6.604
 8847WAT     H226784   8.804   8.315   6.486
 8848WAT      O26785   3.044   3.772   3.007
 8848WAT     H126786   3.070   3.804   2.916
 8848WAT     H226787   2.978   3.697   2.998
 8849WAT      O26788   0.387   6.657   7.024
 8849WAT     H126789   0.441   6.654   6.940
 8849WAT     H226790   0.388   6.568   7.068
 8850WAT      O26791   7.316   3.260   2.866
 8850WAT     H126792   7.237   3.318   2.848
 8850WAT     H226793   7.296   3.166   2.838
 8851WAT      O26794   7.229   6.330   2.702
 8851WAT     H126795   7.149   6.272   2.685
 8851WAT     H226796   7.213   6.420   2.662
 8852WAT      O26797   1.471   5.550   2.040
 8852WAT     H126798   1.515   5.604   2.112
 8852WAT     H226799   1.539   5.521   1.973
 8853WAT      O26800   6.752   1.643   2.152
 8853WAT     H126801   6.680   1.613   2.216
 8853WAT     H226802   6.781   1.736   2.175
 8854WAT      O26803   5.784   8.486   6.886
 8854WAT     H126804   5.799   8.509   6.790
 8854WAT     H226805   5.714   8.547   6.924
 8855WAT      O26806   8.940   1.619   2.099
 8855WAT     H126807   8.840   1.625   2.105
 8855WAT     H226808   8.966   1.593   2.006
 8856WAT      O26809   2.587   7.099   4.202
 8856WAT     H126810   2.495   7.096   4.163
 8856WAT     H226811   2.648   7.040   4.149
 8857WAT      O26812   9.848   3.811   1.816
 8857WAT     H126813   9.895   3.726   1.791
 8857WAT     H226814   9.916   3.883   1.833
 8858WAT      O26815   4.026   1.216   2.770
 8858WAT     H126816   4.092   1.154   2.812
 8858WAT     H226817   4.022   1.301   2.823
 8859WAT      O26818   4.637   2.501   3.281
 8859WAT     H126819   4.635   2.422   3.219
 8859WAT     H226820   4.549   2.549   3.275
 8860WAT      O26821   3.147   1.694   4.831
 8860WAT     H126822   3.158   1.783   4.786
 8860WAT     H226823   3.147   1.622   4.762
 8861WAT      O26824   8.441   8.520   8.873
 8861WAT     H126825   8.537   8.499   8.853
 8861WAT     H226826   8.386   8.437   8.865
 8862WAT      O26827   1.073   5.620   8.107
 8862WAT     H126828   1.065   5.607   8.008
 8862WAT     H226829   0.998   5.679   8.138
 8863WAT      O26830   5.290   6.069   8.192
 8863WAT     H126831   5.371   6.106   8.239
 8863WAT     H226832   5.301   5.971   8.179
 8864WAT      O26833   7.889   7.885   1.697
 8864WAT     H126834   7.877   7.984   1.691
 8864WAT     H226835   7.808   7.839   1.660
 8865WAT      O26836   9.696   9.393   8.724
 8865WAT     H126837   9.760   9.450   8.672
 8865WAT     H226838   9.647   9.332   8.661
 8866WAT      O26839   0.383   5.353   4.468
 8866WAT     H126840   0.452   5.394   4.408
 8866WAT     H226841   0.428   5.311   4.547
 8867WAT      O26842   0.947   1.502   3.872
 8867WAT     H126843   0.860   1.456   3.857
 8867WAT     H226844   1.021   1.444   3.840
 8868WAT      O26845   7.246   3.998   8.539
 8868WAT     H126846   7.320   3.937   8.567
 8868WAT     H226847   7.206   4.041   8.619
 8869WAT      O26848   9.766   0.410   4.766
 8869WAT     H126849   9.738   0.505   4.760
 8869WAT     H226850   9.861   0.404   4.798
 8870WAT      O26851   5.346   4.561   9.820
 8870WAT     H126852   5.376   4.620   9.745
 8870WAT     H226853   5.363   4.466   9.797
 8871WAT      O26854   6.864   9.591   3.627
 8871WAT     H126855   6.801   9.550   3.693
 8871WAT     H226856   6.957   9.588   3.664
 8872WAT      O26857   4.805   2.974   4.059
 8872WAT     H126858   4.722   2.952   4.111
 8872WAT     H226859   4.883   2.927   4.101
 8873WAT      O26860   2.588   6.338   2.811
 8873WAT     H126861   2.609   6.275   2.736
 8873WAT     H226862   2.489   6.351   2.816
 8874WAT      O26863   3.647   5.182   9.475
 8874WAT     H126864   3.627   5.277   9.497
 8874WAT     H226865   3.607   5.122   9.544
 8875WAT      O26866   0.942   5.462   8.977
 8875WAT     H126867   0.859   5.406   8.983
 8875WAT     H226868   1.007   5.431   9.047
 8876WAT      O26869   1.640   7.100   7.505
 8876WAT     H126870   1.615   7.174   7.568
 8876WAT     H226871   1.678   7.139   7.422
 8877WAT      O26872   1.741   5.650   5.286
 8877WAT     H126873   1.643   5.650   5.271
 8877WAT     H226874   1.763   5.709   5.364
 8878WAT      O26875   4.544   3.905   0.581
 8878WAT     H126876   4.589   3.885   0.494
 8878WAT     H226877   4.485   3.985   0.570
 8879WAT      O26878   1.580   5.336   5.048
 8879WAT     H126879   1.664   5.390   5.056
 8879WAT     H226880   1.602   5.247   5.006
 8880WAT      O26881   5.164   1.529   5.891
 8880WAT     H126882   5.215   1.570   5.967
 8880WAT     H226883   5.161   1.593   5.815
 8881WAT      O26884   3.905   8.721   6.289
 8881WAT     H126885   3.823   8.771   6.261
 8881WAT     H226886   3.912   8.722   6.389
 8882WAT      O26887   6.879   8.329   7.396
 8882WAT     H126888   6.872   8.422   7.434
 8882WAT     H226889   6.953   8.280   7.442
 8883WAT      O26890   8.064   7.269   8.312
 8883WAT     H126891   8.074   7.181   8.358
 8883WAT     H226892   8.076   7.343   8.378
 8884WAT      O26893   9.272   6.668   3.713
 8884WAT     H126894   9.329   6.652   3.632
 8884WAT     H226895   9.254   6.766   3.721
 8885WAT      O26896   7.832   1.760   4.113
 8885WAT     H126897   7.795   1.849   4.139
 8885WAT     H226898   7.828   1.697   4.190
 8886WAT      O26899   6.191   5.998   0.037
 8886WAT     H126900   6.196   6.025  -0.059
 8886WAT     H226901   6.211   6.076   0.095
 8887WAT      O26902   4.376   6.904   7.436
 8887WAT     H126903   4.431   6.833   7.481
 8887WAT     H226904   4.279   6.890   7.457
 8888WAT      O26905   2.649   9.509   8.981
 8888WAT     H126906   2.575   9.566   8.945
 8888WAT     H226907   2.698   9.466   8.905
 8889WAT      O26908   7.782   7.162   3.932
 8889WAT     H126909   7.828   7.221   3.865
 8889WAT     H226910   7.763   7.215   4.015
 8890WAT      O26911   1.193   3.242   1.932
 8890WAT     H126912   1.185   3.167   1.997
 8890WAT     H226913   1.255   3.216   1.859
 8891WAT      O26914   3.498   8.925   8.302
 8891WAT     H126915   3.515   8.842   8.354
 8891WAT     H226916   3.410   8.965   8.328
 8892WAT      O26917   2.779   8.436   2.987
 8892WAT     H126918   2.725   8.352   2.991
 8892WAT     H226919   2.720   8.515   3.001
 8893WAT      O26920   3.058   8.434   4.547
 8893WAT     H126921   3.018   8.415   4.637
 8893WAT     H226922   3.141   8.380   4.536
 8894WAT      O26923   1.120   3.315   5.858
 8894WAT     H126924   1.067   3.232   5.872
 8894WAT     H226925   1.194   3.319   5.925
 8895WAT      O26926   0.663   8.089   0.233
 8895WAT     H126927   0.710   8.060   0.317
 8895WAT     H226928   0.565   8.075   0.243
 8896WAT      O26929   3.007   1.433   6.387
 8896WAT     H126930   2.997   1.375   6.306
 8896WAT     H226931   2.925   1.424   6.444
 8897WAT      O26932   2.855   0.515   0.519
 8897WAT     H126933   2.757   0.504   0.537
 8897WAT     H226934   2.870   0.595   0.461
 8898WAT      O26935   9.091   5.464   3.088
 8898WAT     H126936   9.030   5.399   3.135
 8898WAT     H226937   9.080   5.554   3.130
 8899WAT      O26938   9.274   1.400   4.006
 8899WAT     H126939   9.316   1.411   3.916
 8899WAT     H226940   9.285   1.306   4.038
 8900WAT      O26941   8.070   2.077   5.685
 8900WAT     H126942   8.026   2.149   5.632
 8900WAT     H226943   8.168   2.077   5.665
 8901WAT      O26944   8.481   6.766   0.155
 8901WAT     H126945   8.452   6.793   0.247
 8901WAT     H226946   8.536   6.682   0.161
 8902WAT      O26947   7.388   1.848   1.449
 8902WAT     H126948   7.432   1.775   1.500
 8902WAT     H226949   7.315   1.889   1.504
 8903WAT      O26950   0.773   6.538   5.303
 8903WAT     H126951   0.696   6.477   5.321
 8903WAT     H226952   0.751   6.599   5.227
 8904WAT      O26953   0.395   8.898   7.261
 8904WAT     H126954   0.355   8.825   7.317
 8904WAT     H226955   0.352   8.898   7.171
 8905WAT      O26956   0.741   2.980   1.724
 8905WAT     H126957   0.772   2.961   1.631
 8905WAT     H226958   0.808   2.945   1.789
 8906WAT      O26959   2.593   8.199   8.464
 8906WAT     H126960   2.571   8.292   8.496
 8906WAT     H226961   2.647   8.205   8.380
 8907WAT      O26962   8.554   0.965   9.659
 8907WAT     H126963   8.650   0.971   9.633
 8907WAT     H226964   8.533   0.871   9.685
 8908WAT      O26965   6.382   9.571   0.246
 8908WAT     H126966   6.366   9.479   0.211
 8908WAT     H226967   6.332   9.583   0.332
 8909WAT      O26968   6.057   8.359   2.751
 8909WAT     H126969   6.125   8.321   2.814
 8909WAT     H226970   6.053   8.304   2.668
 8910WAT      O26971   8.782   7.180   9.553
 8910WAT     H126972   8.820   7.162   9.462
 8910WAT     H226973   8.688   7.213   9.544
 8911WAT      O26974   2.591   1.064   3.787
 8911WAT     H126975   2.677   1.014   3.784
 8911WAT     H226976   2.608   1.162   3.773
 8912WAT      O26977   8.787   1.283   1.271
 8912WAT     H126978   8.808   1.242   1.182
 8912WAT     H226979   8.766   1.380   1.257
 8913WAT      O26980   6.684   6.673   4.383
 8913WAT     H126981   6.755   6.652   4.316
 8913WAT     H226982   6.616   6.599   4.384
 8914WAT      O26983   2.061   2.149   0.519
 8914WAT     H126984   2.093   2.115   0.608
 8914WAT     H226985   2.019   2.074   0.468
 8915WAT      O26986   3.311   1.926   5.060
 8915WAT     H126987   3.310   2.025   5.064
 8915WAT     H226988   3.219   1.891   5.077
 8916WAT      O26989   3.583   7.198   2.774
 8916WAT     H126990   3.560   7.289   2.809
 8916WAT     H226991   3.650   7.207   2.701
 8917WAT      O26992   2.696   6.899   6.676
 8917WAT     H126993   2.742   6.844   6.606
 8917WAT     H226994   2.737   6.880   6.765
 8918WAT      O26995   7.852   9.226   4.296
 8918WAT     H126996   7.952   9.231   4.297
 8918WAT     H226997   7.817   9.234   4.389
 8919WAT      O26998   9.453   1.760   4.307
 8919WAT     H126999   9.491   1.849   4.281
 8919WAT     H227000   9.496   1.688   4.252
 8920WAT      O27001   5.009   9.403   2.455
 8920WAT     H127002   5.020   9.373   2.550
 8920WAT     H227003   4.915   9.434   2.442
 8921WAT      O27004   1.579   0.187   2.790
 8921WAT     H127005   1.486   0.159   2.810
 8921WAT     H227006   1.639   0.159   2.865
 8922WAT      O27007   6.705   7.995   4.427
 8922WAT     H127008   6.613   8.001   4.465
 8922WAT     H227009   6.760   7.930   4.479
 8923WAT      O27010   8.827   0.526   4.943
 8923WAT     H127011   8.830   0.499   4.847
 8923WAT     H227012   8.820   0.444   5.000
 8924WAT      O27013   1.814   6.883   7.516
 8924WAT     H127014   1.767   6.971   7.504
 8924WAT     H227015   1.770   6.831   7.589
 8925WAT      O27016   0.421   0.492   4.473
 8925WAT     H127017   0.457   0.570   4.524
 8925WAT     H227018   0.464   0.488   4.383
 8926WAT      O27019   4.648   4.493   2.363
 8926WAT     H127020   4.705   4.411   2.354
 8926WAT     H227021   4.605   4.494   2.453
 8927WAT      O27022   0.568   3.395   6.024
 8927WAT     H127023   0.638   3.324   6.015
 8927WAT     H227024   0.504   3.390   5.948
 8928WAT      O27025   7.418   8.918   6.803
 8928WAT     H127026   7.407   8.844   6.737
 8928WAT     H227027   7.330   8.935   6.849
 8929WAT      O27028   5.722   7.359   1.904
 8929WAT     H127029   5.775   7.277   1.885
 8929WAT     H227030   5.697   7.404   1.818
 8930WAT      O27031   2.864   2.229   3.836
 8930WAT     H127032   2.904   2.138   3.826
 8930WAT     H227033   2.764   2.222   3.833
 8931WAT      O27034   6.408   2.182   1.169
 8931WAT     H127035   6.332   2.228   1.123
 8931WAT     H227036   6.458   2.126   1.103
 8932WAT      O27037   7.625   2.291   2.255
 8932WAT     H127038   7.694   2.329   2.316
 8932WAT     H227039   7.553   2.358   2.240
 8933WAT      O27040   3.906   8.323   0.072
 8933WAT     H127041   3.812   8.299   0.096
 8933WAT     H227042   3.906   8.399   0.006
 8934WAT      O27043   8.102   3.193   4.153
 8934WAT     H127044   8.071   3.282   4.119
 8934WAT     H227045   8.024   3.132   4.162
 8935WAT      O27046   9.695   4.305   3.099
 8935WAT     H127047   9.645   4.219   3.082
 8935WAT     H227048   9.791   4.291   3.077
 8936WAT      O27049   3.878   6.954   2.647
 8936WAT     H127050   3.819   6.921   2.720
 8936WAT     H227051   3.969   6.975   2.683
 8937WAT      O27052   1.673   6.044   5.438
 8937WAT     H127053   1.603   6.008   5.376
 8937WAT     H227054   1.744   5.975   5.451
 8938WAT      O27055   9.643   5.834   6.352
 8938WAT     H127056   9.618   5.739   6.336
 8938WAT     H227057   9.742   5.845   6.344
 8939WAT      O27058   5.248   3.591   6.483
 8939WAT     H127059   5.173   3.526   6.470
 8939WAT     H227060   5.225   3.676   6.435
 8940WAT      O27061   4.200   6.916   3.326
 8940WAT     H127062   4.111   6.937   3.367
 8940WAT     H227063   4.258   6.869   3.394
 8941WAT      O27064   5.647   5.582   5.327
 8941WAT     H127065   5.607   5.535   5.406
 8941WAT     H227066   5.745   5.595   5.343
 8942WAT      O27067   5.912   7.052   4.418
 8942WAT     H127068   5.902   7.130   4.479
 8942WAT     H227069   5.823   7.006   4.409
 8943WAT      O27070   2.182   2.002   0.217
 8943WAT     H127071   2.272   1.984   0.256
 8943WAT     H227072   2.141   2.081   0.261
 8944WAT      O27073   6.390   2.648   0.338
 8944WAT     H127074   6.449   2.626   0.415
 8944WAT     H227075   6.328   2.723   0.363
 8945WAT      O27076   9.091   6.626   6.052
 8945WAT     H127077   9.165   6.610   5.987
 8945WAT     H227078   9.130   6.643   6.143
 8946WAT      O27079   8.649   0.745   3.713
 8946WAT     H127080   8.677   0.727   3.619
 8946WAT     H227081   8.713   0.702   3.777
 8947WAT      O27082   2.769   5.552   1.171
 8947WAT     H127083   2.868   5.543   1.160
 8947WAT     H227084   2.727   5.462   1.182
 8948WAT      O27085   6.745   7.302   0.458
 8948WAT     H127086   6.818   7.301   0.526
 8948WAT     H227087   6.721   7.208   0.433
 8949WAT      O27088   6.472   6.211   4.618
 8949WAT     H127089   6.403   6.201   4.546
 8949WAT     H227090   6.431   6.187   4.706
 8950WAT      O27091   7.482   8.002   1.676
 8950WAT     H127092   7.514   8.073   1.738
 8950WAT     H227093   7.551   7.931   1.667
 8951WAT      O27094   6.050   5.963   0.481
 8951WAT     H127095   6.044   5.900   0.403
 8951WAT     H227096   6.059   5.910   0.565
 8952WAT      O27097   4.167   4.252   3.188
 8952WAT     H127098   4.174   4.153   3.198
 8952WAT     H227099   4.196   4.279   3.096
 8953WAT      O27100   9.505   1.153   6.892
 8953WAT     H127101   9.449   1.163   6.974
 8953WAT     H227102   9.581   1.091   6.911
 8954WAT      O27103   4.247   8.537   8.518
 8954WAT     H127104   4.163   8.484   8.531
 8954WAT     H227105   4.325   8.483   8.549
 8955WAT      O27106   6.155   1.595   7.768
 8955WAT     H127107   6.124   1.531   7.696
 8955WAT     H227108   6.177   1.683   7.727
 8956WAT      O27109   0.845   1.710   9.480
 8956WAT     H127110   0.792   1.663   9.550
 8956WAT     H227111   0.790   1.719   9.397
 8957WAT      O27112   0.228   6.360   5.898
 8957WAT     H127113   0.298   6.304   5.853
 8957WAT     H227114   0.163   6.394   5.830
 8958WAT      O27115   2.849   6.397   7.204
 8958WAT     H127116   2.804   6.486   7.201
 8958WAT     H227117   2.804   6.339   7.271
 8959WAT      O27118   2.158   3.743   6.121
 8959WAT     H127119   2.083   3.676   6.121
 8959WAT     H227120   2.222   3.722   6.047
 8960WAT      O27121   8.735   2.958   0.846
 8960WAT     H127122   8.760   2.870   0.808
 8960WAT     H227123   8.767   3.031   0.786
 8961WAT      O27124   6.333   7.886   2.744
 8961WAT     H127125   6.413   7.874   2.803
 8961WAT     H227126   6.265   7.941   2.793
 8962WAT      O27127   5.352   4.705   9.314
 8962WAT     H127128   5.433   4.718   9.257
 8962WAT     H227129   5.276   4.758   9.276
 8963WAT      O27130   4.028   2.657   4.571
 8963WAT     H127131   3.988   2.723   4.506
 8963WAT     H227132   4.125   2.676   4.581
 8964WAT      O27133   1.380   8.860   0.657
 8964WAT     H127134   1.310   8.920   0.619
 8964WAT     H227135   1.343   8.811   0.736
 8965WAT      O27136   1.059   8.175   7.045
 8965WAT     H127137   1.096   8.266   7.066
 8965WAT     H227138   0.967   8.184   7.009
 8966WAT      O27139   8.131   1.848   2.546
 8966WAT     H127140   8.073   1.767   2.534
 8966WAT     H227141   8.186   1.861   2.463
 8967WAT      O27142   1.731   2.314   7.070
 8967WAT     H127143   1.719   2.259   6.987
 8967WAT     H227144   1.658   2.292   7.135
 8968WAT      O27145   0.677   6.390   5.043
 8968WAT     H127146   0.581   6.361   5.039
 8968WAT     H227147   0.725   6.336   5.112
 8969WAT      O27148   7.170   7.379   2.949
 8969WAT     H127149   7.255   7.327   2.942
 8969WAT     H227150   7.174   7.457   2.887
 8970WAT      O27151   6.984   7.027   2.292
 8970WAT     H127152   6.912   7.090   2.263
 8970WAT     H227153   6.970   7.002   2.388
 8971WAT      O27154   7.512   0.678   2.868
 8971WAT     H127155   7.464   0.615   2.807
 8971WAT     H227156   7.447   0.741   2.909
 8972WAT      O27157   7.668   7.039   2.165
 8972WAT     H127158   7.671   7.105   2.240
 8972WAT     H227159   7.689   6.948   2.199
 8973WAT      O27160   3.296   4.566   6.562
 8973WAT     H127161   3.332   4.598   6.474
 8973WAT     H227162   3.202   4.534   6.551
 8974WAT      O27163   1.001   6.749   9.835
 8974WAT     H127164   0.996   6.824   9.769
 8974WAT     H227165   0.933   6.680   9.813
 8975WAT      O27166   9.789   4.775   7.431
 8975WAT     H127167   9.815   4.860   7.385
 8975WAT     H227168   9.694   4.753   7.410
 8976WAT      O27169   8.862   1.467   5.611
 8976WAT     H127170   8.918   1.549   5.610
 8976WAT     H227171   8.910   1.393   5.564
 8977WAT      O27172   2.776   8.946   6.525
 8977WAT     H127173   2.755   9.028   6.578
 8977WAT     H227174   2.692   8.896   6.506
 8978WAT      O27175   2.136   6.626   6.096
 8978WAT     H127176   2.175   6.575   6.173
 8978WAT     H227177   2.202   6.628   6.021
 8979WAT      O27178   7.596   4.955   7.812
 8979WAT     H127179   7.501   4.963   7.780
 8979WAT     H227180   7.634   4.868   7.782
 8980WAT      O27181   7.516   1.525   2.055
 8980WAT     H127182   7.547   1.618   2.032
 8980WAT     H227183   7.425   1.529   2.096
 8981WAT      O27184   5.921   4.364   2.224
 8981WAT     H127185   5.836   4.403   2.188
 8981WAT     H227186   5.934   4.394   2.319
 8982WAT      O27187   4.352   3.337   0.772
 8982WAT     H127188   4.447   3.366   0.790
 8982WAT     H227189   4.323   3.274   0.843
 8983WAT      O27190   2.689   6.707   3.324
 8983WAT     H127191   2.760   6.777   3.333
 8983WAT     H227192   2.685   6.677   3.229
 8984WAT      O27193   0.963   6.549   4.425
 8984WAT     H127194   0.973   6.581   4.519
 8984WAT     H227195   0.945   6.450   4.425
 8985WAT      O27196   1.961   7.596   6.375
 8985WAT     H127197   1.936   7.693   6.376
 8985WAT     H227198   1.918   7.550   6.453
 8986WAT      O27199   2.423   7.727   3.375
 8986WAT     H127200   2.368   7.796   3.329
 8986WAT     H227201   2.395   7.720   3.471
 8987WAT      O27202   2.254   3.761   5.681
 8987WAT     H127203   2.350   3.792   5.682
 8987WAT     H227204   2.239   3.700   5.604
 8988WAT      O27205   6.147   8.399   3.766
 8988WAT     H127206   6.158   8.467   3.840
 8988WAT     H227207   6.156   8.307   3.805
 8989WAT      O27208   2.973   3.406   2.126
 8989WAT     H127209   2.928   3.494   2.114
 8989WAT     H227210   3.030   3.386   2.047
 8990WAT      O27211   0.446   4.707   3.054
 8990WAT     H127212   0.354   4.703   3.095
 8990WAT     H227213   0.454   4.635   2.985
 8991WAT      O27214   7.869   1.139   4.384
 8991WAT     H127215   7.883   1.048   4.346
 8991WAT     H227216   7.952   1.193   4.371
 8992WAT      O27217   7.674   8.589   4.593
 8992WAT     H127218   7.678   8.660   4.523
 8992WAT     H227219   7.744   8.520   4.575
 8993WAT      O27220   5.876   9.660   7.586
 8993WAT     H127221   5.894   9.682   7.490
 8993WAT     H227222   5.942   9.592   7.618
 8994WAT      O27223   1.584   7.205   2.508
 8994WAT     H127224   1.631   7.181   2.423
 8994WAT     H227225   1.622   7.151   2.583
 8995WAT      O27226   8.008   3.342   4.645
 8995WAT     H127227   8.066   3.414   4.606
 8995WAT     H227228   8.032   3.328   4.741
 8996WAT      O27229   0.729   2.901   8.041
 8996WAT     H127230   0.825   2.878   8.058
 8996WAT     H227231   0.672   2.821   8.061
 8997WAT      O27232   4.137   3.245   5.020
 8997WAT     H127233   4.211   3.302   4.984
 8997WAT     H227234   4.159   3.148   5.005
 8998WAT      O27235   6.140   0.858   4.146
 8998WAT     H127236   6.193   0.940   4.124
 8998WAT     H227237   6.192   0.777   4.119
 8999WAT      O27238   5.057   3.048   0.510
 8999WAT     H127239   4.995   3.127   0.513
 8999WAT     H227240   5.007   2.967   0.482
 9000WAT      O27241   7.686   4.357   5.382
 9000WAT     H127242   7.731   4.390   5.299
 9000WAT     H227243   7.693   4.257   5.385
 9001WAT      O27244   0.126   6.767   2.149
 9001WAT     H127245   0.114   6.709   2.068
 9001WAT     H227246   0.206   6.825   2.136
 9002WAT      O27247   0.433   7.799   0.037
 9002WAT     H127248   0.522   7.796   0.081
 9002WAT     H227249   0.421   7.717  -0.020
 9003WAT      O27250   0.589   0.979   0.398
 9003WAT     H127251   0.586   0.998   0.496
 9003WAT     H227252   0.499   0.946   0.368
 9004WAT      O27253   4.533   9.036   7.332
 9004WAT     H127254   4.493   8.987   7.409
 9004WAT     H227255   4.475   9.026   7.252
 9005WAT      O27256   9.334   3.458   6.706
 9005WAT     H127257   9.272   3.392   6.662
 9005WAT     H227258   9.428   3.425   6.698
 9006WAT      O27259   0.843   5.032   7.315
 9006WAT     H127260   0.795   5.119   7.300
 9006WAT     H227261   0.891   5.005   7.232
 9007WAT      O27262   7.873   3.385   1.300
 9007WAT     H127263   7.802   3.422   1.240
 9007WAT     H227264   7.912   3.303   1.259
 9008WAT      O27265   6.941   4.630   4.241
 9008WAT     H127266   6.911   4.670   4.154
 9008WAT     H227267   6.902   4.682   4.317
 9009WAT      O27268   1.429   2.875   3.571
 9009WAT     H127269   1.463   2.967   3.588
 9009WAT     H227270   1.449   2.817   3.650
 9010WAT      O27271   2.620   7.595   1.203
 9010WAT     H127272   2.521   7.578   1.205
 9010WAT     H227273   2.642   7.656   1.127
 9011WAT      O27274   9.028   0.255   8.411
 9011WAT     H127275   9.007   0.159   8.430
 9011WAT     H227276   8.962   0.291   8.346
 9012WAT      O27277   4.717   2.883   0.593
 9012WAT     H127278   4.725   2.858   0.496
 9012WAT     H227279   4.621   2.879   0.621
 9013WAT      O27280   6.245   7.388   0.845
 9013WAT     H127281   6.295   7.325   0.785
 9013WAT     H227282   6.276   7.376   0.939
 9014WAT      O27283   7.672   3.996   7.158
 9014WAT     H127284   7.648   3.967   7.065
 9014WAT     H227285   7.768   4.026   7.159
 9015WAT      O27286   7.505   2.932   9.134
 9015WAT     H127287   7.533   2.966   9.044
 9015WAT     H227288   7.570   2.962   9.203
 9016WAT      O27289   3.528   1.591   0.380
 9016WAT     H127290   3.441   1.546   0.358
 9016WAT     H227291   3.532   1.680   0.334
 9017WAT      O27292   6.379   5.852   3.367
 9017WAT     H127293   6.329   5.771   3.397
 9017WAT     H227294   6.314   5.922   3.337
 9018WAT      O27295   0.239   2.789   2.758
 9018WAT     H127296   0.142   2.784   2.734
 9018WAT     H227297   0.261   2.717   2.823
 9019WAT      O27298   2.388   7.742   4.043
 9019WAT     H127299   2.462   7.755   4.110
 9019WAT     H227300   2.425   7.701   3.960
 9020WAT      O27301   3.248   4.849   6.225
 9020WAT     H127302   3.330   4.867   6.170
 9020WAT     H227303   3.247   4.910   6.304
 9021WAT      O27304   6.173   1.911   3.712
 9021WAT     H127305   6.231   1.920   3.631
 9021WAT     H227306   6.229   1.905   3.794
 9022WAT      O27307   2.313   0.801   5.810
 9022WAT     H127308   2.283   0.820   5.717
 9022WAT     H227309   2.253   0.732   5.851
 9023WAT      O27310   4.985   3.298   2.795
 9023WAT     H127311   4.998   3.392   2.825
 9023WAT     H227312   5.059   3.241   2.829
 9024WAT      O27313   7.129   6.287   6.712
 9024WAT     H127314   7.097   6.193   6.727
 9024WAT     H227315   7.066   6.334   6.650
 9025WAT      O27316   3.744   5.022   8.033
 9025WAT     H127317   3.739   4.934   7.986
 9025WAT     H227318   3.804   5.014   8.113
 9026WAT      O27319   1.216   6.216   2.292
 9026WAT     H127320   1.277   6.256   2.360
 9026WAT     H227321   1.136   6.275   2.279
 9027WAT      O27322   7.918   2.212   4.974
 9027WAT     H127323   7.905   2.305   5.008
 9027WAT     H227324   7.935   2.151   5.052
 9028WAT      O27325   9.630   3.583   0.205
 9028WAT     H127326   9.653   3.519   0.279
 9028WAT     H227327   9.562   3.648   0.238
 9029WAT      O27328   8.222   8.944   4.803
 9029WAT     H127329   8.258   9.013   4.740
 9029WAT     H227330   8.152   8.890   4.756
 9030WAT      O27331   5.242   9.539   8.393
 9030WAT     H127332   5.219   9.445   8.369
 9030WAT     H227333   5.293   9.581   8.318
 9031WAT      O27334   8.186   3.557   2.399
 9031WAT     H127335   8.162   3.620   2.325
 9031WAT     H227336   8.114   3.489   2.409
 9032WAT      O27337   0.149   4.480   7.802
 9032WAT     H127338   0.110   4.431   7.879
 9032WAT     H227339   0.174   4.573   7.830
 9033WAT      O27340   8.980   2.709   8.841
 9033WAT     H127341   8.924   2.659   8.907
 9033WAT     H227342   8.920   2.756   8.776
 9034WAT      O27343   6.929   0.213   6.460
 9034WAT     H127344   6.991   0.287   6.487
 9034WAT     H227345   6.888   0.235   6.371
 9035WAT      O27346   3.861   3.769   8.500
 9035WAT     H127347   3.886   3.866   8.505
 9035WAT     H227348   3.780   3.758   8.443
 9036WAT      O27349   4.257   7.828   1.126
 9036WAT     H127350   4.224   7.769   1.199
 9036WAT     H227351   4.202   7.814   1.044
 9037WAT      O27352   2.377   6.328   5.440
 9037WAT     H127353   2.331   6.396   5.382
 9037WAT     H227354   2.467   6.308   5.402
 9038WAT      O27355   5.279   8.326   5.492
 9038WAT     H127356   5.275   8.414   5.445
 9038WAT     H227357   5.189   8.282   5.487
 9039WAT      O27358   3.084   1.360   0.653
 9039WAT     H127359   3.103   1.271   0.612
 9039WAT     H227360   3.169   1.398   0.691
 9040WAT      O27361   6.099   7.323   0.484
 9040WAT     H127362   6.024   7.389   0.481
 9040WAT     H227363   6.062   7.231   0.472
 9041WAT      O27364   0.665   3.923   7.644
 9041WAT     H127365   0.613   3.845   7.609
 9041WAT     H227366   0.602   3.999   7.663
 9042WAT      O27367   1.978   2.972   8.407
 9042WAT     H127368   1.914   2.947   8.480
 9042WAT     H227369   2.071   2.973   8.444
 9043WAT      O27370   7.361   6.898   1.731
 9043WAT     H127371   7.349   6.993   1.761
 9043WAT     H227372   7.441   6.891   1.673
 9044WAT      O27373   6.712   3.010   9.698
 9044WAT     H127374   6.807   3.039   9.693
 9044WAT     H227375   6.657   3.082   9.739
 9045WAT      O27376   2.895   3.328   0.647
 9045WAT     H127377   2.806   3.324   0.693
 9045WAT     H227378   2.957   3.262   0.689
 9046WAT      O27379   9.539   0.553   7.597
 9046WAT     H127380   9.492   0.632   7.635
 9046WAT     H227381   9.500   0.469   7.635
 9047WAT      O27382   7.108   7.872   5.800
 9047WAT     H127383   7.060   7.956   5.776
 9047WAT     H227384   7.083   7.799   5.736
 9048WAT      O27385   7.530   2.358   4.989
 9048WAT     H127386   7.537   2.298   5.068
 9048WAT     H227387   7.479   2.310   4.916
 9049WAT      O27388   6.853   8.377   9.067
 9049WAT     H127389   6.843   8.474   9.046
 9049WAT     H227390   6.876   8.327   8.984
 9050WAT      O27391   9.715   3.162   4.031
 9050WAT     H127392   9.649   3.149   3.957
 9050WAT     H227393   9.667   3.162   4.119
 9051WAT      O27394   0.459   3.561   0.836
 9051WAT     H127395   0.464   3.660   0.852
 9051WAT     H227396   0.506   3.514   0.911
 9052WAT      O27397   1.621   8.109   3.447
 9052WAT     H127398   1.558   8.106   3.525
 9052WAT     H227399   1.635   8.017   3.411
 9053WAT      O27400   2.040   4.896   5.015
 9053WAT     H127401   2.006   4.990   5.007
 9053WAT     H227402   1.964   4.832   5.007
 9054WAT      O27403   9.128   5.761   5.050
 9054WAT     H127404   9.163   5.725   5.136
 9054WAT     H227405   9.192   5.742   4.976
 9055WAT      O27406   7.279   0.230   2.012
 9055WAT     H127407   7.201   0.293   2.020
 9055WAT     H227408   7.247   0.141   1.981
 9056WAT      O27409   9.733   0.868   1.486
 9056WAT     H127410   9.793   0.944   1.511
 9056WAT     H227411   9.737   0.798   1.558
 9057WAT      O27412   8.736   0.062   8.849
 9057WAT     H127413   8.799   0.131   8.885
 9057WAT     H227414   8.783  -0.027   8.847
 9058WAT      O27415   6.976   5.181   3.265
 9058WAT     H127416   7.022   5.270   3.272
 9058WAT     H227417   6.950   5.165   3.170
 9059WAT      O27418   3.724   6.458   7.743
 9059WAT     H127419   3.778   6.537   7.716
 9059WAT     H227420   3.776   6.374   7.727
 9060WAT      O27421   9.523   4.833   6.458
 9060WAT     H127422   9.527   4.780   6.373
 9060WAT     H227423   9.615   4.843   6.495
 9061WAT      O27424   3.102   7.570   0.100
 9061WAT     H127425   3.060   7.633   0.165
 9061WAT     H227426   3.051   7.484   0.098
 9062WAT      O27427   7.611   1.978   0.033
 9062WAT     H127428   7.558   1.895   0.051
 9062WAT     H227429   7.649   2.013   0.119
 9063WAT      O27430   0.876   3.495   5.128
 9063WAT     H127431   0.890   3.416   5.068
 9063WAT     H227432   0.896   3.470   5.222
 9064WAT      O27433   3.320   1.866   4.295
 9064WAT     H127434   3.349   1.907   4.381
 9064WAT     H227435   3.377   1.901   4.221
 9065WAT      O27436   8.808   0.790   2.167
 9065WAT     H127437   8.861   0.729   2.108
 9065WAT     H227438   8.710   0.778   2.148
 9066WAT      O27439   8.178   8.677   2.454
 9066WAT     H127440   8.176   8.769   2.416
 9066WAT     H227441   8.254   8.670   2.519
 9067WAT      O27442   7.920   3.883   8.867
 9067WAT     H127443   7.986   3.816   8.901
 9067WAT     H227444   7.849   3.898   8.936
 9068WAT      O27445   2.535   3.028   0.149
 9068WAT     H127446   2.437   3.048   0.153
 9068WAT     H227447   2.584   3.109   0.116
 9069WAT      O27448   4.285   5.370   9.421
 9069WAT     H127449   4.297   5.303   9.347
 9069WAT     H227450   4.374   5.392   9.460
 9070WAT      O27451   8.052   8.809   4.678
 9070WAT     H127452   8.083   8.743   4.609
 9070WAT     H227453   7.958   8.790   4.703
 9071WAT      O27454   9.717   3.807   7.538
 9071WAT     H127455   9.663   3.873   7.591
 9071WAT     H227456   9.814   3.819   7.560
 9072WAT      O27457   4.318   0.414   5.955
 9072WAT     H127458   4.310   0.416   5.856
 9072WAT     H227459   4.227   0.407   5.996
 9073WAT      O27460   1.266   4.981   0.565
 9073WAT     H127461   1.338   4.983   0.634
 9073WAT     H227462   1.308   4.986   0.474
 9074WAT      O27463   8.752   7.209   7.140
 9074WAT     H127464   8.657   7.219   7.112
 9074WAT     H227465   8.794   7.299   7.149
 9075WAT      O27466   3.293   6.433   7.555
 9075WAT     H127467   3.208   6.480   7.533
 9075WAT     H227468   3.283   6.335   7.533
 9076WAT      O27469   3.536   7.174   2.324
 9076WAT     H127470   3.463   7.164   2.392
 9076WAT     H227471   3.496   7.198   2.235
 9077WAT      O27472   9.540   4.744   6.203
 9077WAT     H127473   9.604   4.669   6.188
 9077WAT     H227474   9.456   4.727   6.151
 9078WAT      O27475   2.883   1.847   5.465
 9078WAT     H127476   2.826   1.822   5.544
 9078WAT     H227477   2.934   1.766   5.435
 9079WAT      O27478   6.810   5.451   3.696
 9079WAT     H127479   6.824   5.352   3.694
 9079WAT     H227480   6.892   5.495   3.732
 9080WAT      O27481   4.873   4.746   5.626
 9080WAT     H127482   4.962   4.740   5.579
 9080WAT     H227483   4.876   4.689   5.708
 9081WAT      O27484   5.436   8.571   1.338
 9081WAT     H127485   5.396   8.496   1.392
 9081WAT     H227486   5.444   8.543   1.243
 9082WAT      O27487   1.137   1.040   3.669
 9082WAT     H127488   1.114   0.944   3.656
 9082WAT     H227489   1.084   1.096   3.605
 9083WAT      O27490   9.768   3.402   7.425
 9083WAT     H127491   9.698   3.462   7.385
 9083WAT     H227492   9.767   3.314   7.378
 9084WAT      O27493   5.421   8.656   6.729
 9084WAT     H127494   5.511   8.678   6.768
 9084WAT     H227495   5.391   8.567   6.762
 9085WAT      O27496   2.167   1.122   4.421
 9085WAT     H127497   2.165   1.129   4.321
 9085WAT     H227498   2.105   1.050   4.451
 9086WAT      O27499   9.264   2.655   8.204
 9086WAT     H127500   9.354   2.692   8.229
 9086WAT     H227501   9.266   2.622   8.110
 9087WAT      O27502   3.378   0.191   7.663
 9087WAT     H127503   3.357   0.281   7.627
 9087WAT     H227504   3.382   0.195   7.763
 9088WAT      O27505   8.116   6.372   0.589
 9088WAT     H127506   8.061   6.442   0.543
 9088WAT     H227507   8.212   6.403   0.592
 9089WAT      O27508   0.432   9.536   6.386
 9089WAT     H127509   0.389   9.447   6.405
 9089WAT     H227510   0.459   9.579   6.472
 9090WAT      O27511   3.073   7.415   2.626
 9090WAT     H127512   3.063   7.468   2.710
 9090WAT     H227513   3.119   7.470   2.556
 9091WAT      O27514   9.831   1.325   8.739
 9091WAT     H127515   9.876   1.236   8.744
 9091WAT     H227516   9.741   1.315   8.697
 9092WAT      O27517   8.396   1.002   4.179
 9092WAT     H127518   8.302   1.030   4.158
 9092WAT     H227519   8.442   0.975   4.094
 9093WAT      O27520   6.831   1.556   2.686
 9093WAT     H127521   6.752   1.616   2.687
 9093WAT     H227522   6.806   1.468   2.647
 9094WAT      O27523   7.150   5.795   2.288
 9094WAT     H127524   7.159   5.710   2.341
 9094WAT     H227525   7.239   5.823   2.254
 9095WAT      O27526   1.004   8.644   7.104
 9095WAT     H127527   0.935   8.640   7.176
 9095WAT     H227528   1.066   8.721   7.121
 9096WAT      O27529   3.793   6.323   4.858
 9096WAT     H127530   3.881   6.340   4.902
 9096WAT     H227531   3.753   6.238   4.894
 9097WAT      O27532   3.341   7.028   6.151
 9097WAT     H127533   3.265   7.054   6.092
 9097WAT     H227534   3.390   6.951   6.110
 9098WAT      O27535   2.177   5.717   6.429
 9098WAT     H127536   2.183   5.700   6.331
 9098WAT     H227537   2.100   5.665   6.467
 9099WAT      O27538   3.555   0.803   0.095
 9099WAT     H127539   3.525   0.719   0.140
 9099WAT     H227540   3.525   0.802  -0.000
 9100WAT      O27541   3.073   5.237   3.107
 9100WAT     H127542   3.060   5.179   3.026
 9100WAT     H227543   3.031   5.193   3.187
 9101WAT      O27544   9.714   1.783   3.036
 9101WAT     H127545   9.791   1.836   3.073
 9101WAT     H227546   9.750   1.709   2.980
 9102WAT      O27547   0.233   2.431   3.873
 9102WAT     H127548   0.327   2.464   3.870
 9102WAT     H227549   0.186   2.455   3.788
 9103WAT      O27550   1.473   9.660   3.627
 9103WAT     H127551   1.521   9.573   3.615
 9103WAT     H227552   1.394   9.646   3.687
 9104WAT      O27553   3.248   8.289   5.689
 9104WAT     H127554   3.220   8.383   5.671
 9104WAT     H227555   3.347   8.284   5.698
 9105WAT      O27556   1.795   0.514   4.797
 9105WAT     H127557   1.750   0.535   4.711
 9105WAT     H227558   1.730   0.523   4.872
 9106WAT      O27559   2.526   0.149   7.585
 9106WAT     H127560   2.467   0.200   7.647
 9106WAT     H227561   2.610   0.122   7.633
 9107WAT      O27562   8.264   0.590   0.962
 9107WAT     H127563   8.217   0.519   0.910
 9107WAT     H227564   8.345   0.621   0.911
 9108WAT      O27565   0.099   2.633   3.451
 9108WAT     H127566   0.132   2.564   3.516
 9108WAT     H227567   0.016   2.600   3.406
 9109WAT      O27568   8.982   9.170   1.243
 9109WAT     H127569   9.003   9.190   1.338
 9109WAT     H227570   8.986   9.071   1.228
 9110WAT      O27571   5.905   0.718   7.847
 9110WAT     H127572   5.878   0.752   7.937
 9110WAT     H227573   5.886   0.788   7.778
 9111WAT      O27574   4.825   3.030   0.235
 9111WAT     H127575   4.778   2.942   0.239
 9111WAT     H227576   4.770   3.099   0.283
 9112WAT      O27577   0.492   1.245   2.925
 9112WAT     H127578   0.522   1.184   2.998
 9112WAT     H227579   0.504   1.340   2.954
 9113WAT      O27580   5.594   4.752   9.173
 9113WAT     H127581   5.669   4.728   9.112
 9113WAT     H227582   5.567   4.847   9.157
 9114WAT      O27583   8.109   6.549   2.678
 9114WAT     H127584   8.073   6.544   2.585
 9114WAT     H227585   8.048   6.498   2.739
 9115WAT      O27586   8.832   2.792   6.576
 9115WAT     H127587   8.924   2.818   6.604
 9115WAT     H227588   8.813   2.699   6.607
 9116WAT      O27589   2.348   4.772   8.537
 9116WAT     H127590   2.320   4.676   8.530
 9116WAT     H227591   2.274   4.826   8.576
 9117WAT      O27592   3.838   5.350   1.668
 9117WAT     H127593   3.870   5.272   1.615
 9117WAT     H227594   3.842   5.328   1.766
 9118WAT      O27595   7.738   3.636   9.699
 9118WAT     H127596   7.767   3.724   9.736
 9118WAT     H227597   7.767   3.563   9.761
 9119WAT      O27598   7.019   8.607   9.366
 9119WAT     H127599   6.965   8.641   9.289
 9119WAT     H227600   7.097   8.554   9.333
 9120WAT      O27601   4.980   9.608   5.989
 9120WAT     H127602   5.002   9.517   6.025
 9120WAT     H227603   4.885   9.631   6.013
 9121WAT      O27604   1.486   0.306   6.775
 9121WAT     H127605   1.521   0.392   6.737
 9121WAT     H227606   1.458   0.246   6.701
 9122WAT      O27607   7.564   0.620   9.871
 9122WAT     H127608   7.637   0.556   9.846
 9122WAT     H227609   7.488   0.570   9.911
 9123WAT      O27610   8.309   2.697   3.901
 9123WAT     H127611   8.353   2.727   3.985
 9123WAT     H227612   8.316   2.598   3.893
 9124WAT      O27613   7.099   3.648   1.442
 9124WAT     H127614   7.034   3.572   1.453
 9124WAT     H227615   7.147   3.662   1.529
 9125WAT      O27616   7.225   8.060   3.087
 9125WAT     H127617   7.324   8.054   3.098
 9125WAT     H227618   7.198   8.156   3.085
 9126WAT      O27619   7.092   3.010   1.364
 9126WAT     H127620   7.175   2.990   1.415
 9126WAT     H227621   7.015   2.960   1.404
 9127WAT      O27622   2.284   3.175   4.402
 9127WAT     H127623   2.342   3.153   4.480
 9127WAT     H227624   2.298   3.270   4.375
 9128WAT      O27625   4.981   4.931   0.966
 9128WAT     H127626   5.027   4.968   0.885
 9128WAT     H227627   4.957   4.835   0.949
 9129WAT      O27628   6.792   9.465   9.636
 9129WAT     H127629   6.874   9.408   9.640
 9129WAT     H227630   6.721   9.424   9.694
 9130WAT      O27631   5.845   4.204   9.508
 9130WAT     H127632   5.934   4.180   9.547
 9130WAT     H227633   5.784   4.234   9.581
 9131WAT      O27634   9.559   0.469   7.326
 9131WAT     H127635   9.597   0.502   7.412
 9131WAT     H227636   9.459   0.462   7.334
 9132WAT      O27637   6.029   8.114   2.300
 9132WAT     H127638   6.054   8.018   2.295
 9132WAT     H227639   6.060   8.161   2.216
 9133WAT      O27640   2.847   9.676   5.064
 9133WAT     H127641   2.839   9.582   5.033
 9133WAT     H227642   2.765   9.727   5.037
 9134WAT      O27643   3.837   7.509   5.966
 9134WAT     H127644   3.813   7.524   6.062
 9134WAT     H227645   3.762   7.462   5.919
 9135WAT      O27646   3.145   4.255   0.641
 9135WAT     H127647   3.166   4.331   0.579
 9135WAT     H227648   3.050   4.228   0.630
 9136WAT      O27649   1.236   6.107   1.926
 9136WAT     H127650   1.303   6.098   2.000
 9136WAT     H227651   1.147   6.073   1.957
 9137WAT      O27652   0.742   8.023   0.486
 9137WAT     H127653   0.668   7.957   0.474
 9137WAT     H227654   0.788   8.007   0.573
 9138WAT      O27655   9.858   5.672   9.693
 9138WAT     H127656   9.760   5.654   9.682
 9138WAT     H227657   9.910   5.594   9.657
 9139WAT      O27658   6.174   1.046   7.044
 9139WAT     H127659   6.133   0.996   6.969
 9139WAT     H227660   6.204   1.136   7.012
 9140WAT      O27661   6.048   4.406   5.455
 9140WAT     H127662   6.145   4.407   5.479
 9140WAT     H227663   6.002   4.333   5.505
 9141WAT      O27664   7.363   3.981   3.236
 9141WAT     H127665   7.444   4.025   3.274
 9141WAT     H227666   7.387   3.889   3.204
 9142WAT      O27667   7.733   2.243   0.046
 9142WAT     H127668   7.666   2.309   0.015
 9142WAT     H227669   7.720   2.156  -0.002
 9143WAT      O27670   4.719   0.419   7.885
 9143WAT     H127671   4.727   0.428   7.785
 9143WAT     H227672   4.640   0.471   7.916
 9144WAT      O27673   5.597   1.228   0.689
 9144WAT     H127674   5.696   1.217   0.697
 9144WAT     H227675   5.576   1.289   0.613
 9145WAT      O27676   4.561   2.047   1.102
 9145WAT     H127677   4.497   2.120   1.125
 9145WAT     H227678   4.650   2.066   1.145
 9146WAT      O27679   0.439   6.483   2.184
 9146WAT     H127680   0.380   6.426   2.241
 9146WAT     H227681   0.384   6.526   2.112
 9147WAT      O27682   8.492   0.537   4.449
 9147WAT     H127683   8.413   0.574   4.498
 9147WAT     H227684   8.576   0.580   4.482
 9148WAT      O27685   2.379   4.080   9.588
 9148WAT     H127686   2.319   4.001   9.604
 9148WAT     H227687   2.441   4.090   9.666
 9149WAT      O27688   1.423   1.899   5.348
 9149WAT     H127689   1.405   1.836   5.424
 9149WAT     H227690   1.347   1.894   5.283
 9150WAT      O27691   7.442   7.783   6.169
 9150WAT     H127692   7.500   7.836   6.107
 9150WAT     H227693   7.372   7.735   6.116
 9151WAT      O27694   6.824   5.352   1.040
 9151WAT     H127695   6.907   5.407   1.027
 9151WAT     H227696   6.755   5.378   0.973
 9152WAT      O27697   9.282   7.325   8.382
 9152WAT     H127698   9.272   7.403   8.320
 9152WAT     H227699   9.193   7.280   8.393
 9153WAT      O27700   8.329   3.419   6.047
 9153WAT     H127701   8.370   3.381   6.130
 9153WAT     H227702   8.245   3.370   6.026
 9154WAT      O27703   4.962   2.278   2.596
 9154WAT     H127704   4.962   2.208   2.667
 9154WAT     H227705   4.953   2.368   2.638
 9155WAT      O27706   9.618   2.741   2.614
 9155WAT     H127707   9.565   2.816   2.575
 9155WAT     H227708   9.556   2.665   2.635
 9156WAT      O27709   7.014   4.496   6.679
 9156WAT     H127710   7.091   4.494   6.744
 9156WAT     H227711   7.014   4.584   6.632
 9157WAT      O27712   6.640   3.488   7.392
 9157WAT     H127713   6.690   3.438   7.323
 9157WAT     H227714   6.701   3.551   7.440
 9158WAT      O27715   3.498   7.039   0.323
 9158WAT     H127716   3.558   7.012   0.399
 9158WAT     H227717   3.403   7.024   0.348
 9159WAT      O27718   5.272   9.058   6.378
 9159WAT     H127719   5.196   9.005   6.340
 9159WAT     H227720   5.240   9.111   6.457
 9160WAT      O27721   5.204   9.571   0.922
 9160WAT     H127722   5.142   9.580   0.844
 9160WAT     H227723   5.151   9.548   1.004
 9161WAT      O27724   3.089   8.738   0.271
 9161WAT     H127725   3.094   8.656   0.214
 9161WAT     H227726   3.179   8.756   0.311
 9162WAT      O27727   0.415   3.630   1.116
 9162WAT     H127728   0.502   3.584   1.099
 9162WAT     H227729   0.413   3.717   1.067
 9163WAT      O27730   8.507   4.117   3.889
 9163WAT     H127731   8.434   4.178   3.919
 9163WAT     H227732   8.579   4.171   3.843
 9164WAT      O27733   5.250   6.064   7.816
 9164WAT     H127734   5.330   6.125   7.812
 9164WAT     H227735   5.253   6.001   7.738
 9165WAT      O27736   0.256   5.676   1.013
 9165WAT     H127737   0.264   5.763   0.965
 9165WAT     H227738   0.181   5.681   1.080
 9166WAT      O27739   5.858   5.693   6.018
 9166WAT     H127740   5.862   5.687   5.919
 9166WAT     H227741   5.948   5.674   6.057
 9167WAT      O27742   3.851   6.831   0.705
 9167WAT     H127743   3.804   6.754   0.750
 9167WAT     H227744   3.941   6.843   0.745
 9168WAT      O27745   7.484   6.417   6.860
 9168WAT     H127746   7.509   6.369   6.776
 9168WAT     H227747   7.390   6.449   6.853
 9169WAT      O27748   5.025   5.193   7.489
 9169WAT     H127749   5.015   5.274   7.431
 9169WAT     H227750   5.103   5.138   7.457
 9170WAT      O27751   4.287   3.367   7.014
 9170WAT     H127752   4.378   3.402   6.992
 9170WAT     H227753   4.251   3.417   7.094
 9171WAT      O27754   8.890   8.484   4.732
 9171WAT     H127755   8.940   8.515   4.650
 9171WAT     H227756   8.874   8.385   4.725
 9172WAT      O27757   1.577   7.430   4.054
 9172WAT     H127758   1.674   7.421   4.032
 9172WAT     H227759   1.553   7.527   4.061
 9173WAT      O27760   2.794   3.436   9.585
 9173WAT     H127761   2.820   3.415   9.679
 9173WAT     H227762   2.724   3.507   9.585
 9174WAT      O27763   9.704   1.568   6.802
 9174WAT     H127764   9.738   1.601   6.714
 9174WAT     H227765   9.735   1.474   6.817
 9175WAT      O27766   2.741   4.950   7.291
 9175WAT     H127767   2.837   4.945   7.266
 9175WAT     H227768   2.707   5.042   7.276
 9176WAT      O27769   3.881   6.362   9.748
 9176WAT     H127770   3.883   6.462   9.744
 9176WAT     H227771   3.821   6.327   9.676
 9177WAT      O27772   4.040   5.405   7.895
 9177WAT     H127773   3.983   5.487   7.900
 9177WAT     H227774   4.097   5.410   7.813
 9178WAT      O27775   6.039   8.648   8.989
 9178WAT     H127776   5.958   8.679   9.039
 9178WAT     H227777   6.012   8.581   8.920
 9179WAT      O27778   3.934   9.098   4.843
 9179WAT     H127779   3.895   9.186   4.815
 9179WAT     H227780   3.859   9.035   4.867
 9180WAT      O27781   8.279   9.588   6.405
 9180WAT     H127782   8.273   9.509   6.344
 9180WAT     H227783   8.188   9.627   6.419
 9181WAT      O27784   3.697   5.853   3.509
 9181WAT     H127785   3.792   5.873   3.485
 9181WAT     H227786   3.680   5.755   3.496
 9182WAT      O27787   0.240   4.443   9.808
 9182WAT     H127788   0.176   4.479   9.876
 9182WAT     H227789   0.194   4.436   9.720
 9183WAT      O27790   0.529   4.776   7.716
 9183WAT     H127791   0.594   4.737   7.781
 9183WAT     H227792   0.535   4.876   7.718
 9184WAT      O27793   9.685   3.056   5.670
 9184WAT     H127794   9.627   3.090   5.744
 9184WAT     H227795   9.631   3.045   5.587
 9185WAT      O27796   1.936   1.689   2.073
 9185WAT     H127797   2.007   1.750   2.108
 9185WAT     H227798   1.976   1.625   2.007
 9186WAT      O27799   5.086   6.496   8.959
 9186WAT     H127800   5.125   6.405   8.950
 9186WAT     H227801   5.153   6.558   9.000
 9187WAT      O27802   2.352   8.887   0.888
 9187WAT     H127803   2.425   8.898   0.821
 9187WAT     H227804   2.275   8.839   0.846
 9188WAT      O27805   5.230   3.294   9.110
 9188WAT     H127806   5.170   3.222   9.145
 9188WAT     H227807   5.197   3.383   9.140
 9189WAT      O27808   2.147   9.710   7.931
 9189WAT     H127809   2.210   9.635   7.949
 9189WAT     H227810   2.199   9.794   7.916
 9190WAT      O27811   5.711   3.952   5.340
 9190WAT     H127812   5.622   3.950   5.386
 9190WAT     H227813   5.727   3.864   5.296
 9191WAT      O27814   1.138   5.924   7.879
 9191WAT     H127815   1.190   5.965   7.804
 9191WAT     H227816   1.044   5.956   7.877
 9192WAT      O27817   8.693   2.542   7.858
 9192WAT     H127818   8.649   2.583   7.937
 9192WAT     H227819   8.625   2.500   7.799
 9193WAT      O27820   6.280   9.428   6.918
 9193WAT     H127821   6.265   9.330   6.933
 9193WAT     H227822   6.228   9.480   6.985
 9194WAT      O27823   7.952   9.771   1.709
 9194WAT     H127824   7.876   9.832   1.686
 9194WAT     H227825   7.939   9.737   1.802
 9195WAT      O27826   4.512   4.462   8.789
 9195WAT     H127827   4.573   4.469   8.867
 9195WAT     H227828   4.494   4.366   8.768
 9196WAT      O27829   2.081   3.834   0.916
 9196WAT     H127830   2.003   3.880   0.875
 9196WAT     H227831   2.053   3.744   0.949
 9197WAT      O27832   7.193   0.333   2.451
 9197WAT     H127833   7.176   0.402   2.521
 9197WAT     H227834   7.119   0.336   2.383
 9198WAT      O27835   5.759   9.248   9.824
 9198WAT     H127836   5.779   9.197   9.741
 9198WAT     H227837   5.808   9.335   9.823
 9199WAT      O27838   5.331   1.016   3.626
 9199WAT     H127839   5.336   0.972   3.536
 9199WAT     H227840   5.237   1.044   3.644
 9200WAT      O27841   3.398   5.217   3.020
 9200WAT     H127842   3.338   5.137   3.025
 9200WAT     H227843   3.443   5.221   2.931
 9201WAT      O27844   2.526   5.807   7.867
 9201WAT     H127845   2.617   5.775   7.839
 9201WAT     H227846   2.487   5.742   7.932
 9202WAT      O27847   1.067   8.267   4.862
 9202WAT     H127848   1.117   8.206   4.923
 9202WAT     H227849   1.111   8.357   4.862
 9203WAT      O27850   6.289   1.745   6.702
 9203WAT     H127851   6.328   1.813   6.765
 9203WAT     H227852   6.232   1.791   6.634
 9204WAT      O27853   5.326   7.953   5.709
 9204WAT     H127854   5.390   8.028   5.725
 9204WAT     H227855   5.282   7.927   5.795
 9205WAT      O27856   5.028   3.990   8.099
 9205WAT     H127857   4.962   3.921   8.071
 9205WAT     H227858   5.105   3.946   8.146
 9206WAT      O27859   3.946   9.650   8.674
 9206WAT     H127860   3.999   9.618   8.753
 9206WAT     H227861   3.893   9.573   8.637
 9207WAT      O27862   2.143   9.506   8.573
 9207WAT     H127863   2.148   9.606   8.566
 9207WAT     H227864   2.233   9.470   8.597
 9208WAT      O27865   2.642   9.789   6.047
 9208WAT     H127866   2.660   9.753   5.955
 9208WAT     H227867   2.543   9.802   6.058
 9209WAT      O27868   6.372   8.342   0.701
 9209WAT     H127869   6.320   8.427   0.704
 9209WAT     H227870   6.314   8.269   0.664
 9210WAT      O27871   1.601   9.104   0.318
 9210WAT     H127872   1.587   9.121   0.416
 9210WAT     H227873   1.512   9.102   0.272
 9211WAT      O27874   1.948   9.504   5.692
 9211WAT     H127875   1.959   9.405   5.705
 9211WAT     H227876   2.028   9.540   5.644
 9212WAT      O27877   8.908   9.746   0.196
 9212WAT     H127878   8.998   9.712   0.223
 9212WAT     H227879   8.902   9.751   0.096
 9213WAT      O27880   9.425   2.259   7.397
 9213WAT     H127881   9.471   2.192   7.340
 9213WAT     H227882   9.329   2.234   7.409
 9214WAT      O27883   6.265   8.264   5.934
 9214WAT     H127884   6.203   8.235   5.861
 9214WAT     H227885   6.278   8.188   5.998
 9215WAT      O27886   6.237   5.500   2.964
 9215WAT     H127887   6.327   5.532   2.933
 9215WAT     H227888   6.216   5.413   2.921
 9216WAT      O27889   1.588   3.265   0.645
 9216WAT     H127890   1.566   3.239   0.739
 9216WAT     H227891   1.571   3.188   0.584
 9217WAT      O27892   6.607   0.927   8.719
 9217WAT     H127893   6.534   0.958   8.658
 9217WAT     H227894   6.692   0.919   8.668
 9218WAT      O27895   4.630   2.274   9.198
 9218WAT     H127896   4.538   2.292   9.162
 9218WAT     H227897   4.653   2.178   9.186
 9219WAT      O27898   7.899   0.105   4.561
 9219WAT     H127899   7.939   0.040   4.626
 9219WAT     H227900   7.973   0.150   4.509
 9220WAT      O27901   1.858   0.335   6.562
 9220WAT     H127902   1.840   0.310   6.467
 9220WAT     H227903   1.852   0.254   6.620
 9221WAT      O27904   9.328   8.679   6.884
 9221WAT     H127905   9.248   8.626   6.856
 9221WAT     H227906   9.371   8.634   6.962
 9222WAT      O27907   3.417   5.813   0.966
 9222WAT     H127908   3.396   5.768   1.053
 9222WAT     H227909   3.348   5.883   0.947
 9223WAT      O27910   2.901   1.648   8.981
 9223WAT     H127911   2.981   1.708   8.993
 9223WAT     H227912   2.926   1.555   9.008
 9224WAT      O27913   5.488   0.979   0.516
 9224WAT     H127914   5.438   0.987   0.602
 9224WAT     H227915   5.441   1.032   0.445
 9225WAT      O27916   9.172   0.836   9.853
 9225WAT     H127917   9.193   0.916   9.796
 9225WAT     H227918   9.155   0.757   9.794
 9226WAT      O27919   0.199   5.832   2.215
 9226WAT     H127920   0.271   5.774   2.253
 9226WAT     H227921   0.240   5.907   2.164
 9227WAT      O27922   1.369   9.429   4.951
 9227WAT     H127923   1.373   9.447   5.049
 9227WAT     H227924   1.413   9.503   4.901
 9228WAT      O27925   2.334   4.971   4.657
 9228WAT     H127926   2.265   4.973   4.584
 9228WAT     H227927   2.397   4.895   4.640
 9229WAT      O27928   2.577   8.033   0.784
 9229WAT     H127929   2.604   8.114   0.836
 9229WAT     H227930   2.496   7.992   0.826
 9230WAT      O27931   2.165   8.198   0.120
 9230WAT     H127932   2.094   8.184   0.051
 9230WAT     H227933   2.124   8.231   0.205
 9231WAT      O27934   9.163   9.661   7.096
 9231WAT     H127935   9.168   9.605   7.179
 9231WAT     H227936   9.201   9.751   7.114
 9232WAT      O27937   7.475   1.313   5.328
 9232WAT     H127938   7.437   1.263   5.250
 9232WAT     H227939   7.537   1.252   5.379
 9233WAT      O27940   2.515   6.481   7.348
 9233WAT     H127941   2.573   6.556   7.317
 9233WAT     H227942   2.527   6.468   7.447
 9234WAT      O27943   1.211   3.520   1.747
 9234WAT     H127944   1.294   3.565   1.779
 9234WAT     H227945   1.234   3.432   1.705
 9235WAT      O27946   8.036   5.536   5.293
 9235WAT     H127947   8.024   5.544   5.194
 9235WAT     H227948   8.114   5.476   5.311
 9236WAT      O27949   6.826   6.471   4.708
 9236WAT     H127950   6.762   6.547   4.698
 9236WAT     H227951   6.810   6.425   4.795
 9237WAT      O27952   0.196   8.320   3.435
 9237WAT     H127953   0.183   8.255   3.359
 9237WAT     H227954   0.114   8.375   3.447
 9238WAT      O27955   1.442   7.380   5.049
 9238WAT     H127956   1.481   7.302   5.001
 9238WAT     H227957   1.468   7.377   5.145
 9239WAT      O27958   3.606   5.323   8.680
 9239WAT     H127959   3.604   5.255   8.753
 9239WAT     H227960   3.622   5.414   8.719
 9240WAT      O27961   8.537   4.771   3.836
 9240WAT     H127962   8.558   4.700   3.902
 9240WAT     H227963   8.563   4.860   3.873
 9241WAT      O27964   1.423   5.623   0.590
 9241WAT     H127965   1.513   5.647   0.628
 9241WAT     H227966   1.387   5.700   0.537
 9242WAT      O27967   5.857   7.112   8.864
 9242WAT     H127968   5.766   7.138   8.831
 9242WAT     H227969   5.906   7.193   8.896
 9243WAT      O27970   1.985   7.377   3.635
 9243WAT     H127971   1.965   7.468   3.671
 9243WAT     H227972   2.004   7.383   3.537
 9244WAT      O27973   7.664   4.527   0.271
 9244WAT     H127974   7.582   4.584   0.277
 9244WAT     H227975   7.743   4.579   0.305
 9245WAT      O27976   7.842   8.513   7.003
 9245WAT     H127977   7.816   8.492   6.909
 9245WAT     H227978   7.779   8.468   7.067
 9246WAT      O27979   7.507   3.740   3.681
 9246WAT     H127980   7.436   3.743   3.751
 9246WAT     H227981   7.477   3.793   3.601
 9247WAT      O27982   6.741   8.707   9.467
 9247WAT     H127983   6.776   8.618   9.495
 9247WAT     H227984   6.812   8.776   9.481
 9248WAT      O27985   0.878   6.033   4.120
 9248WAT     H127986   0.961   6.010   4.068
 9248WAT     H227987   0.870   6.132   4.128
 9249WAT      O27988   4.373   0.809   2.284
 9249WAT     H127989   4.293   0.776   2.334
 9249WAT     H227990   4.410   0.890   2.330
 9250WAT      O27991   6.408   9.239   5.339
 9250WAT     H127992   6.371   9.321   5.383
 9250WAT     H227993   6.359   9.222   5.254
 9251WAT      O27994   5.931   9.084   7.614
 9251WAT     H127995   5.899   9.015   7.678
 9251WAT     H227996   5.854   9.116   7.558
 9252WAT      O27997   0.841   1.602   0.350
 9252WAT     H127998   0.753   1.648   0.338
 9252WAT     H227999   0.895   1.612   0.267
 9253WAT      O28000   0.317   0.069   1.921
 9253WAT     H128001   0.341  -0.028   1.931
 9253WAT     H228002   0.255   0.096   1.995
 9254WAT      O28003   0.908   7.817   6.846
 9254WAT     H128004   0.997   7.855   6.868
 9254WAT     H228005   0.888   7.741   6.908
 9255WAT      O28006   3.743   6.785   6.032
 9255WAT     H128007   3.769   6.802   6.128
 9255WAT     H228008   3.760   6.867   5.978
 9256WAT      O28009   7.037   7.285   2.705
 9256WAT     H128010   7.018   7.304   2.801
 9256WAT     H228011   6.952   7.258   2.659
 9257WAT      O28012   7.899   1.882   5.657
 9257WAT     H128013   7.959   1.962   5.653
 9257WAT     H228014   7.805   1.911   5.673
 9258WAT      O28015   3.897   5.204   6.051
 9258WAT     H128016   3.979   5.175   6.001
 9258WAT     H228017   3.837   5.254   5.988
 9259WAT      O28018   1.821   7.374   1.819
 9259WAT     H128019   1.898   7.429   1.787
 9259WAT     H228020   1.765   7.345   1.741
 9260WAT      O28021   7.447   8.883   6.384
 9260WAT     H128022   7.384   8.931   6.322
 9260WAT     H228023   7.395   8.827   6.448
 9261WAT      O28024   9.391   6.296   0.500
 9261WAT     H128025   9.302   6.292   0.545
 9261WAT     H228026   9.403   6.216   0.441
 9262WAT      O28027   0.589   3.907   9.156
 9262WAT     H128028   0.600   3.808   9.140
 9262WAT     H228029   0.550   3.922   9.246
 9263WAT      O28030   6.627   8.237   0.772
 9263WAT     H128031   6.638   8.254   0.870
 9263WAT     H228032   6.545   8.284   0.739
 9264WAT      O28033   6.213   1.063   8.200
 9264WAT     H128034   6.219   1.094   8.106
 9264WAT     H228035   6.258   1.129   8.260
 9265WAT      O28036   1.430   7.792   4.809
 9265WAT     H128037   1.512   7.836   4.845
 9265WAT     H228038   1.385   7.740   4.881
 9266WAT      O28039   5.651   0.017   0.216
 9266WAT     H128040   5.690   0.106   0.239
 9266WAT     H228041   5.695  -0.019   0.133
 9267WAT      O28042   9.592   1.172   1.612
 9267WAT     H128043   9.682   1.131   1.597
 9267WAT     H228044   9.533   1.152   1.534
 9268WAT      O28045   8.319   5.564   2.996
 9268WAT     H128046   8.259   5.595   3.069
 9268WAT     H228047   8.266   5.554   2.911
 9269WAT      O28048   2.544   3.454   0.240
 9269WAT     H128049   2.590   3.394   0.175
 9269WAT     H228050   2.446   3.432   0.242
 9270WAT      O28051   4.444   0.967   9.051
 9270WAT     H128052   4.375   0.944   8.983
 9270WAT     H228053   4.520   1.014   9.007
 9271WAT      O28054   8.772   6.325   1.790
 9271WAT     H128055   8.863   6.338   1.749
 9271WAT     H228056   8.732   6.414   1.812
 9272WAT      O28057   2.949   3.969   6.077
 9272WAT     H128058   2.980   3.882   6.116
 9272WAT     H228059   3.012   4.042   6.103
 9273WAT      O28060   9.160   8.289   8.781
 9273WAT     H128061   9.149   8.387   8.764
 9273WAT     H228062   9.098   8.261   8.854
 9274WAT      O28063   0.084   7.815   7.171
 9274WAT     H128064   0.096   7.721   7.139
 9274WAT     H228065  -0.012   7.841   7.163
 9275WAT      O28066   3.163   8.009   3.853
 9275WAT     H128067   3.223   7.929   3.854
 9275WAT     H228068   3.214   8.090   3.884
 9276WAT      O28069   5.317   2.046   6.984
 9276WAT     H128070   5.361   2.118   6.930
 9276WAT     H228071   5.333   1.958   6.941
 9277WAT      O28072   5.941   5.704   7.913
 9277WAT     H128073   6.035   5.686   7.884
 9277WAT     H228074   5.918   5.799   7.893
 9278WAT      O28075   8.945   8.892   2.803
 9278WAT     H128076   8.972   8.801   2.773
 9278WAT     H228077   9.021   8.956   2.790
 9279WAT      O28078   0.212   8.257   9.267
 9279WAT     H128079   0.259   8.170   9.279
 9279WAT     H228080   0.275   8.332   9.291
 9280WAT      O28081   2.399   1.758   2.855
 9280WAT     H128082   2.431   1.669   2.887
 9280WAT     H228083   2.319   1.746   2.797
 9281WAT      O28084   1.935   5.839   0.104
 9281WAT     H128085   1.949   5.821   0.006
 9281WAT     H228086   2.024   5.851   0.148
 9282WAT      O28087   2.895   2.921   2.911
 9282WAT     H128088   2.828   2.979   2.865
 9282WAT     H228089   2.863   2.900   3.003
 9283WAT      O28090   4.375   5.386   1.123
 9283WAT     H128091   4.330   5.301   1.094
 9283WAT     H228092   4.336   5.418   1.209
 9284WAT      O28093   9.483   4.584   1.665
 9284WAT     H128094   9.472   4.563   1.763
 9284WAT     H228095   9.576   4.558   1.636
 9285WAT      O28096   4.874   8.976   1.155
 9285WAT     H128097   4.790   8.950   1.204
 9285WAT     H228098   4.917   9.053   1.202
 9286WAT      O28099   5.315   5.652   3.089
 9286WAT     H128100   5.387   5.591   3.120
 9286WAT     H228101   5.240   5.653   3.155
 9287WAT      O28102   2.730   4.350   9.154
 9287WAT     H128103   2.724   4.440   9.197
 9287WAT     H228104   2.825   4.320   9.153
 9288WAT      O28105   9.260   1.215   2.061
 9288WAT     H128106   9.203   1.220   1.979
 9288WAT     H228107   9.291   1.306   2.086
 9289WAT      O28108   3.817   1.869   0.305
 9289WAT     H128109   3.745   1.921   0.352
 9289WAT     H228110   3.775   1.811   0.235
 9290WAT      O28111   6.072   4.790   5.261
 9290WAT     H128112   6.084   4.890   5.255
 9290WAT     H228113   6.142   4.752   5.321
 9291WAT      O28114   5.236   0.084   4.511
 9291WAT     H128115   5.255   0.034   4.427
 9291WAT     H228116   5.249   0.182   4.495
 9292WAT      O28117   3.469   1.059   8.120
 9292WAT     H128118   3.544   1.123   8.135
 9292WAT     H228119   3.414   1.051   8.204
 9293WAT      O28120   7.519   9.810   9.458
 9293WAT     H128121   7.474   9.890   9.497
 9293WAT     H228122   7.449   9.748   9.420
 9294WAT      O28123   4.371   6.369   1.507
 9294WAT     H128124   4.457   6.337   1.547
 9294WAT     H228125   4.307   6.293   1.500
 9295WAT      O28126   0.426   2.078   6.922
 9295WAT     H128127   0.455   2.110   6.832
 9295WAT     H228128   0.505   2.070   6.982
 9296WAT      O28129   3.669   1.746   8.351
 9296WAT     H128130   3.659   1.825   8.291
 9296WAT     H228131   3.737   1.766   8.421
 9297WAT      O28132   6.130   2.866   9.118
 9297WAT     H128133   6.090   2.877   9.027
 9297WAT     H228134   6.063   2.894   9.188
 9298WAT      O28135   2.685   3.003   8.393
 9298WAT     H128136   2.694   2.967   8.300
 9298WAT     H228137   2.608   3.067   8.398
 9299WAT      O28138   2.513   1.665   0.326
 9299WAT     H128139   2.535   1.667   0.229
 9299WAT     H228140   2.597   1.668   0.380
 9300WAT      O28141   3.307   5.722   8.176
 9300WAT     H128142   3.406   5.709   8.170
 9300WAT     H228143   3.261   5.641   8.140
 9301WAT      O28144   7.240   4.682   9.731
 9301WAT     H128145   7.305   4.754   9.754
 9301WAT     H228146   7.245   4.662   9.633
 9302WAT      O28147   1.814   7.021   4.493
 9302WAT     H128148   1.796   7.077   4.412
 9302WAT     H228149   1.739   7.033   4.559
 9303WAT      O28150   4.109   0.894   2.205
 9303WAT     H128151   4.048   0.916   2.128
 9303WAT     H228152   4.202   0.879   2.170
 9304WAT      O28153   4.465   6.488   9.240
 9304WAT     H128154   4.535   6.516   9.305
 9304WAT     H228155   4.505   6.482   9.148
 9305WAT      O28156   8.972   0.719   0.113
 9305WAT     H128157   8.877   0.739   0.091
 9305WAT     H228158   9.031   0.788   0.071
 9306WAT      O28159   3.362   1.309   5.717
 9306WAT     H128160   3.277   1.292   5.667
 9306WAT     H228161   3.433   1.246   5.684
 9307WAT      O28162   3.134   0.310   0.934
 9307WAT     H128163   3.092   0.279   0.849
 9307WAT     H228164   3.139   0.410   0.935
 9308WAT      O28165   1.903   8.437   0.263
 9308WAT     H128166   1.896   8.525   0.217
 9308WAT     H228167   1.863   8.366   0.206
 9309WAT      O28168   7.324   3.218   7.454
 9309WAT     H128169   7.281   3.190   7.368
 9309WAT     H228170   7.351   3.136   7.505
 9310WAT      O28171   0.427   1.572   5.286
 9310WAT     H128172   0.342   1.581   5.338
 9310WAT     H228173   0.473   1.486   5.311
 9311WAT      O28174   8.090   3.210   0.608
 9311WAT     H128175   8.090   3.194   0.509
 9311WAT     H228176   8.089   3.309   0.625
 9312WAT      O28177   7.749   8.739   8.017
 9312WAT     H128178   7.664   8.760   7.968
 9312WAT     H228179   7.819   8.711   7.952
 9313WAT      O28180   8.662   9.113   4.205
 9313WAT     H128181   8.621   9.175   4.272
 9313WAT     H228182   8.667   9.021   4.243
 9314WAT      O28183   2.396   8.793   8.946
 9314WAT     H128184   2.361   8.801   8.853
 9314WAT     H228185   2.446   8.875   8.970
 9315WAT      O28186   5.069   8.739   1.128
 9315WAT     H128187   5.025   8.824   1.156
 9315WAT     H228188   5.103   8.690   1.208
 9316WAT      O28189   2.479   4.819   2.587
 9316WAT     H128190   2.529   4.902   2.562
 9316WAT     H228191   2.534   4.764   2.650
 9317WAT      O28192   8.212   1.387   2.305
 9317WAT     H128193   8.263   1.329   2.242
 9317WAT     H228194   8.115   1.361   2.304
 9318WAT      O28195   5.737   3.610   4.889
 9318WAT     H128196   5.694   3.641   4.804
 9318WAT     H228197   5.807   3.542   4.868
 9319WAT      O28198   6.301   1.003   9.509
 9319WAT     H128199   6.272   1.027   9.417
 9319WAT     H228200   6.374   1.066   9.538
 9320WAT      O28201   2.737   9.049   2.956
 9320WAT     H128202   2.639   9.044   2.975
 9320WAT     H228203   2.751   9.082   2.862
 9321WAT      O28204   0.852   1.854   7.864
 9321WAT     H128205   0.887   1.818   7.951
 9321WAT     H228206   0.915   1.924   7.830
 9322WAT      O28207   5.768   1.802   9.419
 9322WAT     H128208   5.864   1.823   9.397
 9322WAT     H228209   5.746   1.710   9.384
 9323WAT      O28210   2.850   9.642   5.348
 9323WAT     H128211   2.808   9.569   5.402
 9323WAT     H228212   2.853   9.615   5.252
 9324WAT      O28213   1.483   6.470   9.643
 9324WAT     H128214   1.429   6.553   9.631
 9324WAT     H228215   1.574   6.484   9.603
 9325WAT      O28216   3.013   8.151   4.349
 9325WAT     H128217   2.968   8.174   4.435
 9325WAT     H228218   2.965   8.195   4.273
 9326WAT      O28219   9.718   0.166   4.845
 9326WAT     H128220   9.737   0.261   4.821
 9326WAT     H228221   9.620   0.152   4.850
 9327WAT      O28222   3.892   5.469   0.386
 9327WAT     H128223   3.873   5.402   0.314
 9327WAT     H228224   3.986   5.457   0.419
 9328WAT      O28225   1.710   0.589   8.027
 9328WAT     H128226   1.678   0.674   7.986
 9328WAT     H228227   1.771   0.609   8.104
 9329WAT      O28228   1.376   8.536   5.334
 9329WAT     H128229   1.416   8.513   5.423
 9329WAT     H228230   1.418   8.478   5.264
 9330WAT      O28231   6.376   3.012   0.742
 9330WAT     H128232   6.387   2.915   0.718
 9330WAT     H228233   6.441   3.036   0.813
 9331WAT      O28234   9.350   5.499   6.081
 9331WAT     H128235   9.423   5.524   6.017
 9331WAT     H228236   9.292   5.579   6.097
 9332WAT      O28237   7.103   9.840   5.303
 9332WAT     H128238   7.186   9.796   5.338
 9332WAT     H228239   7.109   9.939   5.317
 9333WAT      O28240   7.799   2.744   6.758
 9333WAT     H128241   7.741   2.788   6.826
 9333WAT     H228242   7.807   2.647   6.780
 9334WAT      O28243   0.250   1.141   2.893
 9334WAT     H128244   0.347   1.164   2.899
 9334WAT     H228245   0.213   1.172   2.806
 9335WAT      O28246   4.237   9.001   0.979
 9335WAT     H128247   4.208   9.093   0.953
 9335WAT     H228248   4.157   8.940   0.979
 9336WAT      O28249   3.686   2.639   7.915
 9336WAT     H128250   3.615   2.660   7.982
 9336WAT     H228251   3.652   2.660   7.823
 9337WAT      O28252   9.536   1.403   6.093
 9337WAT     H128253   9.620   1.351   6.079
 9337WAT     H228254   9.556   1.486   6.146
 9338WAT      O28255   3.549   9.606   2.428
 9338WAT     H128256   3.492   9.527   2.408
 9338WAT     H228257   3.503   9.665   2.495
 9339WAT      O28258   7.978   1.618   3.756
 9339WAT     H128259   8.014   1.607   3.664
 9339WAT     H228260   7.962   1.528   3.796
 9340WAT      O28261   6.389   5.452   4.618
 9340WAT     H128262   6.413   5.469   4.713
 9340WAT     H228263   6.311   5.508   4.592
 9341WAT      O28264   7.492   4.053   4.805
 9341WAT     H128265   7.407   4.083   4.761
 9341WAT     H228266   7.508   4.109   4.887
 9342WAT      O28267   7.125   1.854   4.336
 9342WAT     H128268   7.133   1.908   4.420
 9342WAT     H228269   7.031   1.859   4.302
 9343WAT      O28270   7.506   2.694   7.394
 9343WAT     H128271   7.456   2.659   7.473
 9343WAT     H228272   7.544   2.784   7.417
 9344WAT      O28273   7.855   6.323   4.847
 9344WAT     H128274   7.767   6.302   4.890
 9344WAT     H228275   7.846   6.316   4.748
 9345WAT      O28276   2.067   1.295   1.514
 9345WAT     H128277   2.109   1.384   1.531
 9345WAT     H228278   2.098   1.229   1.583
 9346WAT      O28279   6.456   9.828   5.978
 9346WAT     H128280   6.504   9.836   5.890
 9346WAT     H228281   6.358   9.824   5.962
 9347WAT      O28282   2.571   5.503   0.247
 9347WAT     H128283   2.562   5.417   0.298
 9347WAT     H228284   2.588   5.578   0.311
 9348WAT      O28285   9.595   2.302   6.004
 9348WAT     H128286   9.694   2.314   6.013
 9348WAT     H228287   9.574   2.261   5.915
 9349WAT      O28288   3.306   4.281   4.544
 9349WAT     H128289   3.325   4.226   4.625
 9349WAT     H228290   3.209   4.304   4.541
 9350WAT      O28291   1.598   5.964   6.789
 9350WAT     H128292   1.680   5.924   6.831
 9350WAT     H228293   1.615   6.061   6.769
 9351WAT      O28294   1.150   9.385   7.334
 9351WAT     H128295   1.244   9.401   7.306
 9351WAT     H228296   1.132   9.434   7.420
 9352WAT      O28297   1.299   6.409   7.351
 9352WAT     H128298   1.338   6.326   7.312
 9352WAT     H228299   1.206   6.391   7.381
 9353WAT      O28300   2.710   4.704   3.440
 9353WAT     H128301   2.686   4.779   3.501
 9353WAT     H228302   2.635   4.687   3.377
 9354WAT      O28303   7.465   8.524   6.736
 9354WAT     H128304   7.473   8.597   6.669
 9354WAT     H228305   7.431   8.441   6.691
 9355WAT      O28306   9.844   8.867   6.894
 9355WAT     H128307   9.842   8.806   6.973
 9355WAT     H228308   9.751   8.899   6.875
 9356WAT      O28309   8.798   5.748   6.863
 9356WAT     H128310   8.812   5.841   6.829
 9356WAT     H228311   8.710   5.743   6.911
 9357WAT      O28312   3.548   2.330   7.395
 9357WAT     H128313   3.518   2.255   7.335
 9357WAT     H228314   3.520   2.310   7.489
 9358WAT      O28315   5.762   1.427   1.811
 9358WAT     H128316   5.706   1.394   1.888
 9358WAT     H228317   5.723   1.394   1.725
 9359WAT      O28318   1.831   1.279   2.994
 9359WAT     H128319   1.919   1.242   3.025
 9359WAT     H228320   1.843   1.376   2.971
 9360WAT      O28321   3.110   8.949   5.454
 9360WAT     H128322   3.036   8.882   5.459
 9360WAT     H228323   3.194   8.909   5.489
 9361WAT      O28324   8.397   7.133   7.384
 9361WAT     H128325   8.361   7.202   7.321
 9361WAT     H228326   8.357   7.146   7.475
 9362WAT      O28327   2.787   2.713   0.698
 9362WAT     H128328   2.848   2.685   0.625
 9362WAT     H228329   2.727   2.786   0.666
 9363WAT      O28330   2.895   8.344   4.171
 9363WAT     H128331   2.991   8.364   4.152
 9363WAT     H228332   2.865   8.395   4.251
 9364WAT      O28333   9.714   9.072   1.611
 9364WAT     H128334   9.640   9.139   1.602
 9364WAT     H228335   9.713   9.034   1.703
 9365WAT      O28336   7.964   8.881   5.260
 9365WAT     H128337   8.035   8.905   5.194
 9365WAT     H228338   8.005   8.871   5.351
 9366WAT      O28339   5.805   0.824   9.013
 9366WAT     H128340   5.848   0.733   9.009
 9366WAT     H228341   5.726   0.826   8.953
 9367WAT      O28342   3.946   1.276   8.507
 9367WAT     H128343   3.928   1.349   8.573
 9367WAT     H228344   4.040   1.243   8.520
 9368WAT      O28345   5.711   6.724   2.613
 9368WAT     H128346   5.630   6.765   2.572
 9368WAT     H228347   5.747   6.784   2.683
 9369WAT      O28348   7.216   8.709   0.484
 9369WAT     H128349   7.204   8.627   0.541
 9369WAT     H228350   7.127   8.747   0.460
 9370WAT      O28351   2.560   6.566   4.130
 9370WAT     H128352   2.635   6.606   4.077
 9370WAT     H228353   2.545   6.472   4.101
 9371WAT      O28354   1.742   0.482   9.103
 9371WAT     H128355   1.815   0.538   9.063
 9371WAT     H228356   1.653   0.520   9.077
 9372WAT      O28357   3.628   1.515   8.589
 9372WAT     H128358   3.571   1.441   8.553
 9372WAT     H228359   3.658   1.574   8.514
 9373WAT      O28360   4.896   7.410   3.273
 9373WAT     H128361   4.827   7.343   3.302
 9373WAT     H228362   4.907   7.479   3.344
 9374WAT      O28363   1.046   5.467   3.213
 9374WAT     H128364   1.145   5.479   3.206
 9374WAT     H228365   1.010   5.529   3.283
 9375WAT      O28366   3.078   8.736   5.072
 9375WAT     H128367   2.986   8.749   5.035
 9375WAT     H228368   3.077   8.756   5.170
 9376WAT      O28369   2.419   7.207   1.505
 9376WAT     H128370   2.402   7.302   1.478
 9376WAT     H228371   2.456   7.205   1.598
 9377WAT      O28372   1.489   5.164   9.841
 9377WAT     H128373   1.555   5.139   9.912
 9377WAT     H228374   1.414   5.098   9.840
 9378WAT      O28375   5.417   7.205   3.815
 9378WAT     H128376   5.470   7.141   3.871
 9378WAT     H228377   5.450   7.298   3.831
 9379WAT      O28378   1.359   1.195   6.410
 9379WAT     H128379   1.417   1.269   6.375
 9379WAT     H228380   1.330   1.137   6.334
 9380WAT      O28381   4.822   3.691   0.130
 9380WAT     H128382   4.739   3.644   0.098
 9380WAT     H228383   4.899   3.666   0.073
 9381WAT      O28384   6.103   4.189   1.398
 9381WAT     H128385   6.069   4.160   1.487
 9381WAT     H228386   6.113   4.289   1.396
 9382WAT      O28387   5.369   3.129   1.638
 9382WAT     H128388   5.350   3.160   1.731
 9382WAT     H228389   5.338   3.197   1.573
 9383WAT      O28390   8.538   9.462   5.923
 9383WAT     H128391   8.555   9.365   5.902
 9383WAT     H228392   8.567   9.481   6.017
 9384WAT      O28393   1.509   9.256   0.556
 9384WAT     H128394   1.601   9.295   0.564
 9384WAT     H228395   1.444   9.328   0.531
 9385WAT      O28396   7.072   6.715   6.225
 9385WAT     H128397   7.066   6.812   6.201
 9385WAT     H228398   6.981   6.674   6.218
 9386WAT      O28399   8.222   3.537   1.029
 9386WAT     H128400   8.229   3.505   1.124
 9386WAT     H228401   8.310   3.572   0.999
 9387WAT      O28402   0.315   8.357   6.305
 9387WAT     H128403   0.253   8.417   6.355
 9387WAT     H228404   0.384   8.322   6.368
 9388WAT      O28405   4.009   3.642   4.400
 9388WAT     H128406   4.025   3.544   4.412
 9388WAT     H228407   4.034   3.691   4.484
 9389WAT      O28408   6.034   4.209   8.798
 9389WAT     H128409   6.062   4.115   8.818
 9389WAT     H228410   6.003   4.253   8.883
 9390WAT      O28411   3.749   8.035   1.897
 9390WAT     H128412   3.707   7.951   1.862
 9390WAT     H228413   3.780   8.020   1.991
 9391WAT      O28414   0.318   2.171   9.684
 9391WAT     H128415   0.249   2.135   9.746
 9391WAT     H228416   0.406   2.127   9.702
 9392WAT      O28417   3.000   5.450   9.637
 9392WAT     H128418   2.972   5.539   9.602
 9392WAT     H228419   3.081   5.419   9.587
 9393WAT      O28420   4.413   7.127   4.752
 9393WAT     H128421   4.511   7.105   4.752
 9393WAT     H228422   4.400   7.224   4.734
 9394WAT      O28423   2.811   4.384   4.147
 9394WAT     H128424   2.741   4.314   4.161
 9394WAT     H228425   2.794   4.461   4.209
 9395WAT      O28426   9.175   6.631   7.383
 9395WAT     H128427   9.157   6.624   7.482
 9395WAT     H228428   9.121   6.706   7.345
 9396WAT      O28429   3.236   4.347   0.102
 9396WAT     H128430   3.151   4.302   0.075
 9396WAT     H228431   3.217   4.441   0.129
 9397WAT      O28432   6.634   5.900   2.121
 9397WAT     H128433   6.658   5.913   2.217
 9397WAT     H228434   6.546   5.944   2.102
 9398WAT      O28435   4.629   3.706   1.051
 9398WAT     H128436   4.596   3.659   1.133
 9398WAT     H228437   4.557   3.768   1.018
 9399WAT      O28438   2.851   1.682   4.914
 9399WAT     H128439   2.826   1.703   5.008
 9399WAT     H228440   2.798   1.740   4.852
 9400WAT      O28441   2.534   1.793   5.152
 9400WAT     H128442   2.497   1.777   5.244
 9400WAT     H228443   2.466   1.841   5.097
 9401WAT      O28444   9.320   4.346   0.674
 9401WAT     H128445   9.392   4.302   0.728
 9401WAT     H228446   9.330   4.445   0.680
 9402WAT      O28447   1.300   8.489   7.826
 9402WAT     H128448   1.260   8.500   7.736
 9402WAT     H228449   1.276   8.567   7.884
 9403WAT      O28450   8.815   0.459   5.420
 9403WAT     H128451   8.731   0.409   5.441
 9403WAT     H228452   8.841   0.442   5.326
 9404WAT      O28453   9.758   6.670   2.327
 9404WAT     H128454   9.846   6.682   2.280
 9404WAT     H228455   9.685   6.711   2.271
 9405WAT      O28456   5.885   8.579   8.757
 9405WAT     H128457   5.863   8.553   8.662
 9405WAT     H228458   5.819   8.536   8.819
 9406WAT      O28459   1.632   1.939   7.759
 9406WAT     H128460   1.601   1.937   7.664
 9406WAT     H228461   1.676   1.852   7.782
 9407WAT      O28462   7.388   3.655   8.426
 9407WAT     H128463   7.452   3.714   8.377
 9407WAT     H228464   7.423   3.561   8.425
 9408WAT      O28465   4.335   8.855   2.625
 9408WAT     H128466   4.267   8.928   2.635
 9408WAT     H228467   4.422   8.885   2.666
 9409WAT      O28468   8.670   9.286   6.470
 9409WAT     H128469   8.692   9.203   6.419
 9409WAT     H228470   8.754   9.321   6.512
 9410WAT      O28471   3.687   6.950   3.427
 9410WAT     H128472   3.712   6.856   3.404
 9410WAT     H228473   3.603   6.975   3.380
 9411WAT      O28474   4.317   0.425   5.697
 9411WAT     H128475   4.394   0.436   5.635
 9411WAT     H228476   4.234   0.461   5.654
 9412WAT      O28477   3.597   1.701   2.656
 9412WAT     H128478   3.547   1.687   2.571
 9412WAT     H228479   3.566   1.635   2.724
 9413WAT      O28480   7.278   0.809   3.925
 9413WAT     H128481   7.187   0.817   3.966
 9413WAT     H228482   7.325   0.897   3.931
 9414WAT      O28483   7.398   2.038   3.952
 9414WAT     H128484   7.386   2.116   4.013
 9414WAT     H228485   7.492   2.037   3.916
 9415WAT      O28486   9.044   1.676   3.508
 9415WAT     H128487   8.988   1.619   3.567
 9415WAT     H228488   9.128   1.701   3.556
 9416WAT      O28489   9.811   5.105   6.355
 9416WAT     H128490   9.884   5.039   6.335
 9416WAT     H228491   9.741   5.100   6.285
 9417WAT      O28492   2.086   6.439   6.533
 9417WAT     H128493   2.053   6.356   6.577
 9417WAT     H228494   2.147   6.488   6.595
 9418WAT      O28495   4.201   8.568   3.305
 9418WAT     H128496   4.115   8.522   3.328
 9418WAT     H228497   4.219   8.556   3.207
 9419WAT      O28498   9.638   6.937   1.091
 9419WAT     H128499   9.714   6.968   1.034
 9419WAT     H228500   9.568   6.893   1.033
 9420WAT      O28501   3.421   6.965   5.357
 9420WAT     H128502   3.321   6.962   5.360
 9420WAT     H228503   3.450   7.015   5.275
 9421WAT      O28504   6.308   7.828   9.856
 9421WAT     H128505   6.384   7.875   9.810
 9421WAT     H228506   6.225   7.884   9.847
 9422WAT      O28507   4.170   0.623   0.644
 9422WAT     H128508   4.080   0.579   0.642
 9422WAT     H228509   4.158   0.723   0.638
 9423WAT      O28510   3.752   0.061   3.405
 9423WAT     H128511   3.829   0.004   3.436
 9423WAT     H228512   3.782   0.119   3.329
 9424WAT      O28513   4.200   3.365   9.146
 9424WAT     H128514   4.203   3.379   9.047
 9424WAT     H228515   4.122   3.414   9.185
 9425WAT      O28516   2.308   5.402   4.987
 9425WAT     H128517   2.292   5.311   4.948
 9425WAT     H228518   2.281   5.402   5.083
 9426WAT      O28519   8.865   6.007   4.261
 9426WAT     H128520   8.910   5.993   4.349
 9426WAT     H228521   8.777   6.051   4.275
 9427WAT      O28522   3.203   8.984   7.356
 9427WAT     H128523   3.260   9.063   7.380
 9427WAT     H228524   3.260   8.915   7.310
 9428WAT      O28525   2.180   1.108   1.136
 9428WAT     H128526   2.219   1.129   1.046
 9428WAT     H228527   2.116   1.180   1.163
 9429WAT      O28528   3.033   4.137   4.709
 9429WAT     H128529   3.027   4.234   4.736
 9429WAT     H228530   2.956   4.115   4.649
 9430WAT      O28531   8.523   5.292   5.285
 9430WAT     H128532   8.568   5.373   5.321
 9430WAT     H228533   8.585   5.214   5.290
 9431WAT      O28534   8.593   3.768   0.764
 9431WAT     H128535   8.636   3.791   0.677
 9431WAT     H228536   8.510   3.823   0.775
 9432WAT      O28537   7.325   6.433   0.118
 9432WAT     H128538   7.296   6.359   0.179
 9432WAT     H228539   7.309   6.406   0.023
 9433WAT      O28540   8.863   9.749   0.478
 9433WAT     H128541   8.944   9.787   0.523
 9433WAT     H228542   8.865   9.773   0.381
 9434WAT      O28543   3.523   1.979   9.761
 9434WAT     H128544   3.595   2.029   9.809
 9434WAT     H228545   3.563   1.902   9.712
 9435WAT      O28546   5.442   0.331   5.995
 9435WAT     H128547   5.492   0.415   6.013
 9435WAT     H228548   5.374   0.317   6.067
 9436WAT      O28549   4.060   1.954   1.034
 9436WAT     H128550   4.035   1.963   1.131
 9436WAT     H228551   4.137   1.890   1.026
 9437WAT      O28552   2.164   6.931   2.548
 9437WAT     H128553   2.139   7.022   2.517
 9437WAT     H228554   2.107   6.863   2.501
 9438WAT      O28555   4.454   0.498   2.634
 9438WAT     H128556   4.489   0.504   2.541
 9438WAT     H228557   4.360   0.465   2.634
 9439WAT      O28558   9.367   7.891   4.372
 9439WAT     H128559   9.400   7.961   4.435
 9439WAT     H228560   9.414   7.804   4.390
 9440WAT      O28561   7.940   4.261   2.137
 9440WAT     H128562   7.848   4.223   2.132
 9440WAT     H228563   7.936   4.361   2.132
 9441WAT      O28564   9.154   8.178   7.113
 9441WAT     H128565   9.097   8.206   7.036
 9441WAT     H228566   9.162   8.253   7.179
 9442WAT      O28567   7.148   3.128   5.570
 9442WAT     H128568   7.245   3.147   5.580
 9442WAT     H228569   7.098   3.213   5.554
 9443WAT      O28570   0.134   3.637   1.147
 9443WAT     H128571   0.102   3.638   1.052
 9443WAT     H228572   0.234   3.635   1.149
 9444WAT      O28573   2.966   0.212   3.813
 9444WAT     H128574   2.876   0.254   3.826
 9444WAT     H228575   3.027   0.241   3.886
 9445WAT      O28576   4.683   2.148   8.689
 9445WAT     H128577   4.672   2.084   8.766
 9445WAT     H228578   4.662   2.241   8.720
 9446WAT      O28579   8.167   3.081   7.780
 9446WAT     H128580   8.235   3.111   7.847
 9446WAT     H228581   8.185   3.126   7.693
 9447WAT      O28582   9.061   8.976   6.998
 9447WAT     H128583   8.988   9.003   7.062
 9447WAT     H228584   9.046   9.021   6.910
 9448WAT      O28585   5.815   1.512   0.313
 9448WAT     H128586   5.770   1.601   0.321
 9448WAT     H228587   5.802   1.459   0.397
 9449WAT      O28588   0.776   9.673   0.499
 9449WAT     H128589   0.811   9.588   0.538
 9449WAT     H228590   0.744   9.657   0.406
 9450WAT      O28591   5.173   3.452   3.764
 9450WAT     H128592   5.124   3.418   3.844
 9450WAT     H228593   5.122   3.527   3.722
 9451WAT      O28594   2.986   9.088   9.021
 9451WAT     H128595   2.905   9.129   9.063
 9451WAT     H228596   3.035   9.158   8.969
 9452WAT      O28597   5.307   2.567   6.172
 9452WAT     H128598   5.252   2.508   6.231
 9452WAT     H228599   5.351   2.638   6.226
 9453WAT      O28600   5.902   7.977   2.726
 9453WAT     H128601   5.822   7.985   2.785
 9453WAT     H228602   5.985   7.988   2.780
 9454WAT      O28603   0.864   6.990   0.405
 9454WAT     H128604   0.854   6.944   0.316
 9454WAT     H228605   0.950   6.963   0.447
 9455WAT      O28606   4.538   9.405   7.900
 9455WAT     H128607   4.508   9.471   7.969
 9455WAT     H228608   4.563   9.319   7.944
 9456WAT      O28609   5.760   7.348   5.847
 9456WAT     H128610   5.760   7.375   5.751
 9456WAT     H228611   5.666   7.346   5.881
 9457WAT      O28612   4.349   3.993   6.519
 9457WAT     H128613   4.420   4.056   6.550
 9457WAT     H228614   4.292   4.040   6.451
 9458WAT      O28615   4.368   4.894   6.435
 9458WAT     H128616   4.384   4.955   6.513
 9458WAT     H228617   4.406   4.804   6.455
 9459WAT      O28618   5.843   9.342   1.946
 9459WAT     H128619   5.785   9.329   2.027
 9459WAT     H228620   5.787   9.344   1.864
 9460WAT      O28621   4.132   7.977   8.454
 9460WAT     H128622   4.043   8.003   8.492
 9460WAT     H228623   4.119   7.948   8.359
 9461WAT      O28624   7.258   1.209   7.705
 9461WAT     H128625   7.263   1.146   7.627
 9461WAT     H228626   7.169   1.198   7.751
 9462WAT      O28627   9.427   2.443   6.298
 9462WAT     H128628   9.456   2.350   6.317
 9462WAT     H228629   9.501   2.506   6.323
 9463WAT      O28630   4.429   4.217   5.762
 9463WAT     H128631   4.337   4.225   5.724
 9463WAT     H228632   4.461   4.123   5.755
 9464WAT      O28633   9.068   1.868   4.746
 9464WAT     H128634   9.113   1.858   4.834
 9464WAT     H228635   9.007   1.948   4.749
 9465WAT      O28636   3.970   8.076   3.516
 9465WAT     H128637   3.890   8.027   3.550
 9465WAT     H228638   4.051   8.018   3.524
 9466WAT      O28639   3.263   4.702   5.884
 9466WAT     H128640   3.276   4.628   5.818
 9466WAT     H228641   3.270   4.665   5.977
 9467WAT      O28642   1.557   3.471   3.835
 9467WAT     H128643   1.564   3.569   3.816
 9467WAT     H228644   1.585   3.419   3.754
 9468WAT      O28645   3.155   5.468   3.052
 9468WAT     H128646   3.120   5.375   3.061
 9468WAT     H228647   3.253   5.469   3.069
 9469WAT      O28648   7.725   4.208   8.160
 9469WAT     H128649   7.801   4.171   8.214
 9469WAT     H228650   7.686   4.287   8.208
 9470WAT      O28651   0.353   6.862   8.414
 9470WAT     H128652   0.321   6.775   8.452
 9470WAT     H228653   0.417   6.844   8.340
 9471WAT      O28654   1.039   4.550   2.045
 9471WAT     H128655   1.079   4.547   1.954
 9471WAT     H228656   1.111   4.538   2.113
 9472WAT      O28657   0.144   0.190   0.344
 9472WAT     H128658   0.152   0.117   0.411
 9472WAT     H228659   0.048   0.209   0.325
 9473WAT      O28660   0.989   2.275   0.477
 9473WAT     H128661   0.946   2.190   0.445
 9473WAT     H228662   0.941   2.353   0.437
 9474WAT      O28663   9.865   2.768   9.410
 9474WAT     H128664   9.807   2.753   9.330
 9474WAT     H228665   9.950   2.814   9.382
 9475WAT      O28666   5.500   6.373   4.156
 9475WAT     H128667   5.574   6.329   4.207
 9475WAT     H228668   5.537   6.411   4.071
 9476WAT      O28669   6.049   8.145   7.398
 9476WAT     H128670   6.013   8.122   7.489
 9476WAT     H228671   6.123   8.212   7.408
 9477WAT      O28672   4.628   8.385   3.297
 9477WAT     H128673   4.591   8.346   3.213
 9477WAT     H228674   4.672   8.472   3.276
 9478WAT      O28675   8.286   8.258   6.049
 9478WAT     H128676   8.378   8.252   6.011
 9478WAT     H228677   8.219   8.247   5.976
 9479WAT      O28678   2.536   2.534   2.093
 9479WAT     H128679   2.550   2.621   2.045
 9479WAT     H228680   2.562   2.544   2.189
 9480WAT      O28681   2.192   1.375   5.597
 9480WAT     H128682   2.165   1.289   5.640
 9480WAT     H228683   2.181   1.369   5.498
 9481WAT      O28684   6.767   9.086   5.293
 9481WAT     H128685   6.672   9.057   5.282
 9481WAT     H228686   6.779   9.176   5.253
 9482WAT      O28687   1.407   8.292   4.946
 9482WAT     H128688   1.343   8.227   4.987
 9482WAT     H228689   1.356   8.372   4.913
 9483WAT      O28690   6.967   6.248   9.655
 9483WAT     H128691   6.998   6.297   9.574
 9483WAT     H228692   6.923   6.162   9.627
 9484WAT      O28693   1.616   2.755   8.612
 9484WAT     H128694   1.518   2.747   8.630
 9484WAT     H228695   1.664   2.775   8.698
 9485WAT      O28696   3.697   5.700   2.338
 9485WAT     H128697   3.647   5.635   2.395
 9485WAT     H228698   3.732   5.774   2.396
 9486WAT      O28699   5.882   4.125   0.279
 9486WAT     H128700   5.897   4.078   0.192
 9486WAT     H228701   5.928   4.213   0.277
 9487WAT      O28702   0.258   7.637   2.686
 9487WAT     H128703   0.311   7.582   2.751
 9487WAT     H228704   0.315   7.713   2.653
 9488WAT      O28705   3.906   4.553   5.608
 9488WAT     H128706   3.823   4.582   5.656
 9488WAT     H228707   3.984   4.560   5.670
 9489WAT      O28708   4.143   1.583   7.393
 9489WAT     H128709   4.107   1.501   7.436
 9489WAT     H228710   4.243   1.582   7.398
 9490WAT      O28711   4.735   0.513   3.488
 9490WAT     H128712   4.647   0.542   3.523
 9490WAT     H228713   4.725   0.425   3.440
 9491WAT      O28714   3.277   3.296   9.684
 9491WAT     H128715   3.266   3.305   9.586
 9491WAT     H228716   3.212   3.356   9.731
 9492WAT      O28717   1.481   3.768   4.649
 9492WAT     H128718   1.526   3.788   4.562
 9492WAT     H228719   1.436   3.851   4.683
 9493WAT      O28720   8.312   6.430   5.618
 9493WAT     H128721   8.364   6.449   5.535
 9493WAT     H228722   8.260   6.345   5.606
 9494WAT      O28723   3.388   7.985   8.122
 9494WAT     H128724   3.416   8.067   8.172
 9494WAT     H228725   3.364   7.913   8.188
 9495WAT      O28726   7.569   9.827   1.851
 9495WAT     H128727   7.604   9.748   1.900
 9495WAT     H228728   7.469   9.825   1.850
 9496WAT      O28729   4.289   7.384   8.958
 9496WAT     H128730   4.316   7.349   8.868
 9496WAT     H228731   4.295   7.311   9.026
 9497WAT      O28732   3.391   6.791   0.565
 9497WAT     H128733   3.338   6.876   0.556
 9497WAT     H228734   3.391   6.762   0.661
 9498WAT      O28735   8.960   0.950   5.550
 9498WAT     H128736   8.903   1.020   5.509
 9498WAT     H228737   8.933   0.860   5.515
 9499WAT      O28738   4.399   5.143   4.083
 9499WAT     H128739   4.375   5.187   4.170
 9499WAT     H228740   4.348   5.187   4.009
 9500WAT      O28741   8.606   5.904   8.566
 9500WAT     H128742   8.688   5.873   8.517
 9500WAT     H228743   8.630   5.924   8.661
 9501WAT      O28744   3.793   3.140   5.529
 9501WAT     H128745   3.886   3.132   5.493
 9501WAT     H228746   3.779   3.233   5.564
 9502WAT      O28747   7.677   4.700   2.322
 9502WAT     H128748   7.595   4.733   2.368
 9502WAT     H228749   7.657   4.684   2.226
 9503WAT      O28750   7.766   1.104   8.150
 9503WAT     H128751   7.793   1.008   8.152
 9503WAT     H228752   7.842   1.159   8.116
 9504WAT      O28753   6.242   5.202   7.028
 9504WAT     H128754   6.289   5.246   6.951
 9504WAT     H228755   6.303   5.136   7.071
 9505WAT      O28756   1.497   3.885   4.416
 9505WAT     H128757   1.525   3.972   4.374
 9505WAT     H228758   1.487   3.816   4.345
 9506WAT      O28759   0.829   3.382   1.282
 9506WAT     H128760   0.772   3.322   1.225
 9506WAT     H228761   0.907   3.414   1.229
 9507WAT      O28762   3.502   0.290   6.051
 9507WAT     H128763   3.438   0.269   6.124
 9507WAT     H228764   3.463   0.263   5.963
 9508WAT      O28765   6.924   5.893   5.810
 9508WAT     H128766   6.998   5.876   5.745
 9508WAT     H228767   6.843   5.842   5.782
 9509WAT      O28768   9.140   5.905   1.187
 9509WAT     H128769   9.073   5.942   1.252
 9509WAT     H228770   9.217   5.868   1.238
 9510WAT      O28771   3.053   4.574   8.589
 9510WAT     H128772   3.064   4.511   8.512
 9510WAT     H228773   3.000   4.653   8.560
 9511WAT      O28774   7.281   4.377   5.564
 9511WAT     H128775   7.268   4.300   5.502
 9511WAT     H228776   7.377   4.405   5.565
 9512WAT      O28777   4.240   7.012   2.532
 9512WAT     H128778   4.196   7.039   2.618
 9512WAT     H228779   4.192   7.052   2.455
 9513WAT      O28780   3.306   2.711   8.693
 9513WAT     H128781   3.369   2.647   8.649
 9513WAT     H228782   3.215   2.700   8.655
 9514WAT      O28783   0.171   9.755   9.274
 9514WAT     H128784   0.262   9.778   9.241
 9514WAT     H228785   0.174   9.669   9.325
 9515WAT      O28786   1.820   5.421   4.164
 9515WAT     H128787   1.889   5.491   4.184
 9515WAT     H228788   1.797   5.424   4.067
 9516WAT      O28789   8.955   1.391   7.772
 9516WAT     H128790   9.036   1.394   7.713
 9516WAT     H228791   8.979   1.430   7.861
 9517WAT      O28792   4.009   6.593   3.304
 9517WAT     H128793   4.008   6.493   3.303
 9517WAT     H228794   3.922   6.627   3.342
 9518WAT      O28795   3.728   3.376   8.722
 9518WAT     H128796   3.816   3.330   8.707
 9518WAT     H228797   3.654   3.318   8.686
 9519WAT      O28798   1.444   9.568   7.968
 9519WAT     H128799   1.527   9.600   7.923
 9519WAT     H228800   1.431   9.471   7.948
 9520WAT      O28801   2.951   2.022   2.847
 9520WAT     H128802   2.928   2.091   2.778
 9520WAT     H228803   2.968   1.934   2.803
 9521WAT      O28804   3.686   2.745   0.318
 9521WAT     H128805   3.719   2.662   0.363
 9521WAT     H228806   3.594   2.766   0.351
 9522WAT      O28807   8.871   7.158   4.908
 9522WAT     H128808   8.788   7.190   4.954
 9522WAT     H228809   8.895   7.068   4.943
 9523WAT      O28810   1.652   2.556   4.857
 9523WAT     H128811   1.568   2.547   4.910
 9523WAT     H228812   1.636   2.613   4.777
 9524WAT      O28813   1.926   8.370   9.696
 9524WAT     H128814   2.005   8.323   9.656
 9524WAT     H228815   1.844   8.316   9.682
 9525WAT      O28816   6.399   6.636   5.812
 9525WAT     H128817   6.439   6.560   5.761
 9525WAT     H228818   6.469   6.703   5.835
 9526WAT      O28819   3.164   2.368   6.122
 9526WAT     H128820   3.179   2.413   6.210
 9526WAT     H228821   3.241   2.308   6.101
 9527WAT      O28822   1.710   0.739   6.214
 9527WAT     H128823   1.782   0.788   6.165
 9527WAT     H228824   1.695   0.650   6.170
 9528WAT      O28825   2.058   9.584   4.954
 9528WAT     H128826   2.126   9.551   4.889
 9528WAT     H228827   2.063   9.684   4.960
 9529WAT      O28828   6.431   9.570   3.717
 9529WAT     H128829   6.385   9.482   3.735
 9529WAT     H228830   6.363   9.637   3.687
 9530WAT      O28831   5.745   2.030   6.527
 9530WAT     H128832   5.743   1.998   6.432
 9530WAT     H228833   5.680   2.105   6.538
 9531WAT      O28834   6.264   4.739   5.488
 9531WAT     H128835   6.359   4.726   5.462
 9531WAT     H228836   6.246   4.693   5.574
 9532WAT      O28837   3.056   0.199   4.822
 9532WAT     H128838   3.094   0.268   4.884
 9532WAT     H228839   3.130   0.156   4.771
 9533WAT      O28840   3.130   4.827   5.398
 9533WAT     H128841   3.041   4.782   5.400
 9533WAT     H228842   3.118   4.924   5.419
 9534WAT      O28843   5.484   2.810   7.088
 9534WAT     H128844   5.552   2.793   7.159
 9534WAT     H228845   5.492   2.904   7.055
 9535WAT      O28846   9.121   0.545   3.221
 9535WAT     H128847   9.110   0.603   3.141
 9535WAT     H228848   9.165   0.460   3.195
 9536WAT      O28849   6.833   4.312   7.788
 9536WAT     H128850   6.806   4.300   7.693
 9536WAT     H228851   6.926   4.277   7.801
 9537WAT      O28852   8.024   3.931   9.665
 9537WAT     H128853   8.061   4.024   9.662
 9537WAT     H228854   8.020   3.900   9.760
 9538WAT      O28855   3.359   4.547   7.783
 9538WAT     H128856   3.385   4.619   7.848
 9538WAT     H228857   3.361   4.583   7.690
 9539WAT      O28858   7.139   7.090   0.430
 9539WAT     H128859   7.189   7.017   0.383
 9539WAT     H228860   7.058   7.052   0.475
 9540WAT      O28861   4.891   6.500   6.424
 9540WAT     H128862   4.894   6.458   6.333
 9540WAT     H228863   4.833   6.582   6.421
 9541WAT      O28864   4.471   1.911   5.511
 9541WAT     H128865   4.407   1.886   5.439
 9541WAT     H228866   4.564   1.885   5.484
 9542WAT      O28867   2.474   5.262   4.566
 9542WAT     H128868   2.499   5.169   4.591
 9542WAT     H228869   2.489   5.276   4.468
 9543WAT      O28870   3.701   1.151   8.473
 9543WAT     H128871   3.790   1.187   8.498
 9543WAT     H228872   3.711   1.062   8.430
 9544WAT      O28873   5.587   9.224   5.832
 9544WAT     H128874   5.545   9.134   5.842
 9544WAT     H228875   5.590   9.248   5.735
 9545WAT      O28876   1.767   1.279   4.276
 9545WAT     H128877   1.744   1.312   4.185
 9545WAT     H228878   1.776   1.179   4.274
 9546WAT      O28879   0.780   6.125   4.894
 9546WAT     H128880   0.716   6.059   4.935
 9546WAT     H228881   0.731   6.210   4.875
 9547WAT      O28882   0.110   6.241   0.244
 9547WAT     H128883   0.075   6.302   0.172
 9547WAT     H228884   0.181   6.288   0.295
 9548WAT      O28885   3.874   6.257   3.680
 9548WAT     H128886   3.793   6.200   3.664
 9548WAT     H228887   3.905   6.245   3.775
 9549WAT      O28888   7.342   8.943   0.508
 9549WAT     H128889   7.401   8.957   0.429
 9549WAT     H228890   7.294   8.855   0.499
 9550WAT      O28891   4.740   8.369   4.335
 9550WAT     H128892   4.701   8.454   4.301
 9550WAT     H228893   4.752   8.374   4.434
 9551WAT      O28894   8.839   1.251   2.397
 9551WAT     H128895   8.925   1.285   2.358
 9551WAT     H228896   8.826   1.155   2.371
 9552WAT      O28897   5.308   5.739   5.171
 9552WAT     H128898   5.216   5.740   5.211
 9552WAT     H228899   5.306   5.689   5.084
 9553WAT      O28900   9.502   3.765   9.873
 9553WAT     H128901   9.512   3.715   9.787
 9553WAT     H228902   9.486   3.699   9.947
 9554WAT      O28903   8.525   5.216   7.412
 9554WAT     H128904   8.571   5.144   7.360
 9554WAT     H228905   8.493   5.180   7.499
 9555WAT      O28906   1.793   5.988   1.909
 9555WAT     H128907   1.757   5.895   1.897
 9555WAT     H228908   1.718   6.051   1.926
 9556WAT      O28909   7.611   1.787   6.605
 9556WAT     H128910   7.705   1.808   6.631
 9556WAT     H228911   7.550   1.810   6.681
 9557WAT      O28912   6.811   5.947   9.031
 9557WAT     H128913   6.895   5.977   9.074
 9557WAT     H228914   6.778   6.017   8.968
 9558WAT      O28915   0.126   6.766   7.012
 9558WAT     H128916   0.204   6.703   7.008
 9558WAT     H228917   0.043   6.715   7.034
 9559WAT      O28918   3.370   4.271   3.456
 9559WAT     H128919   3.350   4.184   3.501
 9559WAT     H228920   3.303   4.287   3.383
 9560WAT      O28921   2.063   9.218   7.340
 9560WAT     H128922   2.109   9.270   7.412
 9560WAT     H228923   1.999   9.279   7.292
 9561WAT      O28924   7.032   3.232   4.536
 9561WAT     H128925   7.097   3.181   4.478
 9561WAT     H228926   7.034   3.328   4.510
 9562WAT      O28927   2.307   3.305   3.213
 9562WAT     H128928   2.327   3.401   3.192
 9562WAT     H228929   2.370   3.247   3.162
 9563WAT      O28930   5.852   1.144   4.069
 9563WAT     H128931   5.914   1.190   4.133
 9563WAT     H228932   5.813   1.211   4.006
 9564WAT      O28933   6.534   9.745   6.233
 9564WAT     H128934   6.555   9.828   6.285
 9564WAT     H228935   6.495   9.771   6.144
 9565WAT      O28936   3.825   5.010   7.302
 9565WAT     H128937   3.747   4.961   7.340
 9565WAT     H228938   3.909   4.965   7.329
 9566WAT      O28939   0.578   4.055   4.310
 9566WAT     H128940   0.676   4.036   4.304
 9566WAT     H228941   0.554   4.130   4.249
 9567WAT      O28942   3.244   3.432   4.989
 9567WAT     H128943   3.274   3.495   5.061
 9567WAT     H228944   3.323   3.400   4.938
 9568WAT      O28945   9.537   5.623   7.942
 9568WAT     H128946   9.511   5.704   7.889
 9568WAT     H228947   9.632   5.600   7.924
 9569WAT      O28948   5.270   6.195   4.701
 9569WAT     H128949   5.187   6.237   4.738
 9569WAT     H228950   5.322   6.264   4.650
 9570WAT      O28951   8.312   8.749   4.954
 9570WAT     H128952   8.296   8.829   4.897
 9570WAT     H228953   8.257   8.672   4.920
 9571WAT      O28954   8.481   5.312   8.407
 9571WAT     H128955   8.481   5.288   8.310
 9571WAT     H228956   8.442   5.403   8.419
 9572WAT      O28957   6.032   6.398   4.374
 9572WAT     H128958   6.047   6.407   4.472
 9572WAT     H228959   6.010   6.303   4.351
 9573WAT      O28960   3.751   2.508   7.515
 9573WAT     H128961   3.700   2.424   7.500
 9573WAT     H228962   3.687   2.585   7.523
 9574WAT      O28963   6.692   4.025   4.104
 9574WAT     H128964   6.762   4.090   4.072
 9574WAT     H228965   6.660   3.971   4.026
 9575WAT      O28966   7.083   7.992   5.150
 9575WAT     H128967   7.043   7.925   5.087
 9575WAT     H228968   7.025   8.001   5.230
 9576WAT      O28969   3.266   4.582   2.801
 9576WAT     H128970   3.180   4.630   2.787
 9576WAT     H228971   3.249   4.483   2.803
 9577WAT      O28972   5.581   5.959   1.639
 9577WAT     H128973   5.503   5.924   1.588
 9577WAT     H228974   5.624   5.883   1.689
 9578WAT      O28975   6.059   8.661   6.893
 9578WAT     H128976   6.005   8.582   6.923
 9578WAT     H228977   6.135   8.629   6.835
 9579WAT      O28978   0.020   2.354   4.805
 9579WAT     H128979  -0.036   2.407   4.868
 9579WAT     H228980  -0.003   2.257   4.813
 9580WAT      O28981   9.592   4.372   1.117
 9580WAT     H128982   9.604   4.285   1.163
 9580WAT     H228983   9.494   4.387   1.098
 9581WAT      O28984   6.552   0.688   1.283
 9581WAT     H128985   6.482   0.757   1.266
 9581WAT     H228986   6.636   0.714   1.237
 9582WAT      O28987   2.672   3.738   3.649
 9582WAT     H128988   2.618   3.757   3.568
 9582WAT     H228989   2.659   3.643   3.676
 9583WAT      O28990   0.192   2.204   0.714
 9583WAT     H128991   0.146   2.121   0.746
 9583WAT     H228992   0.161   2.282   0.768
 9584WAT      O28993   6.303   3.405   7.676
 9584WAT     H128994   6.341   3.361   7.757
 9584WAT     H228995   6.226   3.463   7.702
 9585WAT      O28996   7.017   6.290   6.337
 9585WAT     H128997   6.941   6.274   6.400
 9585WAT     H228998   7.076   6.362   6.373
 9586WAT      O28999   8.459   6.067   6.077
 9586WAT     H129000   8.390   5.996   6.090
 9586WAT     H229001   8.484   6.106   6.165
 9587WAT      O29002   2.055   7.417   8.534
 9587WAT     H129003   1.992   7.492   8.556
 9587WAT     H229004   2.110   7.442   8.454
 9588WAT      O29005   4.082   5.743   1.438
 9588WAT     H129006   4.015   5.806   1.400
 9588WAT     H229007   4.136   5.790   1.508
 9589WAT      O29008   4.397   0.698   6.084
 9589WAT     H129009   4.332   0.757   6.034
 9589WAT     H229010   4.346   0.632   6.139
 9590WAT      O29011   6.968   6.230   7.089
 9590WAT     H129012   7.062   6.197   7.096
 9590WAT     H229013   6.905   6.153   7.101
 9591WAT      O29014   6.482   0.674   6.237
 9591WAT     H129015   6.480   0.681   6.138
 9591WAT     H229016   6.575   0.688   6.270
 9592WAT      O29017   7.992   2.838   7.020
 9592WAT     H129018   7.903   2.796   6.999
 9592WAT     H229019   8.065   2.787   6.974
 9593WAT      O29020   1.738   2.673   7.696
 9593WAT     H129021   1.827   2.631   7.713
 9593WAT     H229022   1.700   2.636   7.612
 9594WAT      O29023   2.383   8.525   4.499
 9594WAT     H129024   2.483   8.517   4.497
 9594WAT     H229025   2.347   8.467   4.572
 9595WAT      O29026   4.229   2.529   7.802
 9595WAT     H129027   4.174   2.446   7.800
 9595WAT     H229028   4.276   2.540   7.714
 9596WAT      O29029   7.876   8.365   4.540
 9596WAT     H129030   7.953   8.305   4.518
 9596WAT     H229031   7.792   8.326   4.503
 9597WAT      O29032   8.636   8.587   7.804
 9597WAT     H129033   8.701   8.547   7.869
 9597WAT     H229034   8.563   8.633   7.854
 9598WAT      O29035   3.532   1.544   8.233
 9598WAT     H129036   3.549   1.541   8.135
 9598WAT     H229037   3.579   1.622   8.273
 9599WAT      O29038   1.832   6.707   0.988
 9599WAT     H129039   1.923   6.704   1.027
 9599WAT     H229040   1.792   6.798   1.004
 9600WAT      O29041   8.658   4.012   3.572
 9600WAT     H129042   8.749   3.981   3.598
 9600WAT     H229043   8.589   3.949   3.608
 9601WAT      O29044   0.213   6.622   8.462
 9601WAT     H129045   0.158   6.623   8.379
 9601WAT     H229046   0.156   6.645   8.541
 9602WAT      O29047   7.054   0.298   7.771
 9602WAT     H129048   7.024   0.249   7.689
 9602WAT     H229049   6.996   0.378   7.785
 9603WAT      O29050   7.669   4.979   4.533
 9603WAT     H129051   7.700   5.036   4.457
 9603WAT     H229052   7.589   5.021   4.575
 9604WAT      O29053   3.127   8.039   2.530
 9604WAT     H129054   3.217   8.015   2.494
 9604WAT     H229055   3.085   8.109   2.471
 9605WAT      O29056   5.296   5.320   0.846
 9605WAT     H129057   5.391   5.337   0.822
 9605WAT     H229058   5.257   5.402   0.888
 9606WAT      O29059   0.688   2.643   5.194
 9606WAT     H129060   0.634   2.724   5.169
 9606WAT     H229061   0.785   2.667   5.191
 9607WAT      O29062   2.212   5.472   7.315
 9607WAT     H129063   2.208   5.546   7.248
 9607WAT     H229064   2.306   5.461   7.347
 9608WAT      O29065   0.764   8.354   9.100
 9608WAT     H129066   0.673   8.312   9.091
 9608WAT     H229067   0.779   8.381   9.195
 9609WAT      O29068   7.886   6.874   3.981
 9609WAT     H129069   7.977   6.837   3.964
 9609WAT     H229070   7.842   6.897   3.894
 9610WAT      O29071   9.343   9.400   8.846
 9610WAT     H129072   9.395   9.483   8.866
 9610WAT     H229073   9.292   9.372   8.927
 9611WAT      O29074   0.388   4.789   3.762
 9611WAT     H129075   0.370   4.694   3.785
 9611WAT     H229076   0.403   4.842   3.845
 9612WAT      O29077   0.238   4.976   4.320
 9612WAT     H129078   0.334   4.959   4.339
 9612WAT     H229079   0.203   4.906   4.257
 9613WAT      O29080   8.683   1.691   4.345
 9613WAT     H129081   8.737   1.770   4.376
 9613WAT     H229082   8.702   1.613   4.404
 9614WAT      O29083   4.704   8.534   3.989
 9614WAT     H129084   4.754   8.447   3.981
 9614WAT     H229085   4.699   8.560   4.085
 9615WAT      O29086   5.337   1.532   2.982
 9615WAT     H129087   5.245   1.494   2.980
 9615WAT     H229088   5.332   1.632   2.986
 9616WAT      O29089   5.218   7.034   6.201
 9616WAT     H129090   5.215   7.133   6.211
 9616WAT     H229091   5.297   7.009   6.145
 9617WAT      O29092   5.450   0.229   6.619
 9617WAT     H129093   5.463   0.293   6.543
 9617WAT     H229094   5.492   0.267   6.702
 9618WAT      O29095   9.700   4.796   2.584
 9618WAT     H129096   9.763   4.725   2.554
 9618WAT     H229097   9.629   4.755   2.642
 9619WAT      O29098   9.142   8.841   0.052
 9619WAT     H129099   9.103   8.872  -0.034
 9619WAT     H229100   9.238   8.869   0.057
 9620WAT      O29101   3.586   7.688   2.102
 9620WAT     H129102   3.511   7.627   2.077
 9620WAT     H229103   3.647   7.700   2.023
 9621WAT      O29104   6.307   3.840   2.455
 9621WAT     H129105   6.360   3.763   2.490
 9621WAT     H229106   6.294   3.830   2.356
 9622WAT      O29107   2.262   0.899   5.554
 9622WAT     H129108   2.333   0.940   5.496
 9622WAT     H229109   2.243   0.806   5.522
 9623WAT      O29110   5.723   1.282   9.248
 9623WAT     H129111   5.817   1.271   9.215
 9623WAT     H229112   5.694   1.199   9.295
 9624WAT      O29113   7.208   1.633   0.317
 9624WAT     H129114   7.138   1.589   0.373
 9624WAT     H229115   7.285   1.660   0.374
 9625WAT      O29116   3.409   2.914   4.500
 9625WAT     H129117   3.419   2.864   4.587
 9625WAT     H229118   3.321   2.893   4.459
 9626WAT      O29119   1.633   2.325   4.044
 9626WAT     H129120   1.609   2.421   4.031
 9626WAT     H229121   1.560   2.267   4.011
 9627WAT      O29122   8.683   9.746   5.362
 9627WAT     H129123   8.662   9.670   5.422
 9627WAT     H229124   8.729   9.819   5.414
 9628WAT      O29125   0.666   6.327   7.268
 9628WAT     H129126   0.578   6.313   7.313
 9628WAT     H229127   0.652   6.354   7.173
 9629WAT      O29128   1.624   3.894   9.603
 9629WAT     H129129   1.665   3.804   9.596
 9629WAT     H229130   1.679   3.961   9.553
 9630WAT      O29131   6.718   4.623   8.416
 9630WAT     H129132   6.745   4.527   8.427
 9630WAT     H229133   6.784   4.669   8.357
 9631WAT      O29134   6.299   1.856   2.316
 9631WAT     H129135   6.275   1.880   2.410
 9631WAT     H229136   6.217   1.856   2.259
 9632WAT      O29137   6.457   6.150   7.946
 9632WAT     H129138   6.514   6.218   7.900
 9632WAT     H229139   6.485   6.058   7.918
 9633WAT      O29140   0.003   1.631   1.730
 9633WAT     H129141   0.003   1.581   1.644
 9633WAT     H229142   0.092   1.620   1.775
 9634WAT      O29143   9.303   7.968   2.365
 9634WAT     H129144   9.387   7.915   2.351
 9634WAT     H229145   9.240   7.916   2.422
 9635WAT      O29146   4.954   0.446   2.251
 9635WAT     H129147   4.859   0.429   2.280
 9635WAT     H229148   5.000   0.500   2.321
 9636WAT      O29149   8.145   4.325   5.374
 9636WAT     H129150   8.122   4.357   5.283
 9636WAT     H229151   8.244   4.314   5.382
 9637WAT      O29152   4.048   1.609   7.895
 9637WAT     H129153   4.089   1.669   7.826
 9637WAT     H229154   3.985   1.661   7.952
 9638WAT      O29155   7.977   5.032   4.876
 9638WAT     H129156   8.030   5.041   4.961
 9638WAT     H229157   8.028   4.975   4.811
 9639WAT      O29158   7.218   1.993   2.031
 9639WAT     H129159   7.206   2.013   2.128
 9639WAT     H229160   7.242   2.076   1.982
 9640WAT      O29161   5.348   1.012   8.416
 9640WAT     H129162   5.273   1.077   8.424
 9640WAT     H229163   5.396   1.006   8.504
 9641WAT      O29164   6.992   1.586   7.064
 9641WAT     H129165   7.024   1.619   7.153
 9641WAT     H229166   7.054   1.618   6.993
 9642WAT      O29167   4.199   8.483   1.136
 9642WAT     H129168   4.206   8.562   1.196
 9642WAT     H229169   4.278   8.424   1.148
 9643WAT      O29170   6.497   5.312   7.346
 9643WAT     H129171   6.483   5.242   7.416
 9643WAT     H229172   6.589   5.351   7.354
 9644WAT      O29173   6.954   9.150   8.089
 9644WAT     H129174   7.026   9.162   8.157
 9644WAT     H229175   6.864   9.161   8.133
 9645WAT      O29176   6.234   7.424   3.616
 9645WAT     H129177   6.213   7.478   3.534
 9645WAT     H229178   6.317   7.371   3.600
 9646WAT      O29179   7.156   9.824   2.861
 9646WAT     H129180   7.079   9.763   2.841
 9646WAT     H229181   7.131   9.886   2.934
 9647WAT      O29182   1.004   2.048   2.401
 9647WAT     H129183   1.101   2.041   2.426
 9647WAT     H229184   0.956   1.965   2.432
 9648WAT      O29185   2.726   7.572   8.613
 9648WAT     H129186   2.780   7.640   8.562
 9648WAT     H229187   2.785   7.497   8.640
 9649WAT      O29188   5.770   8.285   3.492
 9649WAT     H129189   5.813   8.202   3.455
 9649WAT     H229190   5.733   8.340   3.417
 9650WAT      O29191   1.559   3.584   8.032
 9650WAT     H129192   1.640   3.535   8.000
 9650WAT     H229193   1.545   3.566   8.130
 9651WAT      O29194   6.986   8.246   1.824
 9651WAT     H129195   7.017   8.195   1.904
 9651WAT     H229196   7.008   8.343   1.835
 9652WAT      O29197   8.271   2.225   5.335
 9652WAT     H129198   8.296   2.322   5.336
 9652WAT     H229199   8.284   2.188   5.244
 9653WAT      O29200   1.113   4.349   6.589
 9653WAT     H129201   1.048   4.348   6.666
 9653WAT     H229202   1.200   4.388   6.620
 9654WAT      O29203   7.714   7.906   6.500
 9654WAT     H129204   7.727   7.954   6.413
 9654WAT     H229205   7.774   7.826   6.504
 9655WAT      O29206   3.347   9.367   2.390
 9655WAT     H129207   3.320   9.396   2.299
 9655WAT     H229208   3.381   9.273   2.387
 9656WAT      O29209   3.072   3.185   5.069
 9656WAT     H129210   2.980   3.200   5.107
 9656WAT     H229211   3.102   3.266   5.020
 9657WAT      O29212   2.940   2.146   8.128
 9657WAT     H129213   2.913   2.058   8.088
 9657WAT     H229214   2.886   2.164   8.210
 9658WAT      O29215   3.287   0.056   8.824
 9658WAT     H129216   3.260  -0.040   8.818
 9658WAT     H229217   3.220   0.112   8.776
 9659WAT      O29218   5.896   1.758   3.073
 9659WAT     H129219   5.943   1.795   3.152
 9659WAT     H229220   5.797   1.757   3.090
 9660WAT      O29221   0.574   7.482   3.096
 9660WAT     H129222   0.616   7.395   3.070
 9660WAT     H229223   0.505   7.466   3.166
 9661WAT      O29224   2.757   5.787   6.687
 9661WAT     H129225   2.853   5.778   6.659
 9661WAT     H229226   2.701   5.811   6.607
 9662WAT      O29227   7.951   2.517   9.771
 9662WAT     H129228   7.868   2.472   9.805
 9662WAT     H229229   7.959   2.502   9.672
 9663WAT      O29230   5.873   7.861   4.740
 9663WAT     H129231   5.969   7.837   4.758
 9663WAT     H229232   5.862   7.960   4.749
 9664WAT      O29233   8.763   7.903   7.084
 9664WAT     H129234   8.701   7.972   7.046
 9664WAT     H229235   8.742   7.814   7.045
 9665WAT      O29236   0.608   7.429   5.635
 9665WAT     H129237   0.616   7.529   5.639
 9665WAT     H229238   0.525   7.400   5.681
 9666WAT      O29239   2.010   5.385   0.640
 9666WAT     H129240   2.050   5.297   0.613
 9666WAT     H229241   2.070   5.430   0.707
 9667WAT      O29242   2.422   2.265   4.063
 9667WAT     H129243   2.413   2.200   4.138
 9667WAT     H229244   2.382   2.352   4.090
 9668WAT      O29245   9.358   6.428   8.202
 9668WAT     H129246   9.432   6.490   8.228
 9668WAT     H229247   9.381   6.335   8.230
 9669WAT      O29248   8.550   2.362   2.757
 9669WAT     H129249   8.490   2.385   2.680
 9669WAT     H229250   8.510   2.286   2.809
 9670WAT      O29251   7.414   3.677   5.873
 9670WAT     H129252   7.401   3.706   5.967
 9670WAT     H229253   7.341   3.713   5.816
 9671WAT      O29254   4.538   5.176   7.224
 9671WAT     H129255   4.468   5.174   7.152
 9671WAT     H229256   4.534   5.090   7.276
 9672WAT      O29257   5.844   0.669   1.433
 9672WAT     H129258   5.886   0.652   1.521
 9672WAT     H229259   5.845   0.585   1.378
 9673WAT      O29260   7.744   0.771   1.773
 9673WAT     H129261   7.645   0.756   1.770
 9673WAT     H229262   7.785   0.706   1.837
 9674WAT      O29263   6.928   2.238   5.620
 9674WAT     H129264   6.931   2.326   5.573
 9674WAT     H229265   6.908   2.254   5.717
 9675WAT      O29266   7.054   8.292   6.286
 9675WAT     H129267   7.001   8.226   6.340
 9675WAT     H229268   7.010   8.303   6.196
 9676WAT      O29269   2.563   2.227   1.143
 9676WAT     H129270   2.558   2.326   1.155
 9676WAT     H229271   2.576   2.206   1.047
 9677WAT      O29272   5.146   5.772   4.845
 9677WAT     H129273   5.179   5.691   4.797
 9677WAT     H229274   5.156   5.852   4.786
 9678WAT      O29275   6.931   1.241   4.359
 9678WAT     H129276   6.857   1.308   4.363
 9678WAT     H229277   6.917   1.171   4.429
 9679WAT      O29278   3.390   7.688   3.335
 9679WAT     H129279   3.317   7.620   3.323
 9679WAT     H229280   3.476   7.641   3.354
 9680WAT      O29281   7.736   6.737   6.784
 9680WAT     H129282   7.640   6.755   6.806
 9680WAT     H229283   7.788   6.822   6.786
 9681WAT      O29284   5.349   0.065   0.539
 9681WAT     H129285   5.433   0.059   0.593
 9681WAT     H229286   5.365   0.026   0.448
 9682WAT      O29287   2.355   6.666   0.444
 9682WAT     H129288   2.363   6.590   0.509
 9682WAT     H229289   2.312   6.634   0.359
 9683WAT      O29290   0.178   0.165   1.173
 9683WAT     H129291   0.235   0.136   1.096
 9683WAT     H229292   0.226   0.149   1.259
 9684WAT      O29293   1.632   9.785   2.373
 9684WAT     H129294   1.637   9.781   2.472
 9684WAT     H229295   1.669   9.872   2.341
 9685WAT      O29296   9.850   2.278   2.644
 9685WAT     H129297   9.838   2.377   2.648
 9685WAT     H229298   9.948   2.256   2.647
 9686WAT      O29299   1.916   9.815   9.533
 9686WAT     H129300   1.971   9.855   9.460
 9686WAT     H229301   1.831   9.779   9.494
 9687WAT      O29302   0.055   2.893   0.796
 9687WAT     H129303  -0.002   2.837   0.736
 9687WAT     H229304   0.033   2.873   0.891
 9688WAT      O29305   8.352   3.754   0.483
 9688WAT     H129306   8.426   3.820   0.470
 9688WAT     H229307   8.372   3.670   0.431
 9689WAT      O29308   8.175   7.716   1.289
 9689WAT     H129309   8.182   7.814   1.271
 9689WAT     H229310   8.241   7.666   1.232
 9690WAT      O29311   4.845   8.382   1.171
 9690WAT     H129312   4.829   8.387   1.072
 9690WAT     H229313   4.802   8.460   1.216
 9691WAT      O29314   9.415   6.566   2.280
 9691WAT     H129315   9.316   6.551   2.290
 9691WAT     H229316   9.464   6.505   2.343
 9692WAT      O29317   2.270   3.286   0.500
 9692WAT     H129318   2.240   3.368   0.548
 9692WAT     H229319   2.290   3.310   0.405
 9693WAT      O29320   4.357   1.328   4.002
 9693WAT     H129321   4.378   1.426   4.008
 9693WAT     H229322   4.304   1.311   3.919
 9694WAT      O29323   2.516   3.297   4.908
 9694WAT     H129324   2.535   3.206   4.872
 9694WAT     H229325   2.602   3.347   4.920
 9695WAT      O29326   3.000   4.043   8.639
 9695WAT     H129327   3.052   4.086   8.565
 9695WAT     H229328   3.062   4.020   8.714
 9696WAT      O29329   7.536   0.173   8.878
 9696WAT     H129330   7.613   0.147   8.937
 9696WAT     H229331   7.566   0.243   8.814
 9697WAT      O29332   4.088   5.892   2.445
 9697WAT     H129333   4.158   5.916   2.512
 9697WAT     H229334   4.092   5.956   2.368
 9698WAT      O29335   9.768   1.613   0.532
 9698WAT     H129336   9.799   1.544   0.598
 9698WAT     H229337   9.847   1.655   0.488
 9699WAT      O29338   5.356   9.318   5.990
 9699WAT     H129339   5.402   9.272   5.914
 9699WAT     H229340   5.386   9.278   6.077
 9700WAT      O29341   4.798   1.524   6.649
 9700WAT     H129342   4.704   1.521   6.684
 9700WAT     H229343   4.795   1.525   6.549
 9701WAT      O29344   4.330   2.279   1.435
 9701WAT     H129345   4.392   2.251   1.508
 9701WAT     H229346   4.282   2.362   1.462
 9702WAT      O29347   4.558   5.582   2.066
 9702WAT     H129348   4.610   5.524   2.129
 9702WAT     H229349   4.507   5.650   2.118
 9703WAT      O29350   2.217   4.267   0.295
 9703WAT     H129351   2.119   4.277   0.311
 9703WAT     H229352   2.247   4.177   0.325
 9704WAT      O29353   6.253   3.174   0.293
 9704WAT     H129354   6.283   3.269   0.300
 9704WAT     H229355   6.239   3.137   0.384
 9705WAT      O29356   9.871   9.514   6.709
 9705WAT     H129357   9.961   9.554   6.693
 9705WAT     H229358   9.861   9.431   6.654
 9706WAT      O29359   2.040   8.673   2.527
 9706WAT     H129360   2.057   8.705   2.621
 9706WAT     H229361   2.024   8.575   2.528
 9707WAT      O29362   8.475   7.624   3.811
 9707WAT     H129363   8.536   7.546   3.828
 9707WAT     H229364   8.498   7.699   3.874
 9708WAT      O29365   1.429   8.888   3.821
 9708WAT     H129366   1.386   8.958   3.878
 9708WAT     H229367   1.444   8.805   3.875
 9709WAT      O29368   3.452   7.289   3.406
 9709WAT     H129369   3.415   7.203   3.440
 9709WAT     H229370   3.518   7.271   3.333
 9710WAT      O29371   3.165   4.852   3.332
 9710WAT     H129372   3.206   4.766   3.302
 9710WAT     H229373   3.065   4.843   3.332
 9711WAT      O29374   8.155   2.539   3.592
 9711WAT     H129375   8.250   2.506   3.583
 9711WAT     H229376   8.113   2.496   3.672
 9712WAT      O29377   8.133   4.246   5.625
 9712WAT     H129378   8.112   4.275   5.531
 9712WAT     H229379   8.050   4.212   5.668
 9713WAT      O29380   0.233   7.806   5.484
 9713WAT     H129381   0.300   7.818   5.556
 9713WAT     H229382   0.168   7.735   5.510
 9714WAT      O29383   7.332   0.848   1.448
 9714WAT     H129384   7.303   0.918   1.382
 9714WAT     H229385   7.344   0.890   1.538
 9715WAT      O29386   2.104   8.178   0.841
 9715WAT     H129387   2.045   8.258   0.830
 9715WAT     H229388   2.199   8.207   0.842
 9716WAT      O29389   2.179   5.048   7.855
 9716WAT     H129390   2.099   5.097   7.820
 9716WAT     H229391   2.166   5.026   7.951
 9717WAT      O29392   4.285   6.721   0.493
 9717WAT     H129393   4.327   6.787   0.431
 9717WAT     H229394   4.315   6.629   0.469
 9718WAT      O29395   8.366   3.213   7.933
 9718WAT     H129396   8.373   3.306   7.896
 9718WAT     H229397   8.398   3.213   8.028
 9719WAT      O29398   0.144   3.163   1.245
 9719WAT     H129399   0.160   3.069   1.273
 9719WAT     H229400   0.205   3.187   1.170
 9720WAT      O29401   3.299   4.109   7.768
 9720WAT     H129402   3.232   4.178   7.796
 9720WAT     H229403   3.331   4.059   7.849
 9721WAT      O29404   1.221   0.546   5.757
 9721WAT     H129405   1.301   0.498   5.792
 9721WAT     H229406   1.147   0.539   5.824
 9722WAT      O29407   5.440   4.853   1.357
 9722WAT     H129408   5.363   4.885   1.413
 9722WAT     H229409   5.429   4.886   1.264
 9723WAT      O29410   0.216   9.602   8.905
 9723WAT     H129411   0.208   9.542   8.825
 9723WAT     H229412   0.288   9.566   8.966
 9724WAT      O29413   0.621   2.428   4.291
 9724WAT     H129414   0.695   2.458   4.351
 9724WAT     H229415   0.551   2.499   4.287
 9725WAT      O29416   4.354   3.522   2.409
 9725WAT     H129417   4.271   3.472   2.385
 9725WAT     H229418   4.383   3.578   2.331
 9726WAT      O29419   1.575   6.223   9.409
 9726WAT     H129420   1.576   6.285   9.330
 9726WAT     H229421   1.651   6.245   9.470
 9727WAT      O29422   0.941   2.095   0.069
 9727WAT     H129423   1.029   2.079   0.024
 9727WAT     H229424   0.879   2.141   0.005
 9728WAT      O29425   4.752   1.251   6.279
 9728WAT     H129426   4.767   1.198   6.362
 9728WAT     H229427   4.840   1.280   6.242
 9729WAT      O29428   7.903   4.344   0.858
 9729WAT     H129429   7.842   4.408   0.905
 9729WAT     H229430   7.888   4.351   0.759
 9730WAT      O29431   9.670   4.517   4.122
 9730WAT     H129432   9.718   4.443   4.075
 9730WAT     H229433   9.577   4.488   4.144
 9731WAT      O29434   0.515   4.913   6.222
 9731WAT     H129435   0.602   4.870   6.244
 9731WAT     H229436   0.441   4.846   6.232
 9732WAT      O29437   9.311   3.292   2.471
 9732WAT     H129438   9.287   3.290   2.568
 9732WAT     H229439   9.410   3.282   2.461
 9733WAT      O29440   6.044   2.097   2.641
 9733WAT     H129441   5.981   2.020   2.642
 9733WAT     H229442   5.996   2.179   2.672
 9734WAT      O29443   0.897   8.110   8.865
 9734WAT     H129444   0.814   8.166   8.856
 9734WAT     H229445   0.964   8.158   8.922
 9735WAT      O29446   5.529   7.281   0.315
 9735WAT     H129447   5.624   7.256   0.332
 9735WAT     H229448   5.486   7.310   0.401
 9736WAT      O29449   2.275   0.760   0.596
 9736WAT     H129450   2.223   0.828   0.648
 9736WAT     H229451   2.235   0.670   0.609
 9737WAT      O29452   5.588   5.581   5.809
 9737WAT     H129453   5.524   5.651   5.841
 9737WAT     H229454   5.653   5.560   5.882
 9738WAT      O29455   4.756   1.007   1.738
 9738WAT     H129456   4.839   0.965   1.774
 9738WAT     H229457   4.675   0.963   1.777
 9739WAT      O29458   4.315   1.253   6.360
 9739WAT     H129459   4.275   1.341   6.333
 9739WAT     H229460   4.299   1.185   6.288
 9740WAT      O29461   9.676   1.006   8.073
 9740WAT     H129462   9.770   1.030   8.098
 9740WAT     H229463   9.646   1.066   7.999
 9741WAT      O29464   5.109   9.265   3.032
 9741WAT     H129465   5.089   9.362   3.046
 9741WAT     H229466   5.116   9.220   3.121
 9742WAT      O29467   5.878   6.720   8.667
 9742WAT     H129468   5.831   6.720   8.756
 9742WAT     H229469   5.933   6.637   8.658
 9743WAT      O29470   7.831   6.338   4.267
 9743WAT     H129471   7.748   6.313   4.217
 9743WAT     H229472   7.911   6.301   4.219
 9744WAT      O29473   9.710   7.450   3.876
 9744WAT     H129474   9.625   7.417   3.836
 9744WAT     H229475   9.694   7.481   3.970
 9745WAT      O29476   7.563   9.263   0.847
 9745WAT     H129477   7.507   9.223   0.919
 9745WAT     H229478   7.649   9.297   0.886
 9746WAT      O29479   1.892   0.487   1.509
 9746WAT     H129480   1.795   0.501   1.491
 9746WAT     H229481   1.941   0.479   1.422
 9747WAT      O29482   7.882   3.798   1.292
 9747WAT     H129483   7.927   3.785   1.204
 9747WAT     H229484   7.927   3.739   1.361
 9748WAT      O29485   9.448   6.192   8.296
 9748WAT     H129486   9.400   6.105   8.310
 9748WAT     H229487   9.533   6.191   8.348
 9749WAT      O29488   7.301   2.162   2.900
 9749WAT     H129489   7.366   2.137   2.972
 9749WAT     H229490   7.235   2.089   2.887
 9750WAT      O29491   8.033   2.156   3.586
 9750WAT     H129492   8.080   2.069   3.601
 9750WAT     H229493   8.059   2.193   3.497
 9751WAT      O29494   6.751   4.121   3.650
 9751WAT     H129495   6.674   4.138   3.711
 9751WAT     H229496   6.837   4.137   3.699
 9752WAT      O29497   8.206   6.767   4.307
 9752WAT     H129498   8.176   6.713   4.228
 9752WAT     H229499   8.298   6.803   4.290
 9753WAT      O29500   2.040   2.936   1.162
 9753WAT     H129501   2.083   2.860   1.113
 9753WAT     H229502   2.112   2.997   1.197
 9754WAT      O29503   3.365   1.832   6.361
 9754WAT     H129504   3.394   1.852   6.267
 9754WAT     H229505   3.387   1.910   6.420
 9755WAT      O29506   5.269   2.209   9.063
 9755WAT     H129507   5.236   2.185   8.971
 9755WAT     H229508   5.192   2.240   9.119
 9756WAT      O29509   2.073   1.297   8.308
 9756WAT     H129510   2.149   1.283   8.370
 9756WAT     H229511   1.997   1.341   8.356
 9757WAT      O29512   8.974   1.202   5.281
 9757WAT     H129513   8.919   1.281   5.255
 9757WAT     H229514   8.914   1.126   5.307
 9758WAT      O29515   6.155   7.762   9.404
 9758WAT     H129516   6.099   7.731   9.327
 9758WAT     H229517   6.248   7.727   9.394
 9759WAT      O29518   9.496   7.852   4.975
 9759WAT     H129519   9.438   7.909   5.033
 9759WAT     H229520   9.505   7.761   5.016
 9760WAT      O29521   5.027   7.471   1.142
 9760WAT     H129522   5.041   7.441   1.236
 9760WAT     H229523   4.935   7.445   1.112
 9761WAT      O29524   8.936   7.544   0.870
 9761WAT     H129525   8.873   7.619   0.851
 9761WAT     H229526   8.912   7.465   0.814
 9762WAT      O29527   9.244   6.732   4.926
 9762WAT     H129528   9.307   6.804   4.897
 9762WAT     H229529   9.292   6.645   4.928
 9763WAT      O29530   0.383   1.324   0.404
 9763WAT     H129531   0.423   1.285   0.321
 9763WAT     H229532   0.449   1.387   0.446
 9764WAT      O29533   4.033   8.977   7.131
 9764WAT     H129534   4.094   9.008   7.059
 9764WAT     H229535   4.058   9.020   7.217
 9765WAT      O29536   2.076   2.820   4.112
 9765WAT     H129537   2.154   2.877   4.139
 9765WAT     H229538   2.054   2.756   4.186
 9766WAT      O29539   4.926   6.599   5.776
 9766WAT     H129540   4.886   6.669   5.835
 9766WAT     H229541   4.893   6.611   5.683
 9767WAT      O29542   7.780   6.958   6.506
 9767WAT     H129543   7.837   6.912   6.438
 9767WAT     H229544   7.687   6.965   6.471
 9768WAT      O29545   8.836   6.709   1.305
 9768WAT     H129546   8.742   6.678   1.321
 9768WAT     H229547   8.841   6.753   1.215
 9769WAT      O29548   6.367   5.010   4.698
 9769WAT     H129549   6.329   5.088   4.649
 9769WAT     H229550   6.367   4.930   4.639
 9770WAT      O29551   1.271   1.572   7.814
 9770WAT     H129552   1.176   1.543   7.818
 9770WAT     H229553   1.299   1.584   7.718
 9771WAT      O29554   3.116   3.205   3.890
 9771WAT     H129555   3.193   3.166   3.941
 9771WAT     H229556   3.094   3.146   3.812
 9772WAT      O29557   0.562   7.993   9.589
 9772WAT     H129558   0.582   8.015   9.685
 9772WAT     H229559   0.620   8.049   9.530
 9773WAT      O29560   8.480   4.627   3.291
 9773WAT     H129561   8.421   4.618   3.210
 9773WAT     H229562   8.424   4.620   3.373
 9774WAT      O29563   1.348   5.119   7.663
 9774WAT     H129564   1.387   5.180   7.732
 9774WAT     H229565   1.249   5.114   7.675
 9775WAT      O29566   8.919   3.785   6.149
 9775WAT     H129567   8.867   3.845   6.088
 9775WAT     H229568   8.993   3.742   6.098
 9776WAT      O29569   1.095   6.683   9.045
 9776WAT     H129570   1.182   6.686   8.995
 9776WAT     H229571   1.094   6.603   9.105
 9777WAT      O29572   8.971   5.902   4.565
 9777WAT     H129573   8.928   5.991   4.549
 9777WAT     H229574   9.068   5.915   4.582
 9778WAT      O29575   6.864   9.114   7.830
 9778WAT     H129576   6.876   9.150   7.923
 9778WAT     H229577   6.767   9.114   7.806
 9779WAT      O29578   8.128   2.349   2.899
 9779WAT     H129579   8.211   2.376   2.948
 9779WAT     H229580   8.119   2.249   2.901
 9780WAT      O29581   2.874   2.277   3.579
 9780WAT     H129582   2.910   2.280   3.672
 9780WAT     H229583   2.777   2.254   3.581
 9781WAT      O29584   0.968   0.379   2.015
 9781WAT     H129585   0.922   0.382   1.926
 9781WAT     H229586   1.029   0.300   2.018
 9782WAT      O29587   8.372   2.347   8.767
 9782WAT     H129588   8.472   2.357   8.763
 9782WAT     H229589   8.347   2.253   8.741
 9783WAT      O29590   3.343   8.261   2.294
 9783WAT     H129591   3.258   8.274   2.244
 9783WAT     H229592   3.345   8.168   2.331
 9784WAT      O29593   4.036   5.672   4.999
 9784WAT     H129594   4.128   5.709   4.992
 9784WAT     H229595   4.039   5.572   4.989
 9785WAT      O29596   3.183   6.233   0.400
 9785WAT     H129597   3.119   6.253   0.326
 9785WAT     H229598   3.272   6.211   0.363
 9786WAT      O29599   6.291   2.213   4.641
 9786WAT     H129600   6.316   2.303   4.607
 9786WAT     H229601   6.329   2.200   4.732
 9787WAT      O29602   4.257   0.945   4.814
 9787WAT     H129603   4.242   1.043   4.809
 9787WAT     H229604   4.355   0.925   4.810
 9788WAT      O29605   5.921   2.781   6.300
 9788WAT     H129606   5.837   2.727   6.302
 9788WAT     H229607   5.913   2.857   6.365
 9789WAT      O29608   3.301   9.050   5.729
 9789WAT     H129609   3.315   9.035   5.827
 9789WAT     H229610   3.272   8.964   5.686
 9790WAT      O29611   8.602   7.044   5.821
 9790WAT     H129612   8.582   6.991   5.739
 9790WAT     H229613   8.521   7.048   5.879
 9791WAT      O29614   6.028   3.229   8.545
 9791WAT     H129615   6.037   3.275   8.457
 9791WAT     H229616   6.005   3.295   8.616
 9792WAT      O29617   8.446   4.915   0.505
 9792WAT     H129618   8.387   4.964   0.569
 9792WAT     H229619   8.461   4.822   0.539
 9793WAT      O29620   3.174   7.333   8.660
 9793WAT     H129621   3.237   7.270   8.706
 9793WAT     H229622   3.180   7.423   8.704
 9794WAT      O29623   3.349   7.678   7.756
 9794WAT     H129624   3.385   7.671   7.663
 9794WAT     H229625   3.400   7.747   7.807
 9795WAT      O29626   1.248   0.303   3.944
 9795WAT     H129627   1.330   0.306   4.001
 9795WAT     H229628   1.274   0.301   3.848
 9796WAT      O29629   1.486   1.834   6.204
 9796WAT     H129630   1.403   1.841   6.149
 9796WAT     H229631   1.566   1.827   6.144
 9797WAT      O29632   4.532   2.713   5.044
 9797WAT     H129633   4.574   2.726   4.954
 9797WAT     H229634   4.436   2.687   5.032
 9798WAT      O29635   0.451   1.702   8.007
 9798WAT     H129636   0.374   1.765   8.020
 9798WAT     H229637   0.501   1.727   7.924
 9799WAT      O29638   5.891   5.023   7.254
 9799WAT     H129639   5.927   5.026   7.161
 9799WAT     H229640   5.831   4.944   7.264
 9800WAT      O29641   0.915   6.889   2.576
 9800WAT     H129642   0.842   6.934   2.522
 9800WAT     H229643   1.001   6.895   2.526
 9801WAT      O29644   2.241   5.313   7.962
 9801WAT     H129645   2.217   5.309   8.059
 9801WAT     H229646   2.277   5.225   7.933
 9802WAT      O29647   4.759   6.259   3.671
 9802WAT     H129648   4.832   6.197   3.643
 9802WAT     H229649   4.737   6.243   3.768
 9803WAT      O29650   9.158   8.548   4.677
 9803WAT     H129651   9.214   8.506   4.606
 9803WAT     H229652   9.187   8.514   4.766
 9804WAT      O29653   0.324   8.864   9.179
 9804WAT     H129654   0.389   8.894   9.109
 9804WAT     H229655   0.339   8.767   9.199
 9805WAT      O29656   9.505   0.597   4.999
 9805WAT     H129657   9.570   0.622   4.927
 9805WAT     H229658   9.554   0.582   5.085
 9806WAT      O29659   2.414   0.677   1.779
 9806WAT     H129660   2.337   0.721   1.824
 9806WAT     H229661   2.465   0.745   1.726
 9807WAT      O29662   7.531   7.404   3.854
 9807WAT     H129663   7.536   7.306   3.869
 9807WAT     H229664   7.445   7.440   3.892
 9808WAT      O29665   9.390   1.163   8.572
 9808WAT     H129666   9.385   1.213   8.486
 9808WAT     H229667   9.461   1.203   8.631
 9809WAT      O29668   2.944   7.545   2.231
 9809WAT     H129669   2.994   7.482   2.290
 9809WAT     H229670   2.997   7.560   2.147
 9810WAT      O29671   8.087   7.924   9.400
 9810WAT     H129672   8.073   8.015   9.439
 9810WAT     H229673   8.030   7.913   9.318
 9811WAT      O29674   6.819   7.185   3.490
 9811WAT     H129675   6.844   7.270   3.445
 9811WAT     H229676   6.839   7.108   3.429
 9812WAT      O29677   5.063   3.831   6.643
 9812WAT     H129678   5.098   3.784   6.724
 9812WAT     H229679   5.006   3.768   6.590
 9813WAT      O29680   4.761   2.523   5.565
 9813WAT     H129681   4.791   2.451   5.627
 9813WAT     H229682   4.669   2.503   5.530
 9814WAT      O29683   1.148   9.053   7.806
 9814WAT     H129684   1.086   9.128   7.827
 9814WAT     H229685   1.168   9.052   7.708
 9815WAT      O29686   8.596   8.586   6.458
 9815WAT     H129687   8.546   8.538   6.386
 9815WAT     H229688   8.662   8.524   6.501
 9816WAT      O29689   1.595   8.415   0.648
 9816WAT     H129690   1.528   8.468   0.596
 9816WAT     H229691   1.677   8.469   0.663
 9817WAT      O29692   0.017   6.847   1.723
 9817WAT     H129693  -0.004   6.886   1.633
 9817WAT     H229694  -0.041   6.889   1.792
 9818WAT      O29695   7.972   8.242   9.117
 9818WAT     H129696   7.881   8.223   9.153
 9818WAT     H229697   8.033   8.270   9.192
 9819WAT      O29698   3.956   0.191   5.651
 9819WAT     H129699   3.927   0.280   5.616
 9819WAT     H229700   4.054   0.180   5.636
 9820WAT      O29701   0.572   5.610   0.911
 9820WAT     H129702   0.507   5.541   0.941
 9820WAT     H229703   0.542   5.649   0.824
 9821WAT      O29704   4.446   5.822   0.222
 9821WAT     H129705   4.496   5.826   0.136
 9821WAT     H229706   4.498   5.871   0.293
 9822WAT      O29707   4.957   3.240   7.481
 9822WAT     H129708   4.878   3.300   7.493
 9822WAT     H229709   5.025   3.285   7.423
 9823WAT      O29710   6.263   1.430   8.146
 9823WAT     H129711   6.179   1.474   8.115
 9823WAT     H229712   6.304   1.379   8.070
 9824WAT      O29713   9.516   6.882   9.668
 9824WAT     H129714   9.557   6.843   9.751
 9824WAT     H229715   9.466   6.965   9.691
 9825WAT      O29716   4.127   8.193   6.597
 9825WAT     H129717   4.216   8.237   6.611
 9825WAT     H229718   4.135   8.123   6.526
 9826WAT      O29719   2.611   7.478   2.677
 9826WAT     H129720   2.609   7.575   2.652
 9826WAT     H229721   2.694   7.436   2.641
 9827WAT      O29722   0.391   8.760   9.858
 9827WAT     H129723   0.322   8.826   9.886
 9827WAT     H229724   0.427   8.713   9.939
 9828WAT      O29725   7.454   1.512   7.880
 9828WAT     H129726   7.379   1.497   7.815
 9828WAT     H229727   7.453   1.439   7.948
 9829WAT      O29728   4.732   9.118   8.853
 9829WAT     H129729   4.656   9.061   8.822
 9829WAT     H229730   4.723   9.133   8.952
 9830WAT      O29731   6.153   9.062   9.762
 9830WAT     H129732   6.165   9.001   9.840
 9830WAT     H229733   6.089   9.135   9.786
 9831WAT      O29734   9.752   7.054   0.857
 9831WAT     H129735   9.804   7.117   0.799
 9831WAT     H229736   9.811   6.979   0.887
 9832WAT      O29737   4.684   5.939   3.290
 9832WAT     H129738   4.627   6.012   3.253
 9832WAT     H229739   4.778   5.949   3.256
 9833WAT      O29740   1.589   3.113   2.132
 9833WAT     H129741   1.517   3.102   2.200
 9833WAT     H229742   1.576   3.200   2.083
 9834WAT      O29743   3.841   5.888   2.567
 9834WAT     H129744   3.925   5.898   2.514
 9834WAT     H229745   3.785   5.970   2.556
 9835WAT      O29746   3.219   5.949   9.469
 9835WAT     H129747   3.311   5.909   9.473
 9835WAT     H229748   3.177   5.925   9.381
 9836WAT      O29749   3.864   0.453   2.730
 9836WAT     H129750   3.834   0.482   2.639
 9836WAT     H229751   3.868   0.533   2.791
 9837WAT      O29752   9.585   7.893   7.324
 9837WAT     H129753   9.539   7.956   7.262
 9837WAT     H229754   9.547   7.801   7.315
 9838WAT      O29755   3.681   6.346   0.538
 9838WAT     H129756   3.714   6.337   0.443
 9838WAT     H229757   3.636   6.261   0.565
 9839WAT      O29758   3.088   2.527   6.381
 9839WAT     H129759   3.136   2.615   6.378
 9839WAT     H229760   3.145   2.461   6.430
 9840WAT      O29761   1.924   6.455   1.716
 9840WAT     H129762   2.012   6.434   1.759
 9840WAT     H229763   1.940   6.490   1.624
 9841WAT      O29764   6.053   1.631   7.308
 9841WAT     H129765   6.036   1.719   7.262
 9841WAT     H229766   6.147   1.629   7.342
 9842WAT      O29767   4.648   5.067   5.520
 9842WAT     H129768   4.603   5.042   5.435
 9842WAT     H229769   4.581   5.107   5.583
 9843WAT      O29770   8.289   6.443   9.234
 9843WAT     H129771   8.280   6.387   9.151
 9843WAT     H229772   8.234   6.526   9.224
 9844WAT      O29773   3.652   8.962   6.882
 9844WAT     H129774   3.666   8.957   6.981
 9844WAT     H229775   3.613   8.875   6.850
 9845WAT      O29776   3.607   2.235   8.894
 9845WAT     H129777   3.529   2.196   8.943
 9845WAT     H229778   3.603   2.334   8.899
 9846WAT      O29779   5.112   6.792   9.331
 9846WAT     H129780   5.089   6.723   9.401
 9846WAT     H229781   5.128   6.880   9.376
 9847WAT      O29782   9.752   6.503   7.697
 9847WAT     H129783   9.685   6.577   7.689
 9847WAT     H229784   9.809   6.520   7.778
 9848WAT      O29785   2.815   4.422   3.145
 9848WAT     H129786   2.734   4.363   3.149
 9848WAT     H229787   2.889   4.374   3.097
 9849WAT      O29788   4.581   6.154   1.231
 9849WAT     H129789   4.531   6.090   1.290
 9849WAT     H229790   4.585   6.116   1.138
 9850WAT      O29791   9.812   3.730   8.928
 9850WAT     H129792   9.717   3.704   8.914
 9850WAT     H229793   9.817   3.827   8.952
 9851WAT      O29794   7.792   4.019   4.282
 9851WAT     H129795   7.703   3.975   4.270
 9851WAT     H229796   7.781   4.099   4.342
 9852WAT      O29797   9.115   0.120   6.252
 9852WAT     H129798   9.047   0.178   6.208
 9852WAT     H229799   9.201   0.171   6.262
 9853WAT      O29800   7.104   5.718   1.052
 9853WAT     H129801   7.021   5.772   1.045
 9853WAT     H229802   7.083   5.622   1.035
 9854WAT      O29803   1.842   8.716   4.272
 9854WAT     H129804   1.782   8.677   4.342
 9854WAT     H229805   1.880   8.802   4.304
 9855WAT      O29806   8.709   6.422   3.937
 9855WAT     H129807   8.670   6.514   3.926
 9855WAT     H229808   8.796   6.429   3.986
 9856WAT      O29809   0.339   6.029   1.272
 9856WAT     H129810   0.344   5.953   1.337
 9856WAT     H229811   0.376   6.001   1.184
 9857WAT      O29812   1.652   2.961   8.379
 9857WAT     H129813   1.678   2.867   8.360
 9857WAT     H229814   1.584   2.962   8.453
 9858WAT      O29815   0.852   0.493   4.538
 9858WAT     H129816   0.802   0.439   4.606
 9858WAT     H229817   0.885   0.577   4.581
 9859WAT      O29818   4.041   6.571   5.701
 9859WAT     H129819   4.048   6.625   5.785
 9859WAT     H229820   3.945   6.565   5.674
 9860WAT      O29821   9.571   5.543   7.235
 9860WAT     H129822   9.658   5.532   7.187
 9860WAT     H229823   9.499   5.566   7.170
 9861WAT      O29824   2.906   6.552   3.811
 9861WAT     H129825   2.912   6.454   3.830
 9861WAT     H229826   2.867   6.600   3.889
 9862WAT      O29827   3.744   7.770   3.054
 9862WAT     H129828   3.743   7.713   2.972
 9862WAT     H229829   3.654   7.812   3.066
 9863WAT      O29830   2.198   9.123   8.134
 9863WAT     H129831   2.115   9.175   8.155
 9863WAT     H229832   2.186   9.028   8.162
 9864WAT      O29833   9.289   6.190   9.383
 9864WAT     H129834   9.240   6.273   9.353
 9864WAT     H229835   9.307   6.132   9.304
 9865WAT      O29836   1.878   8.064   1.577
 9865WAT     H129837   1.834   8.063   1.667
 9865WAT     H229838   1.829   8.004   1.514
 9866WAT      O29839   0.911   8.977   8.663
 9866WAT     H129840   0.867   8.950   8.749
 9866WAT     H229841   0.853   8.950   8.586
 9867WAT      O29842   7.995   9.290   3.914
 9867WAT     H129843   7.997   9.227   3.836
 9867WAT     H229844   8.083   9.286   3.961
 9868WAT      O29845   4.236   4.029   7.926
 9868WAT     H129846   4.196   4.118   7.945
 9868WAT     H229847   4.164   3.959   7.923
 9869WAT      O29848   2.105   1.116   5.684
 9869WAT     H129849   2.130   1.021   5.666
 9869WAT     H229850   2.096   1.131   5.783
 9870WAT      O29851   2.802   1.841   5.183
 9870WAT     H129852   2.813   1.837   5.282
 9870WAT     H229853   2.708   1.868   5.160
 9871WAT      O29854   5.916   4.571   2.755
 9871WAT     H129855   5.819   4.595   2.753
 9871WAT     H229856   5.970   4.644   2.714
 9872WAT      O29857   3.080   1.271   0.033
 9872WAT     H129858   3.065   1.186  -0.019
 9872WAT     H229859   3.010   1.280   0.103
 9873WAT      O29860   1.940   8.921   3.564
 9873WAT     H129861   1.845   8.949   3.581
 9873WAT     H229862   1.995   8.940   3.645
 9874WAT      O29863   2.920   4.247   8.811
 9874WAT     H129864   2.916   4.203   8.901
 9874WAT     H229865   2.914   4.177   8.740
 9875WAT      O29866   4.983   7.439   8.485
 9875WAT     H129867   4.885   7.456   8.493
 9875WAT     H229868   5.030   7.475   8.566
 9876WAT      O29869   3.983   2.611   3.142
 9876WAT     H129870   4.008   2.611   3.238
 9876WAT     H229871   4.057   2.651   3.088
 9877WAT      O29872   2.787   1.970   0.340
 9877WAT     H129873   2.823   2.047   0.287
 9877WAT     H229874   2.723   2.003   0.409
 9878WAT      O29875   3.927   6.272   9.093
 9878WAT     H129876   3.963   6.261   9.186
 9878WAT     H229877   3.965   6.201   9.034
 9879WAT      O29878   3.715   0.396   9.153
 9879WAT     H129879   3.650   0.368   9.224
 9879WAT     H229880   3.665   0.427   9.072
 9880WAT      O29881   2.992   7.455   5.293
 9880WAT     H129882   2.961   7.493   5.380
 9880WAT     H229883   3.083   7.415   5.305
 9881WAT      O29884   3.663   6.660   8.637
 9881WAT     H129885   3.671   6.636   8.733
 9881WAT     H229886   3.741   6.622   8.586
 9882WAT      O29887   3.409   1.582   5.693
 9882WAT     H129888   3.385   1.488   5.714
 9882WAT     H229889   3.492   1.607   5.744
 9883WAT      O29890   3.875   7.168   8.196
 9883WAT     H129891   3.784   7.146   8.161
 9883WAT     H229892   3.873   7.166   8.296
 9884WAT      O29893   7.636   5.812   9.593
 9884WAT     H129894   7.601   5.876   9.662
 9884WAT     H229895   7.693   5.862   9.528
 9885WAT      O29896   2.603   5.247   0.370
 9885WAT     H129897   2.593   5.178   0.442
 9885WAT     H229898   2.625   5.203   0.284
 9886WAT      O29899   2.132   1.981   0.740
 9886WAT     H129900   2.049   1.985   0.795
 9886WAT     H229901   2.128   1.902   0.679
 9887WAT      O29902   5.195   1.026   7.838
 9887WAT     H129903   5.148   0.942   7.869
 9887WAT     H229904   5.288   1.027   7.874
 9888WAT      O29905   7.656   2.138   9.686
 9888WAT     H129906   7.638   2.057   9.742
 9888WAT     H229907   7.580   2.203   9.696
 9889WAT      O29908   3.323   2.601   4.287
 9889WAT     H129909   3.361   2.578   4.377
 9889WAT     H229910   3.354   2.692   4.260
 9890WAT      O29911   2.952   9.325   7.162
 9890WAT     H129912   3.008   9.243   7.171
 9890WAT     H229913   2.991   9.384   7.092
 9891WAT      O29914   2.518   5.150   7.931
 9891WAT     H129915   2.511   5.106   7.841
 9891WAT     H229916   2.538   5.081   8.000
 9892WAT      O29917   6.646   8.609   4.206
 9892WAT     H129918   6.666   8.685   4.268
 9892WAT     H229919   6.731   8.572   4.170
 9893WAT      O29920   4.329   8.248   4.169
 9893WAT     H129921   4.423   8.223   4.192
 9893WAT     H229922   4.270   8.167   4.177
 9894WAT      O29923   6.469   5.464   0.367
 9894WAT     H129924   6.533   5.449   0.292
 9894WAT     H229925   6.422   5.551   0.355
 9895WAT      O29926   8.769   0.640   6.074
 9895WAT     H129927   8.729   0.728   6.046
 9895WAT     H229928   8.767   0.577   5.997
 9896WAT      O29929   7.693   0.592   8.008
 9896WAT     H129930   7.620   0.583   7.940
 9896WAT     H229931   7.687   0.515   8.072
 9897WAT      O29932   6.167   0.626   7.750
 9897WAT     H129933   6.215   0.591   7.830
 9897WAT     H229934   6.082   0.670   7.779
 9898WAT      O29935   1.346   5.695   8.186
 9898WAT     H129936   1.422   5.632   8.169
 9898WAT     H229937   1.263   5.657   8.147
 9899WAT      O29938   1.441   3.671   2.707
 9899WAT     H129939   1.528   3.720   2.703
 9899WAT     H229940   1.449   3.584   2.660
 9900WAT      O29941   9.017   0.756   6.197
 9900WAT     H129942   9.043   0.837   6.145
 9900WAT     H229943   8.924   0.729   6.174
 9901WAT      O29944   0.804   0.511   9.732
 9901WAT     H129945   0.880   0.515   9.668
 9901WAT     H229946   0.839   0.490   9.824
 9902WAT      O29947   4.076   9.362   7.832
 9902WAT     H129948   3.985   9.398   7.813
 9902WAT     H229949   4.131   9.363   7.748
 9903WAT      O29950   1.489   5.648   9.404
 9903WAT     H129951   1.457   5.724   9.347
 9903WAT     H229952   1.530   5.685   9.488
 9904WAT      O29953   1.661   2.293   2.892
 9904WAT     H129954   1.600   2.363   2.855
 9904WAT     H229955   1.735   2.336   2.944
 9905WAT      O29956   0.315   1.913   3.405
 9905WAT     H129957   0.255   1.921   3.325
 9905WAT     H229958   0.406   1.885   3.375
 9906WAT      O29959   3.989   3.802   0.366
 9906WAT     H129960   3.980   3.797   0.266
 9906WAT     H229961   3.902   3.777   0.408
 9907WAT      O29962   9.714   7.944   6.435
 9907WAT     H129963   9.752   7.959   6.344
 9907WAT     H229964   9.715   7.847   6.456
 9908WAT      O29965   2.484   0.582   4.816
 9908WAT     H129966   2.473   0.657   4.751
 9908WAT     H229967   2.556   0.520   4.784
 9909WAT      O29968   9.801   1.903   3.445
 9909WAT     H129969   9.831   1.939   3.534
 9909WAT     H229970   9.797   1.803   3.450
 9910WAT      O29971   6.800   3.514   3.664
 9910WAT     H129972   6.854   3.536   3.583
 9910WAT     H229973   6.804   3.590   3.729
 9911WAT      O29974   3.337   5.596   6.646
 9911WAT     H129975   3.300   5.673   6.697
 9911WAT     H229976   3.322   5.512   6.699
 9912WAT      O29977   6.242   2.566   2.068
 9912WAT     H129978   6.238   2.467   2.056
 9912WAT     H229979   6.289   2.607   1.990
 9913WAT      O29980   9.602   1.640   4.601
 9913WAT     H129981   9.631   1.547   4.576
 9913WAT     H229982   9.676   1.704   4.581
 9914WAT      O29983   7.154   0.053   7.890
 9914WAT     H129984   7.155  -0.011   7.814
 9914WAT     H229985   7.119   0.141   7.859
 9915WAT      O29986   0.240   4.384   4.946
 9915WAT     H129987   0.163   4.443   4.971
 9915WAT     H229988   0.283   4.419   4.863
 9916WAT      O29989   2.685   6.704   6.985
 9916WAT     H129990   2.707   6.631   6.921
 9916WAT     H229991   2.697   6.672   7.079
 9917WAT      O29992   3.171   3.322   9.222
 9917WAT     H129993   3.205   3.394   9.161
 9917WAT     H229994   3.071   3.328   9.228
 9918WAT      O29995   0.659   5.226   7.920
 9918WAT     H129996   0.672   5.223   8.019
 9918WAT     H229997   0.699   5.309   7.883
 9919WAT      O29998   1.745   5.431   0.706
 9919WAT     H129999   1.760   5.528   0.683
 9919WAT     H230000   1.831   5.382   0.701
 9920WAT      O30001   3.870   7.724   4.333
 9920WAT     H130002   3.898   7.811   4.292
 9920WAT     H230003   3.838   7.662   4.261
 9921WAT      O30004   2.941   8.843   4.477
 9921WAT     H130005   3.022   8.868   4.531
 9921WAT     H230006   2.861   8.843   4.537
 9922WAT      O30007   4.330   6.788   2.654
 9922WAT     H130008   4.419   6.791   2.700
 9922WAT     H230009   4.313   6.876   2.610
 9923WAT      O30010   3.536   5.444   1.358
 9923WAT     H130011   3.535   5.470   1.261
 9923WAT     H230012   3.444   5.419   1.387
 9924WAT      O30013   6.408   4.811   4.520
 9924WAT     H130014   6.325   4.757   4.506
 9924WAT     H230015   6.464   4.809   4.436
 9925WAT      O30016   8.061   1.954   3.746
 9925WAT     H130017   8.086   1.989   3.836
 9925WAT     H230018   7.964   1.932   3.743
 9926WAT      O30019   8.943   7.988   5.180
 9926WAT     H130020   8.980   8.081   5.176
 9926WAT     H230021   8.854   7.989   5.227
 9927WAT      O30022   6.869   2.240   4.474
 9927WAT     H130023   6.852   2.148   4.508
 9927WAT     H230024   6.782   2.282   4.447
 9928WAT      O30025   7.732   6.642   4.034
 9928WAT     H130026   7.791   6.722   4.028
 9928WAT     H230027   7.664   6.657   4.107
 9929WAT      O30028   8.315   6.954   7.160
 9929WAT     H130029   8.340   7.003   7.244
 9929WAT     H230030   8.218   6.967   7.142
 9930WAT      O30031   1.630   5.093   4.877
 9930WAT     H130032   1.680   5.092   4.791
 9930WAT     H230033   1.625   5.000   4.914
 9931WAT      O30034   9.195   9.750   3.525
 9931WAT     H130035   9.105   9.706   3.524
 9931WAT     H230036   9.184   9.848   3.540
 9932WAT      O30037   4.722   2.871   8.429
 9932WAT     H130038   4.768   2.957   8.453
 9932WAT     H230039   4.634   2.867   8.477
 9933WAT      O30040   6.831   9.067   4.455
 9933WAT     H130041   6.916   9.087   4.503
 9933WAT     H230042   6.811   9.142   4.392
 9934WAT      O30043   3.882   1.775   8.526
 9934WAT     H130044   3.905   1.866   8.494
 9934WAT     H230045   3.882   1.773   8.626
 9935WAT      O30046   8.576   4.274   0.635
 9935WAT     H130047   8.595   4.361   0.681
 9935WAT     H230048   8.654   4.213   0.647
 9936WAT      O30049   0.775   3.700   1.500
 9936WAT     H130050   0.686   3.653   1.492
 9936WAT     H230051   0.832   3.651   1.565
 9937WAT      O30052   5.593   0.963   7.543
 9937WAT     H130053   5.567   1.045   7.593
 9937WAT     H230054   5.662   0.913   7.594
 9938WAT      O30055   8.417   0.412   2.653
 9938WAT     H130056   8.456   0.407   2.745
 9938WAT     H230057   8.341   0.347   2.646
 9939WAT      O30058   6.766   2.677   1.889
 9939WAT     H130059   6.733   2.660   1.796
 9939WAT     H230060   6.698   2.645   1.955
 9940WAT      O30061   5.329   2.992   3.143
 9940WAT     H130062   5.284   3.040   3.068
 9940WAT     H230063   5.297   2.897   3.145
 9941WAT      O30064   5.602   2.929   2.964
 9941WAT     H130065   5.566   2.961   2.876
 9941WAT     H230066   5.552   2.847   2.993
 9942WAT      O30067   7.864   2.985   4.174
 9942WAT     H130068   7.926   2.917   4.213
 9942WAT     H230069   7.875   2.987   4.075
 9943WAT      O30070   7.739   8.082   2.088
 9943WAT     H130071   7.749   8.177   2.119
 9943WAT     H230072   7.682   8.032   2.153
 9944WAT      O30073   5.974   2.134   5.099
 9944WAT     H130074   6.066   2.094   5.104
 9944WAT     H230075   5.967   2.192   5.018
 9945WAT      O30076   9.620   1.037   8.879
 9945WAT     H130077   9.700   0.998   8.924
 9945WAT     H230078   9.589   0.977   8.806
 9946WAT      O30079   2.622   5.186   1.851
 9946WAT     H130080   2.625   5.285   1.857
 9946WAT     H230081   2.636   5.147   1.942
 9947WAT      O30082   8.245   6.351   0.225
 9947WAT     H130083   8.226   6.286   0.298
 9947WAT     H230084   8.160   6.370   0.175
 9948WAT      O30085   8.445   3.104   2.774
 9948WAT     H130086   8.523   3.154   2.738
 9948WAT     H230087   8.364   3.125   2.720
 9949WAT      O30088   9.147   5.259   8.113
 9949WAT     H130089   9.192   5.322   8.049
 9949WAT     H230090   9.088   5.310   8.175
 9950WAT      O30091   8.848   4.148   3.810
 9950WAT     H130092   8.839   4.175   3.906
 9950WAT     H230093   8.917   4.205   3.765
 9951WAT      O30094   8.310   7.523   6.378
 9951WAT     H130095   8.294   7.493   6.284
 9951WAT     H230096   8.239   7.588   6.405
 9952WAT      O30097   1.356   2.025   5.626
 9952WAT     H130098   1.304   1.960   5.570
 9952WAT     H230099   1.318   2.026   5.719
 9953WAT      O30100   1.116   0.446   5.130
 9953WAT     H130101   1.186   0.375   5.116
 9953WAT     H230102   1.076   0.435   5.221
 9954WAT      O30103   1.192   3.650   7.174
 9954WAT     H130104   1.130   3.622   7.101
 9954WAT     H230105   1.277   3.597   7.167
 9955WAT      O30106   2.348   8.272   5.611
 9955WAT     H130107   2.399   8.283   5.526
 9955WAT     H230108   2.283   8.197   5.601
 9956WAT      O30109   9.375   8.175   9.010
 9956WAT     H130110   9.345   8.215   8.923
 9956WAT     H230111   9.365   8.243   9.083
 9957WAT      O30112   2.335   9.592   1.006
 9957WAT     H130113   2.321   9.543   0.920
 9957WAT     H230114   2.275   9.672   1.010
 9958WAT      O30115   1.425   1.293   0.809
 9958WAT     H130116   1.494   1.324   0.743
 9958WAT     H230117   1.409   1.195   0.797
 9959WAT      O30118   0.532   6.163   1.462
 9959WAT     H130119   0.539   6.082   1.404
 9959WAT     H230120   0.615   6.219   1.451
 9960WAT      O30121   0.970   0.094   9.223
 9960WAT     H130122   1.025   0.012   9.241
 9960WAT     H230123   0.904   0.107   9.297
 9961WAT      O30124   2.419   5.664   8.344
 9961WAT     H130125   2.470   5.601   8.403
 9961WAT     H230126   2.350   5.712   8.397
 9962WAT      O30127   2.784   0.207   0.912
 9962WAT     H130128   2.809   0.297   0.945
 9962WAT     H230129   2.699   0.177   0.956
 9963WAT      O30130   2.349   3.170   4.684
 9963WAT     H130131   2.276   3.114   4.722
 9963WAT     H230132   2.437   3.125   4.696
 9964WAT      O30133   5.784   5.747   7.059
 9964WAT     H130134   5.756   5.739   7.154
 9964WAT     H230135   5.722   5.693   7.001
 9965WAT      O30136   9.433   1.820   0.868
 9965WAT     H130137   9.377   1.902   0.856
 9965WAT     H230138   9.418   1.783   0.960
 9966WAT      O30139   0.190   5.426   8.623
 9966WAT     H130140   0.260   5.401   8.690
 9966WAT     H230141   0.104   5.382   8.647
 9967WAT      O30142   8.135   8.596   4.456
 9967WAT     H130143   8.066   8.527   4.433
 9967WAT     H230144   8.224   8.552   4.466
 9968WAT      O30145   8.535   8.140   8.704
 9968WAT     H130146   8.616   8.111   8.654
 9968WAT     H230147   8.478   8.197   8.645
 9969WAT      O30148   0.821   5.809   2.798
 9969WAT     H130149   0.833   5.716   2.834
 9969WAT     H230150   0.792   5.803   2.702
 9970WAT      O30151   7.790   3.426   3.799
 9970WAT     H130152   7.855   3.367   3.847
 9970WAT     H230153   7.797   3.410   3.701
 9971WAT      O30154   4.903   2.503   1.277
 9971WAT     H130155   4.974   2.432   1.281
 9971WAT     H230156   4.862   2.514   1.368
 9972WAT      O30157   4.919   8.230   2.214
 9972WAT     H130158   4.955   8.271   2.297
 9972WAT     H230159   4.860   8.297   2.167
 9973WAT      O30160   1.235   2.762   1.019
 9973WAT     H130161   1.324   2.790   0.984
 9973WAT     H230162   1.174   2.740   0.943
 9974WAT      O30163   7.066   6.707   3.076
 9974WAT     H130164   7.085   6.796   3.033
 9974WAT     H230165   7.099   6.634   3.016
 9975WAT      O30166   5.622   9.420   0.288
 9975WAT     H130167   5.721   9.406   0.289
 9975WAT     H230168   5.601   9.511   0.324
 9976WAT      O30169   1.298   7.597   5.747
 9976WAT     H130170   1.267   7.564   5.658
 9976WAT     H230171   1.388   7.640   5.738
 9977WAT      O30172   7.782   5.342   7.237
 9977WAT     H130173   7.777   5.415   7.305
 9977WAT     H230174   7.691   5.302   7.225
 9978WAT      O30175   7.125   9.168   9.386
 9978WAT     H130176   7.099   9.085   9.337
 9978WAT     H230177   7.060   9.241   9.365
 9979WAT      O30178   8.538   4.921   5.342
 9979WAT     H130179   8.569   4.828   5.359
 9979WAT     H230180   8.612   4.985   5.361
 9980WAT      O30181   0.669   1.486   8.098
 9980WAT     H130182   0.592   1.549   8.101
 9980WAT     H230183   0.650   1.413   8.033
 9981WAT      O30184   7.983   8.350   8.428
 9981WAT     H130185   8.064   8.296   8.404
 9981WAT     H230186   7.902   8.309   8.386
 9982WAT      O30187   3.164   8.124   0.361
 9982WAT     H130188   3.117   8.048   0.315
 9982WAT     H230189   3.218   8.089   0.437
 9983WAT      O30190   9.167   1.709   3.895
 9983WAT     H130191   9.169   1.652   3.977
 9983WAT     H230192   9.143   1.803   3.921
 9984WAT      O30193   5.731   8.251   6.432
 9984WAT     H130194   5.690   8.192   6.362
 9984WAT     H230195   5.793   8.196   6.489
 9985WAT      O30196   4.700   9.451   3.327
 9985WAT     H130197   4.774   9.401   3.373
 9985WAT     H230198   4.709   9.440   3.228
 9986WAT      O30199   0.456   2.118   2.732
 9986WAT     H130200   0.444   2.200   2.788
 9986WAT     H230201   0.512   2.140   2.652
 9987WAT      O30202   7.811   6.729   8.684
 9987WAT     H130203   7.736   6.666   8.666
 9987WAT     H230204   7.870   6.734   8.603
 9988WAT      O30205   6.059   4.903   4.737
 9988WAT     H130206   6.052   4.907   4.836
 9988WAT     H230207   6.149   4.867   4.712
 9989WAT      O30208   5.110   5.854   8.678
 9989WAT     H130209   5.080   5.762   8.653
 9989WAT     H230210   5.093   5.916   8.602
 9990WAT      O30211   4.241   4.258   0.631
 9990WAT     H130212   4.187   4.175   0.644
 9990WAT     H230213   4.237   4.314   0.713
 9991WAT      O30214   4.258   6.386   1.108
 9991WAT     H130215   4.185   6.379   1.041
 9991WAT     H230216   4.341   6.345   1.072
 9992WAT      O30217   4.949   0.529   1.245
 9992WAT     H130218   5.006   0.577   1.179
 9992WAT     H230219   4.968   0.563   1.337
 9993WAT      O30220   0.796   4.793   1.720
 9993WAT     H130221   0.848   4.809   1.804
 9993WAT     H230222   0.849   4.736   1.658
 9994WAT      O30223   9.053   2.799   5.139
 9994WAT     H130224   9.036   2.833   5.231
 9994WAT     H230225   8.966   2.788   5.091
 9995WAT      O30226   8.922   8.456   9.055
 9995WAT     H130227   8.885   8.523   8.990
 9995WAT     H230228   8.968   8.383   9.005
 9996WAT      O30229   9.482   0.170   9.531
 9996WAT     H130230   9.417   0.182   9.456
 9996WAT     H230231   9.451   0.223   9.610
 9997WAT      O30232   6.067   0.711   0.955
 9997WAT     H130233   6.058   0.617   0.921
 9997WAT     H230234   5.991   0.732   1.016
 9998WAT      O30235   7.698   0.255   3.923
 9998WAT     H130236   7.690   0.306   4.009
 9998WAT     H230237   7.761   0.178   3.935
 9999WAT      O30238   5.741   3.485   8.346
 9999WAT     H130239   5.816   3.550   8.356
 9999WAT     H230240   5.712   3.453   8.436
10000WAT      O30241   2.957   5.707   3.595
10000WAT     H130242   3.004   5.630   3.639
10000WAT     H230243   2.996   5.723   3.504
10001WAT      O30244   9.148   5.581   2.560
10001WAT     H130245   9.095   5.556   2.641
10001WAT     H230246   9.101   5.656   2.511
10002WAT      O30247   5.743   4.388   0.543
10002WAT     H130248   5.657   4.418   0.503
10002WAT     H230249   5.757   4.291   0.523
10003WAT      O30250   5.848   2.350   7.032
10003WAT     H130251   5.749   2.358   7.039
10003WAT     H230252   5.891   2.432   7.070
10004WAT      O30253   3.387   5.907   7.896
10004WAT     H130254   3.483   5.929   7.910
10004WAT     H230255   3.369   5.815   7.930
10005WAT      O30256   1.230   0.991   2.502
10005WAT     H130257   1.301   0.928   2.531
10005WAT     H230258   1.141   0.945   2.504
10006WAT      O30259   6.158   6.427   9.831
10006WAT     H130260   6.137   6.348   9.889
10006WAT     H230261   6.079   6.487   9.825
10007WAT      O30262   8.583   2.071   1.893
10007WAT     H130263   8.629   1.998   1.943
10007WAT     H230264   8.537   2.033   1.813
10008WAT      O30265   8.321   2.368   7.424
10008WAT     H130266   8.277   2.450   7.386
10008WAT     H230267   8.272   2.340   7.507
10009WAT      O30268   9.016   8.239   6.294
10009WAT     H130269   8.975   8.329   6.303
10009WAT     H230270   9.110   8.241   6.329
10010WAT      O30271   8.555   0.320   5.411
10010WAT     H130272   8.496   0.316   5.331
10010WAT     H230273   8.505   0.289   5.491
10011WAT      O30274   5.538   5.877   7.614
10011WAT     H130275   5.581   5.787   7.619
10011WAT     H230276   5.567   5.932   7.692
10012WAT      O30277   3.761   1.956   1.080
10012WAT     H130278   3.743   2.048   1.116
10012WAT     H230279   3.847   1.958   1.028
10013WAT      O30280   2.405   3.147   2.967
10013WAT     H130281   2.393   3.049   2.979
10013WAT     H230282   2.431   3.167   2.873
10014WAT      O30283   0.653   1.127   4.710
10014WAT     H130284   0.725   1.058   4.698
10014WAT     H230285   0.685   1.215   4.677
10015WAT      O30286   5.678   1.019   7.175
10015WAT     H130287   5.745   1.093   7.182
10015WAT     H230288   5.709   0.953   7.106
10016WAT      O30289   4.694   7.099   1.161
10016WAT     H130290   4.646   7.037   1.099
10016WAT     H230291   4.628   7.152   1.214
10017WAT      O30292   6.429   6.949   8.215
10017WAT     H130293   6.475   6.965   8.128
10017WAT     H230294   6.363   7.023   8.231
10018WAT      O30295   2.405   0.297   3.146
10018WAT     H130296   2.416   0.226   3.076
10018WAT     H230297   2.348   0.370   3.110
10019WAT      O30298   2.156   4.933   6.176
10019WAT     H130299   2.235   4.991   6.159
10019WAT     H230300   2.184   4.855   6.232
10020WAT      O30301   5.956   3.272   3.485
10020WAT     H130302   5.857   3.279   3.478
10020WAT     H230303   5.999   3.345   3.432
10021WAT      O30304   5.075   2.208   0.391
10021WAT     H130305   5.071   2.262   0.476
10021WAT     H230306   5.065   2.269   0.313
10022WAT      O30307   2.922   1.666   6.725
10022WAT     H130308   2.864   1.598   6.770
10022WAT     H230309   2.877   1.699   6.643
10023WAT      O30310   5.086   6.916   1.443
10023WAT     H130311   5.021   6.951   1.376
10023WAT     H230312   5.179   6.940   1.415
10024WAT      O30313   2.197   1.203   0.881
10024WAT     H130314   2.106   1.239   0.900
10024WAT     H230315   2.252   1.273   0.835
10025WAT      O30316   1.964   5.782   3.548
10025WAT     H130317   1.984   5.875   3.517
10025WAT     H230318   2.028   5.756   3.620
10026WAT      O30319   8.628   5.407   0.756
10026WAT     H130320   8.557   5.441   0.694
10026WAT     H230321   8.701   5.476   0.765
10027WAT      O30322   0.294   1.118   9.844
10027WAT     H130323   0.259   1.025   9.857
10027WAT     H230324   0.379   1.114   9.791
10028WAT      O30325   8.629   8.063   9.629
10028WAT     H130326   8.583   8.058   9.718
10028WAT     H230327   8.626   8.157   9.595
10029WAT      O30328   7.382   9.193   1.200
10029WAT     H130329   7.312   9.172   1.268
10029WAT     H230330   7.398   9.292   1.200
10030WAT      O30331   7.201   7.333   9.866
10030WAT     H130332   7.240   7.244   9.843
10030WAT     H230333   7.176   7.335   9.963
10031WAT      O30334   5.848   2.629   7.598
10031WAT     H130335   5.795   2.644   7.682
10031WAT     H230336   5.863   2.530   7.586
10032WAT      O30337   6.052   1.170   0.092
10032WAT     H130338   6.027   1.103   0.162
10032WAT     H230339   6.145   1.202   0.108
10033WAT      O30340   2.078   8.519   6.728
10033WAT     H130341   2.017   8.473   6.792
10033WAT     H230342   2.025   8.548   6.647
10034WAT      O30343   8.671   2.305   4.440
10034WAT     H130344   8.613   2.268   4.512
10034WAT     H230345   8.689   2.233   4.372
10035WAT      O30346   5.518   2.294   6.173
10035WAT     H130347   5.507   2.202   6.136
10035WAT     H230348   5.578   2.347   6.112
10036WAT      O30349   1.310   5.147   1.101
10036WAT     H130350   1.268   5.174   1.013
10036WAT     H230351   1.271   5.060   1.130
10037WAT      O30352   8.178   3.853   5.004
10037WAT     H130353   8.182   3.937   4.950
10037WAT     H230354   8.207   3.776   4.947
10038WAT      O30355   7.215   6.562   8.071
10038WAT     H130356   7.301   6.534   8.029
10038WAT     H230357   7.186   6.650   8.033
10039WAT      O30358   0.118   6.547   5.424
10039WAT     H130359   0.029   6.507   5.406
10039WAT     H230360   0.134   6.550   5.523
10040WAT      O30361   8.284   3.202   5.103
10040WAT     H130362   8.276   3.191   5.004
10040WAT     H230363   8.364   3.150   5.136
10041WAT      O30364   7.932   5.293   8.498
10041WAT     H130365   7.964   5.289   8.592
10041WAT     H230366   8.000   5.251   8.438
10042WAT      O30367   4.851   0.364   8.380
10042WAT     H130368   4.927   0.329   8.325
10042WAT     H230369   4.851   0.317   8.469
10043WAT      O30370   1.137   4.083   2.789
10043WAT     H130371   1.068   4.145   2.753
10043WAT     H230372   1.228   4.115   2.763
10044WAT      O30373   0.817   6.663   2.421
10044WAT     H130374   0.821   6.762   2.435
10044WAT     H230375   0.780   6.620   2.503
10045WAT      O30376   7.051   0.084   2.557
10045WAT     H130377   6.998   0.065   2.475
10045WAT     H230378   7.116   0.158   2.539
10046WAT      O30379   2.931   5.095   3.299
10046WAT     H130380   2.930   5.081   3.398
10046WAT     H230381   2.856   5.155   3.272
10047WAT      O30382   6.748   7.467   6.061
10047WAT     H130383   6.662   7.515   6.078
10047WAT     H230384   6.822   7.512   6.112
10048WAT      O30385   8.158   1.209   1.932
10048WAT     H130386   8.249   1.231   1.968
10048WAT     H230387   8.105   1.163   2.003
10049WAT      O30388   0.008   6.262   1.698
10049WAT     H130389  -0.077   6.259   1.749
10049WAT     H230390  -0.009   6.236   1.603
10050WAT      O30391   7.854   0.714   4.552
10050WAT     H130392   7.940   0.667   4.571
10050WAT     H230393   7.806   0.733   4.638
10051WAT      O30394   1.583   4.108   3.611
10051WAT     H130395   1.676   4.144   3.600
10051WAT     H230396   1.567   4.087   3.708
10052WAT      O30397   3.655   7.455   2.333
10052WAT     H130398   3.609   7.367   2.320
10052WAT     H230399   3.731   7.462   2.268
10053WAT      O30400   9.067   5.068   1.574
10053WAT     H130401   8.982   5.054   1.523
10053WAT     H230402   9.127   5.128   1.523
10054WAT      O30403   1.499   4.768   1.483
10054WAT     H130404   1.496   4.669   1.492
10054WAT     H230405   1.539   4.793   1.395
10055WAT      O30406   0.669   0.134   1.109
10055WAT     H130407   0.766   0.157   1.117
10055WAT     H230408   0.641   0.142   1.013
10056WAT      O30409   5.485   5.018   3.834
10056WAT     H130410   5.519   4.953   3.766
10056WAT     H230411   5.388   5.034   3.819
10057WAT      O30412   5.894   7.133   5.566
10057WAT     H130413   5.800   7.162   5.581
10057WAT     H230414   5.910   7.119   5.468
10058WAT      O30415   7.156   6.882   8.370
10058WAT     H130416   7.065   6.859   8.334
10058WAT     H230417   7.173   6.829   8.453
10059WAT      O30418   1.282   7.533   0.148
10059WAT     H130419   1.322   7.526   0.239
10059WAT     H230420   1.184   7.513   0.153
10060WAT      O30421   6.664   2.149   6.466
10060WAT     H130422   6.635   2.132   6.560
10060WAT     H230423   6.644   2.069   6.410
10061WAT      O30424   6.605   5.633   6.497
10061WAT     H130425   6.676   5.601   6.435
10061WAT     H230426   6.567   5.719   6.462
10062WAT      O30427   6.003   1.371   6.995
10062WAT     H130428   6.101   1.378   6.980
10062WAT     H230429   5.964   1.301   6.936
10063WAT      O30430   9.849   7.339   9.484
10063WAT     H130431   9.776   7.407   9.489
10063WAT     H230432   9.874   7.310   9.576
10064WAT      O30433   2.351   5.466   3.076
10064WAT     H130434   2.421   5.531   3.046
10064WAT     H230435   2.304   5.502   3.157
10065WAT      O30436   3.961   1.036   5.450
10065WAT     H130437   3.912   1.075   5.372
10065WAT     H230438   3.911   0.957   5.485
10066WAT      O30439   6.851   2.952   1.962
10066WAT     H130440   6.803   2.868   1.935
10066WAT     H230441   6.920   2.930   2.030
10067WAT      O30442   0.115   9.569   1.729
10067WAT     H130443   0.073   9.564   1.820
10067WAT     H230444   0.201   9.619   1.735
10068WAT      O30445   3.359   7.333   5.552
10068WAT     H130446   3.348   7.386   5.636
10068WAT     H230447   3.445   7.281   5.557
10069WAT      O30448   3.417   7.409   4.910
10069WAT     H130449   3.426   7.497   4.865
10069WAT     H230450   3.324   7.374   4.898
10070WAT      O30451   4.696   3.056   4.622
10070WAT     H130452   4.784   3.040   4.667
10070WAT     H230453   4.672   3.153   4.630
10071WAT      O30454   6.097   4.774   2.008
10071WAT     H130455   6.153   4.728   2.076
10071WAT     H230456   6.155   4.834   1.952
10072WAT      O30457   7.935   3.181   1.161
10072WAT     H130458   7.981   3.185   1.072
10072WAT     H230459   7.989   3.127   1.224
10073WAT      O30460   6.939   1.342   5.663
10073WAT     H130461   6.943   1.398   5.580
10073WAT     H230462   6.901   1.395   5.738
10074WAT      O30463   2.449   6.368   6.374
10074WAT     H130464   2.404   6.310   6.442
10074WAT     H230465   2.478   6.312   6.296
10075WAT      O30466   5.066   3.951   0.373
10075WAT     H130467   5.152   3.991   0.406
10075WAT     H230468   4.996   4.022   0.371
10076WAT      O30469   7.487   3.428   6.600
10076WAT     H130470   7.422   3.355   6.625
10076WAT     H230471   7.543   3.451   6.679
10077WAT      O30472   7.295   2.159   9.670
10077WAT     H130473   7.311   2.088   9.739
10077WAT     H230474   7.232   2.228   9.707
10078WAT      O30475   5.036   0.125   3.354
10078WAT     H130476   5.127   0.083   3.353
10078WAT     H230477   5.029   0.188   3.431
10079WAT      O30478   3.200   4.563   1.087
10079WAT     H130479   3.212   4.498   1.012
10079WAT     H230480   3.140   4.523   1.156
10080WAT      O30481   8.617   7.963   2.311
10080WAT     H130482   8.519   7.979   2.311
10080WAT     H230483   8.664   8.045   2.279
10081WAT      O30484   4.719   8.865   1.361
10081WAT     H130485   4.795   8.901   1.416
10081WAT     H230486   4.634   8.874   1.413
10082WAT      O30487   1.395   3.631   7.577
10082WAT     H130488   1.454   3.696   7.625
10082WAT     H230489   1.430   3.616   7.484
10083WAT      O30490   6.810   0.935   4.818
10083WAT     H130491   6.864   0.868   4.869
10083WAT     H230492   6.803   1.020   4.870
10084WAT      O30493   9.621   9.559   7.474
10084WAT     H130494   9.646   9.621   7.548
10084WAT     H230495   9.547   9.600   7.420
10085WAT      O30496   0.467   0.284   1.841
10085WAT     H130497   0.411   0.207   1.874
10085WAT     H230498   0.540   0.301   1.907
10086WAT      O30499   8.119   5.917   9.664
10086WAT     H130500   8.087   5.964   9.746
10086WAT     H230501   8.102   5.975   9.584
10087WAT      O30502   2.659   4.905   3.633
10087WAT     H130503   2.576   4.851   3.644
10087WAT     H230504   2.667   4.969   3.709
10088WAT      O30505   8.653   3.017   6.544
10088WAT     H130506   8.642   2.972   6.633
10088WAT     H230507   8.748   3.049   6.534
10089WAT      O30508   4.927   7.080   2.593
10089WAT     H130509   4.938   7.036   2.504
10089WAT     H230510   5.004   7.055   2.652
10090WAT      O30511   2.310   2.473   4.466
10090WAT     H130512   2.230   2.438   4.418
10090WAT     H230513   2.392   2.457   4.410
10091WAT      O30514   4.786   1.633   2.230
10091WAT     H130515   4.857   1.683   2.279
10091WAT     H230516   4.721   1.595   2.294
10092WAT      O30517   9.375   7.175   1.461
10092WAT     H130518   9.342   7.254   1.409
10092WAT     H230519   9.413   7.108   1.398
10093WAT      O30520   7.984   8.531   0.218
10093WAT     H130521   8.065   8.589   0.216
10093WAT     H230522   7.910   8.579   0.265
10094WAT      O30523   8.459   4.140   1.057
10094WAT     H130524   8.433   4.186   0.973
10094WAT     H230525   8.557   4.147   1.071
10095WAT      O30526   3.634   8.025   0.032
10095WAT     H130527   3.565   7.965  -0.008
10095WAT     H230528   3.615   8.120   0.007
10096WAT      O30529   4.434   9.420   9.797
10096WAT     H130530   4.413   9.466   9.884
10096WAT     H230531   4.515   9.363   9.808
10097WAT      O30532   9.648   6.765   8.617
10097WAT     H130533   9.686   6.685   8.663
10097WAT     H230534   9.721   6.828   8.593
10098WAT      O30535   7.892   0.961   7.017
10098WAT     H130536   7.989   0.962   7.044
10098WAT     H230537   7.886   0.960   6.917
10099WAT      O30538   5.685   5.253   6.299
10099WAT     H130539   5.740   5.324   6.342
10099WAT     H230540   5.665   5.279   6.205
10100WAT      O30541   1.824   5.976   8.667
10100WAT     H130542   1.890   5.914   8.710
10100WAT     H230543   1.738   5.974   8.717
10101WAT      O30544   7.932   4.184   6.644
10101WAT     H130545   7.919   4.234   6.559
10101WAT     H230546   8.029   4.162   6.656
10102WAT      O30547   1.799   4.627   3.388
10102WAT     H130548   1.840   4.550   3.339
10102WAT     H230549   1.729   4.669   3.331
10103WAT      O30550   0.374   9.654   1.674
10103WAT     H130551   0.398   9.586   1.605
10103WAT     H230552   0.442   9.727   1.673
10104WAT      O30553   5.594   9.203   4.687
10104WAT     H130554   5.547   9.120   4.719
10104WAT     H230555   5.536   9.252   4.622
10105WAT      O30556   2.126   1.313   2.453
10105WAT     H130557   2.149   1.215   2.450
10105WAT     H230558   2.042   1.326   2.505
10106WAT      O30559   2.874   7.866   7.670
10106WAT     H130560   2.872   7.767   7.663
10106WAT     H230561   2.849   7.894   7.763
10107WAT      O30562   4.698   2.467   5.092
10107WAT     H130563   4.650   2.554   5.077
10107WAT     H230564   4.743   2.438   5.007
10108WAT      O30565   9.605   7.656   8.079
10108WAT     H130566   9.633   7.561   8.095
10108WAT     H230567   9.527   7.678   8.138
10109WAT      O30568   3.100   2.698   9.806
10109WAT     H130569   3.052   2.727   9.723
10109WAT     H230570   3.038   2.708   9.884
10110WAT      O30571   6.595   1.348   8.991
10110WAT     H130572   6.652   1.285   9.044
10110WAT     H230573   6.564   1.302   8.908
10111WAT      O30574   3.737   3.262   5.853
10111WAT     H130575   3.719   3.335   5.919
10111WAT     H230576   3.764   3.302   5.766
10112WAT      O30577   6.111   6.000   2.162
10112WAT     H130578   6.081   5.986   2.257
10112WAT     H230579   6.211   6.003   2.159
10113WAT      O30580   3.600   0.400   3.143
10113WAT     H130581   3.567   0.342   3.068
10113WAT     H230582   3.608   0.495   3.112
10114WAT      O30583   1.548   0.103   0.352
10114WAT     H130584   1.623   0.072   0.294
10114WAT     H230585   1.461   0.071   0.314
10115WAT      O30586   3.939   7.285   3.485
10115WAT     H130587   4.006   7.346   3.526
10115WAT     H230588   3.849   7.298   3.527
10116WAT      O30589   8.210   0.027   5.928
10116WAT     H130590   8.128  -0.026   5.948
10116WAT     H230591   8.216   0.105   5.991
10117WAT      O30592   8.461   4.330   0.170
10117WAT     H130593   8.379   4.337   0.228
10117WAT     H230594   8.540   4.311   0.228
10118WAT      O30595   3.824   7.088   9.841
10118WAT     H130596   3.856   7.173   9.799
10118WAT     H230597   3.823   7.099   9.941
10119WAT      O30598   5.687   4.993   8.369
10119WAT     H130599   5.632   4.960   8.292
10119WAT     H230600   5.631   5.055   8.425
10120WAT      O30601   6.030   6.853   4.623
10120WAT     H130602   6.105   6.848   4.557
10120WAT     H230603   5.969   6.928   4.598
10121WAT      O30604   7.094   1.815   5.031
10121WAT     H130605   7.083   1.879   5.108
10121WAT     H230606   7.166   1.749   5.053
10122WAT      O30607   6.370   8.434   6.293
10122WAT     H130608   6.370   8.509   6.227
10122WAT     H230609   6.294   8.372   6.274
10123WAT      O30610   8.421   5.241   9.377
10123WAT     H130611   8.472   5.183   9.439
10123WAT     H230612   8.441   5.214   9.282
10124WAT      O30613   3.826   6.670   0.459
10124WAT     H130614   3.739   6.689   0.414
10124WAT     H230615   3.845   6.742   0.527
10125WAT      O30616   1.273   4.398   2.553
10125WAT     H130617   1.176   4.424   2.550
10125WAT     H230618   1.282   4.311   2.601
10126WAT      O30619   6.797   7.794   3.486
10126WAT     H130620   6.698   7.804   3.487
10126WAT     H230621   6.838   7.858   3.550
10127WAT      O30622   5.411   9.002   3.401
10127WAT     H130623   5.494   8.984   3.452
10127WAT     H230624   5.333   9.009   3.463
10128WAT      O30625   8.925   0.867   5.892
10128WAT     H130626   8.966   0.953   5.862
10128WAT     H230627   8.956   0.793   5.833
10129WAT      O30628   6.414   0.425   6.684
10129WAT     H130629   6.332   0.387   6.642
10129WAT     H230630   6.464   0.352   6.731
10130WAT      O30631   6.395   2.238   3.708
10130WAT     H130632   6.400   2.337   3.694
10130WAT     H230633   6.462   2.192   3.651
10131WAT      O30634   2.859   0.179   8.699
10131WAT     H130635   2.840   0.222   8.788
10131WAT     H230636   2.777   0.183   8.642
10132WAT      O30637   2.443   8.385   1.163
10132WAT     H130638   2.461   8.418   1.256
10132WAT     H230639   2.478   8.451   1.097
10133WAT      O30640   8.214   8.695   0.265
10133WAT     H130641   8.245   8.747   0.344
10133WAT     H230642   8.259   8.606   0.263
10134WAT      O30643   0.227   5.975   3.085
10134WAT     H130644   0.276   6.043   3.140
10134WAT     H230645   0.261   5.884   3.107
10135WAT      O30646   5.207   7.939   1.585
10135WAT     H130647   5.215   8.003   1.662
10135WAT     H230648   5.175   7.988   1.504
10136WAT      O30649   2.562   4.158   5.477
10136WAT     H130650   2.647   4.210   5.471
10136WAT     H230651   2.485   4.216   5.451
10137WAT      O30652   5.070   3.868   4.587
10137WAT     H130653   5.006   3.803   4.628
10137WAT     H230654   5.021   3.925   4.522
10138WAT      O30655   5.570   9.839   8.268
10138WAT     H130656   5.545   9.826   8.364
10138WAT     H230657   5.668   9.855   8.261
10139WAT      O30658   4.291   4.920   7.794
10139WAT     H130659   4.287   4.871   7.881
10139WAT     H230660   4.362   4.991   7.799
10140WAT      O30661   1.404   7.903   3.881
10140WAT     H130662   1.380   7.915   3.977
10140WAT     H230663   1.469   7.828   3.873
10141WAT      O30664   6.656   1.321   1.533
10141WAT     H130665   6.685   1.235   1.574
10141WAT     H230666   6.716   1.344   1.456
10142WAT      O30667   2.981   2.288   1.690
10142WAT     H130668   2.904   2.235   1.655
10142WAT     H230669   3.067   2.248   1.658
10143WAT      O30670   1.964   6.487   3.528
10143WAT     H130671   1.902   6.450   3.598
10143WAT     H230672   1.993   6.414   3.467
10144WAT      O30673   5.711   3.447   8.612
10144WAT     H130674   5.789   3.404   8.658
10144WAT     H230675   5.709   3.545   8.633
10145WAT      O30676   0.072   0.925   5.473
10145WAT     H130677   0.131   0.858   5.518
10145WAT     H230678  -0.023   0.894   5.476
10146WAT      O30679   0.686   7.779   1.657
10146WAT     H130680   0.622   7.742   1.724
10146WAT     H230681   0.696   7.877   1.672
10147WAT      O30682   8.585   0.221   7.462
10147WAT     H130683   8.632   0.141   7.500
10147WAT     H230684   8.503   0.191   7.414
10148WAT      O30685   1.796   2.998   6.272
10148WAT     H130686   1.716   3.019   6.216
10148WAT     H230687   1.797   3.056   6.353
10149WAT      O30688   3.989   4.388   5.388
10149WAT     H130689   4.001   4.480   5.350
10149WAT     H230690   4.043   4.378   5.471
10150WAT      O30691   9.465   1.252   2.759
10150WAT     H130692   9.550   1.202   2.737
10150WAT     H230693   9.459   1.334   2.702
10151WAT      O30694   2.420   1.290   1.840
10151WAT     H130695   2.323   1.280   1.865
10151WAT     H230696   2.427   1.346   1.757
10152WAT      O30697   6.057   1.075   0.475
10152WAT     H130698   6.078   1.013   0.399
10152WAT     H230699   5.998   1.028   0.541
10153WAT      O30700   0.985   8.484   1.893
10153WAT     H130701   1.011   8.576   1.924
10153WAT     H230702   1.066   8.426   1.891
10154WAT      O30703   2.480   9.025   3.020
10154WAT     H130704   2.441   8.972   3.095
10154WAT     H230705   2.451   9.120   3.027
10155WAT      O30706   0.166   2.570   6.929
10155WAT     H130707   0.101   2.641   6.955
10155WAT     H230708   0.195   2.585   6.834
10156WAT      O30709   8.156   6.698   6.256
10156WAT     H130710   8.225   6.639   6.299
10156WAT     H230711   8.135   6.663   6.165
10157WAT      O30712   5.268   7.393   5.344
10157WAT     H130713   5.284   7.474   5.401
10157WAT     H230714   5.329   7.395   5.265
10158WAT      O30715   1.136   4.337   7.001
10158WAT     H130716   1.112   4.430   7.030
10158WAT     H230717   1.075   4.309   6.926
10159WAT      O30718   6.019   1.775   0.236
10159WAT     H130719   6.111   1.753   0.205
10159WAT     H230720   5.966   1.812   0.160
10160WAT      O30721   5.034   9.092   4.232
10160WAT     H130722   5.065   9.074   4.325
10160WAT     H230723   4.935   9.077   4.226
10161WAT      O30724   0.716   8.784   1.326
10161WAT     H130725   0.729   8.850   1.252
10161WAT     H230726   0.693   8.833   1.410
10162WAT      O30727   6.070   3.772   3.916
10162WAT     H130728   6.064   3.775   3.816
10162WAT     H230729   6.034   3.684   3.949
10163WAT      O30730   6.707   1.260   5.425
10163WAT     H130731   6.772   1.336   5.426
10163WAT     H230732   6.755   1.174   5.444
10164WAT      O30733   1.342   0.962   5.489
10164WAT     H130734   1.378   0.909   5.567
10164WAT     H230735   1.313   1.052   5.521
10165WAT      O30736   8.124   9.000   0.323
10165WAT     H130737   8.172   8.951   0.397
10165WAT     H230738   8.189   9.056   0.272
10166WAT      O30739   8.253   8.357   1.560
10166WAT     H130740   8.185   8.340   1.633
10166WAT     H230741   8.235   8.446   1.518
10167WAT      O30742   2.505   8.041   4.898
10167WAT     H130743   2.602   8.030   4.921
10167WAT     H230744   2.461   7.951   4.901
10168WAT      O30745   1.885   4.815   8.520
10168WAT     H130746   1.890   4.758   8.602
10168WAT     H230747   1.840   4.764   8.447
10169WAT      O30748   3.254   7.869   0.539
10169WAT     H130749   3.335   7.811   0.538
10169WAT     H230750   3.221   7.879   0.633
10170WAT      O30751   4.103   4.811   4.154
10170WAT     H130752   4.151   4.886   4.200
10170WAT     H230753   4.005   4.831   4.152
10171WAT      O30754   3.768   0.570   7.946
10171WAT     H130755   3.695   0.629   7.910
10171WAT     H230756   3.854   0.592   7.900
10172WAT      O30757   2.732   3.841   4.875
10172WAT     H130758   2.823   3.864   4.910
10172WAT     H230759   2.740   3.810   4.780
10173WAT      O30760   5.520   3.663   1.342
10173WAT     H130761   5.484   3.667   1.436
10173WAT     H230762   5.593   3.730   1.332
10174WAT      O30763   3.077   9.573   7.531
10174WAT     H130764   3.054   9.655   7.478
10174WAT     H230765   3.162   9.533   7.495
10175WAT      O30766   4.030   7.541   8.676
10175WAT     H130767   4.122   7.501   8.672
10175WAT     H230768   3.994   7.553   8.584
10176WAT      O30769   8.512   0.195   6.966
10176WAT     H130770   8.541   0.112   7.013
10176WAT     H230771   8.527   0.185   6.868
10177WAT      O30772   7.208   7.936   1.735
10177WAT     H130773   7.244   7.903   1.822
10177WAT     H230774   7.284   7.954   1.672
10178WAT      O30775   6.897   1.391   5.107
10178WAT     H130776   6.879   1.293   5.112
10178WAT     H230777   6.819   1.437   5.065
10179WAT      O30778   7.387   0.463   5.985
10179WAT     H130779   7.449   0.384   5.985
10179WAT     H230780   7.293   0.431   5.972
10180WAT      O30781   4.976   1.424   1.555
10180WAT     H130782   5.016   1.349   1.607
10180WAT     H230783   5.006   1.511   1.593
10181WAT      O30784   7.536   4.234   7.300
10181WAT     H130785   7.589   4.265   7.380
10181WAT     H230786   7.571   4.146   7.269
10182WAT      O30787   7.985   6.970   7.078
10182WAT     H130788   7.943   6.979   6.988
10182WAT     H230789   8.028   7.057   7.104
10183WAT      O30790   6.904   9.180   8.396
10183WAT     H130791   6.925   9.261   8.451
10183WAT     H230792   6.985   9.122   8.392
10184WAT      O30793   5.188   2.886   9.595
10184WAT     H130794   5.223   2.807   9.545
10184WAT     H230795   5.248   2.908   9.671
10185WAT      O30796   7.667   6.572   1.637
10185WAT     H130797   7.735   6.630   1.592
10185WAT     H230798   7.575   6.601   1.608
10186WAT      O30799   7.577   4.803   9.471
10186WAT     H130800   7.650   4.789   9.539
10186WAT     H230801   7.522   4.882   9.497
10187WAT      O30802   9.226   0.326   7.934
10187WAT     H130803   9.251   0.404   7.991
10187WAT     H230804   9.139   0.345   7.888
10188WAT      O30805   0.808   4.425   0.948
10188WAT     H130806   0.834   4.342   0.997
10188WAT     H230807   0.766   4.401   0.861
10189WAT      O30808   5.477   7.548   0.734
10189WAT     H130809   5.444   7.636   0.701
10189WAT     H230810   5.446   7.475   0.672
10190WAT      O30811   3.766   3.599   9.120
10190WAT     H130812   3.687   3.571   9.066
10190WAT     H230813   3.844   3.613   9.060
10191WAT      O30814   5.658   0.778   2.728
10191WAT     H130815   5.672   0.814   2.821
10191WAT     H230816   5.625   0.852   2.669
10192WAT      O30817   5.008   1.427   8.335
10192WAT     H130818   5.011   1.418   8.235
10192WAT     H230819   5.040   1.342   8.377
10193WAT      O30820   0.708   6.719   9.430
10193WAT     H130821   0.682   6.814   9.450
10193WAT     H230822   0.729   6.710   9.333
10194WAT      O30823   6.043   0.793   4.662
10194WAT     H130824   6.137   0.825   4.659
10194WAT     H230825   6.030   0.734   4.741
10195WAT      O30826   1.390   8.152   4.486
10195WAT     H130827   1.448   8.189   4.559
10195WAT     H230828   1.294   8.173   4.506
10196WAT      O30829   0.109   1.445   9.694
10196WAT     H130830   0.091   1.347   9.695
10196WAT     H230831   0.157   1.471   9.778
10197WAT      O30832   6.165   9.682   4.404
10197WAT     H130833   6.148   9.776   4.436
10197WAT     H230834   6.181   9.684   4.306
10198WAT      O30835   7.183   5.558   2.432
10198WAT     H130836   7.243   5.575   2.510
10198WAT     H230837   7.232   5.504   2.363
10199WAT      O30838   1.423   9.626   0.283
10199WAT     H130839   1.398   9.538   0.245
10199WAT     H230840   1.374   9.699   0.235
10200WAT      O30841   3.969   2.982   8.822
10200WAT     H130842   3.984   2.970   8.920
10200WAT     H230843   4.013   2.908   8.772
10201WAT      O30844   1.674   4.295   6.801
10201WAT     H130845   1.614   4.339   6.868
10201WAT     H230846   1.745   4.359   6.772
10202WAT      O30847   4.115   5.812   7.618
10202WAT     H130848   4.157   5.766   7.696
10202WAT     H230849   4.140   5.765   7.533
10203WAT      O30850   8.293   1.599   9.356
10203WAT     H130851   8.212   1.541   9.352
10203WAT     H230852   8.332   1.608   9.264
10204WAT      O30853   5.372   0.329   0.469
10204WAT     H130854   5.375   0.394   0.544
10204WAT     H230855   5.374   0.236   0.505
10205WAT      O30856   0.738   7.741   0.850
10205WAT     H130857   0.639   7.736   0.863
10205WAT     H230858   0.784   7.706   0.932
10206WAT      O30859   8.293   3.481   5.134
10206WAT     H130860   8.284   3.382   5.130
10206WAT     H230861   8.207   3.522   5.165
10207WAT      O30862   8.634   8.457   2.193
10207WAT     H130863   8.709   8.443   2.257
10207WAT     H230864   8.576   8.376   2.190
10208WAT      O30865   4.810   7.120   2.134
10208WAT     H130866   4.767   7.094   2.221
10208WAT     H230867   4.909   7.105   2.141
10209WAT      O30868   2.653   3.035   2.844
10209WAT     H130869   2.612   3.106   2.786
10209WAT     H230870   2.581   2.984   2.890
10210WAT      O30871   7.587   6.319   0.641
10210WAT     H130872   7.535   6.404   0.629
10210WAT     H230873   7.658   6.313   0.572
10211WAT      O30874   3.841   0.338   6.834
10211WAT     H130875   3.938   0.319   6.848
10211WAT     H230876   3.819   0.329   6.737
10212WAT      O30877   2.042   7.320   8.146
10212WAT     H130878   2.097   7.354   8.222
10212WAT     H230879   2.082   7.234   8.111
10213WAT      O30880   9.513   9.664   7.011
10213WAT     H130881   9.530   9.681   6.914
10213WAT     H230882   9.536   9.569   7.033
10214WAT      O30883   0.653   7.029   0.816
10214WAT     H130884   0.699   7.073   0.739
10214WAT     H230885   0.555   7.020   0.795
10215WAT      O30886   6.453   7.986   5.119
10215WAT     H130887   6.543   8.030   5.121
10215WAT     H230888   6.462   7.892   5.087
10216WAT      O30889   7.480   8.237   5.856
10216WAT     H130890   7.556   8.201   5.801
10216WAT     H230891   7.413   8.165   5.871
10217WAT      O30892   2.945   8.088   0.136
10217WAT     H130893   2.987   7.998   0.150
10217WAT     H230894   2.864   8.078   0.079
10218WAT      O30895   5.674   6.959   1.404
10218WAT     H130896   5.730   6.984   1.483
10218WAT     H230897   5.711   6.876   1.362
10219WAT      O30898   0.456   9.035   1.387
10219WAT     H130899   0.456   9.134   1.374
10219WAT     H230900   0.541   9.007   1.432
10220WAT      O30901   2.812   0.473   4.444
10220WAT     H130902   2.880   0.423   4.498
10220WAT     H230903   2.726   0.422   4.444
10221WAT      O30904   2.240   1.750   2.442
10221WAT     H130905   2.278   1.683   2.379
10221WAT     H230906   2.151   1.781   2.407
10222WAT      O30907   4.473   2.179   5.992
10222WAT     H130908   4.377   2.200   5.969
10222WAT     H230909   4.480   2.157   6.089
10223WAT      O30910   6.672   6.519   5.797
10223WAT     H130911   6.718   6.533   5.885
10223WAT     H230912   6.727   6.560   5.724
10224WAT      O30913   3.421   4.060   4.280
10224WAT     H130914   3.453   4.151   4.303
10224WAT     H230915   3.322   4.055   4.293
10225WAT      O30916   2.061   8.126   4.545
10225WAT     H130917   2.079   8.142   4.642
10225WAT     H230918   2.139   8.159   4.491
10226WAT      O30919   4.164   1.595   3.791
10226WAT     H130920   4.081   1.559   3.748
10226WAT     H230921   4.140   1.645   3.874
10227WAT      O30922   6.783   2.211   3.682
10227WAT     H130923   6.833   2.239   3.600
10227WAT     H230924   6.698   2.166   3.656
10228WAT      O30925   2.059   0.452   6.700
10228WAT     H130926   1.970   0.429   6.661
10228WAT     H230927   2.085   0.383   6.767
10229WAT      O30928   7.732   2.605   2.175
10229WAT     H130929   7.639   2.569   2.175
10229WAT     H230930   7.791   2.544   2.121
10230WAT      O30931   2.255   8.472   0.796
10230WAT     H130932   2.191   8.533   0.843
10230WAT     H230933   2.318   8.527   0.740
10231WAT      O30934   2.798   1.003   9.744
10231WAT     H130935   2.897   0.992   9.757
10231WAT     H230936   2.751   0.921   9.777
10232WAT      O30937   7.122   5.286   5.855
10232WAT     H130938   7.210   5.240   5.856
10232WAT     H230939   7.050   5.219   5.835
10233WAT      O30940   6.149   5.180   1.435
10233WAT     H130941   6.226   5.136   1.388
10233WAT     H230942   6.163   5.175   1.534
10234WAT      O30943   9.054   3.017   5.618
10234WAT     H130944   9.042   2.963   5.701
10234WAT     H230945   9.014   3.107   5.630
10235WAT      O30946   4.645   2.773   7.151
10235WAT     H130947   4.679   2.680   7.133
10235WAT     H230948   4.547   2.770   7.166
10236WAT      O30949   8.320   4.252   5.095
10236WAT     H130950   8.402   4.306   5.074
10236WAT     H230951   8.247   4.313   5.124
10237WAT      O30952   8.068   3.997   6.916
10237WAT     H130953   8.087   3.914   6.969
10237WAT     H230954   8.005   3.974   6.842
10238WAT      O30955   2.705   9.273   1.760
10238WAT     H130956   2.666   9.196   1.811
10238WAT     H230957   2.673   9.359   1.799
10239WAT      O30958   1.925   8.682   7.007
10239WAT     H130959   1.848   8.710   7.063
10239WAT     H230960   1.898   8.606   6.947
10240WAT      O30961   0.538   8.288   6.885
10240WAT     H130962   0.590   8.208   6.855
10240WAT     H230963   0.595   8.346   6.942
10241WAT      O30964   1.487   4.253   5.622
10241WAT     H130965   1.493   4.154   5.608
10241WAT     H230966   1.495   4.274   5.720
10242WAT      O30967   6.988   5.205   5.568
10242WAT     H130968   6.925   5.188   5.643
10242WAT     H230969   6.940   5.254   5.495
10243WAT      O30970   9.304   3.956   2.060
10243WAT     H130971   9.325   3.861   2.084
10243WAT     H230972   9.267   3.959   1.967
10244WAT      O30973   4.152   5.677   1.845
10244WAT     H130974   4.076   5.641   1.899
10244WAT     H230975   4.159   5.626   1.759
10245WAT      O30976   7.294   0.039   9.869
10245WAT     H130977   7.384   0.012   9.901
10245WAT     H230978   7.261  -0.027   9.802
10246WAT      O30979   1.685   9.738   6.590
10246WAT     H130980   1.616   9.668   6.608
10246WAT     H230981   1.642   9.828   6.589
10247WAT      O30982   3.015   6.724   0.049
10247WAT     H130983   3.090   6.722   0.115
10247WAT     H230984   2.930   6.748   0.096
10248WAT      O30985   2.359   9.550   4.901
10248WAT     H130986   2.433   9.483   4.912
10248WAT     H230987   2.351   9.604   4.985
10249WAT      O30988   7.974   2.869   6.559
10249WAT     H130989   8.060   2.819   6.560
10249WAT     H230990   7.916   2.837   6.634
10250WAT      O30991   0.727   9.423   4.474
10250WAT     H130992   0.756   9.499   4.415
10250WAT     H230993   0.728   9.452   4.569
10251WAT      O30994   3.241   5.352   2.417
10251WAT     H130995   3.258   5.435   2.364
10251WAT     H230996   3.298   5.352   2.499
10252WAT      O30997   2.885   6.279   9.405
10252WAT     H130998   2.953   6.343   9.370
10252WAT     H230999   2.867   6.208   9.337
10253WAT      O31000   3.851   3.335   3.000
10253WAT     H131001   3.848   3.412   3.063
10253WAT     H231002   3.863   3.368   2.906
10254WAT      O31003   8.076   2.325   7.989
10254WAT     H131004   8.093   2.274   8.073
10254WAT     H231005   8.158   2.376   7.964
10255WAT      O31006   7.030   6.792   6.606
10255WAT     H131007   6.981   6.777   6.692
10255WAT     H231008   6.965   6.822   6.535
10256WAT      O31009   1.881   8.996   8.481
10256WAT     H131010   1.782   9.011   8.480
10256WAT     H231011   1.915   9.002   8.575
10257WAT      O31012   4.509   7.126   4.398
10257WAT     H131013   4.519   7.217   4.437
10257WAT     H231014   4.599   7.082   4.393
10258WAT      O31015   6.952   8.861   0.909
10258WAT     H131016   6.898   8.847   0.826
10258WAT     H231017   6.901   8.827   0.988
10259WAT      O31018   9.145   5.987   9.610
10259WAT     H131019   9.048   5.976   9.628
10259WAT     H231020   9.193   6.006   9.696
10260WAT      O31021   7.016   3.426   9.180
10260WAT     H131022   6.940   3.470   9.228
10260WAT     H231023   7.101   3.475   9.198
10261WAT      O31024   6.573   9.752   2.932
10261WAT     H131025   6.591   9.816   3.007
10261WAT     H231026   6.487   9.703   2.950
10262WAT      O31027   7.846   8.960   0.272
10262WAT     H131028   7.793   8.910   0.341
10262WAT     H231029   7.943   8.951   0.292
10263WAT      O31030   7.180   5.124   8.398
10263WAT     H131031   7.103   5.177   8.432
10263WAT     H231032   7.262   5.180   8.398
10264WAT      O31033   2.222   3.664   7.567
10264WAT     H131034   2.283   3.602   7.617
10264WAT     H231035   2.184   3.732   7.630
10265WAT      O31036   4.382   2.140   8.579
10265WAT     H131037   4.396   2.208   8.650
10265WAT     H231038   4.406   2.178   8.490
10266WAT      O31039   5.606   6.564   1.945
10266WAT     H131040   5.621   6.658   1.915
10266WAT     H231041   5.636   6.501   1.874
10267WAT      O31042   0.520   8.278   2.705
10267WAT     H131043   0.556   8.272   2.798
10267WAT     H231044   0.455   8.354   2.699
10268WAT      O31045   6.817   6.667   2.404
10268WAT     H131046   6.839   6.570   2.414
10268WAT     H231047   6.864   6.703   2.323
10269WAT      O31048   8.905   5.280   2.361
10269WAT     H131049   8.933   5.224   2.439
10269WAT     H231050   8.965   5.263   2.284
10270WAT      O31051   7.186   6.707   2.332
10270WAT     H131052   7.239   6.790   2.352
10270WAT     H231053   7.120   6.726   2.260
10271WAT      O31054   2.744   5.281   3.148
10271WAT     H131055   2.696   5.286   3.236
10271WAT     H231056   2.678   5.291   3.074
10272WAT      O31057   0.469   4.749   2.429
10272WAT     H131058   0.568   4.738   2.437
10272WAT     H231059   0.431   4.775   2.518
10273WAT      O31060   0.345   1.645   6.566
10273WAT     H131061   0.285   1.565   6.566
10273WAT     H231062   0.426   1.626   6.510
10274WAT      O31063   6.776   6.718   1.159
10274WAT     H131064   6.841   6.793   1.172
10274WAT     H231065   6.721   6.707   1.242
10275WAT      O31066   5.419   0.629   9.333
10275WAT     H131067   5.352   0.573   9.381
10275WAT     H231068   5.467   0.688   9.398
10276WAT      O31069   0.368   5.053   2.279
10276WAT     H131070   0.313   5.133   2.258
10276WAT     H231071   0.309   4.979   2.310
10277WAT      O31072   2.932   2.003   5.757
10277WAT     H131073   2.938   1.903   5.757
10277WAT     H231074   2.962   2.038   5.668
10278WAT      O31075   5.619   9.716   9.690
10278WAT     H131076   5.691   9.753   9.631
10278WAT     H231077   5.536   9.771   9.679
10279WAT      O31078   3.503   4.894   3.943
10279WAT     H131079   3.426   4.837   3.971
10279WAT     H231080   3.548   4.931   4.025
10280WAT      O31081   1.251   0.881   1.637
10280WAT     H131082   1.243   0.923   1.547
10280WAT     H231083   1.166   0.834   1.661
10281WAT      O31084   2.766   1.232   9.595
10281WAT     H131085   2.802   1.203   9.506
10281WAT     H231086   2.791   1.164   9.664
10282WAT      O31087   3.628   3.488   1.996
10282WAT     H131088   3.549   3.527   2.042
10282WAT     H231089   3.631   3.520   1.902
10283WAT      O31090   6.407   4.781   7.403
10283WAT     H131091   6.426   4.685   7.384
10283WAT     H231092   6.355   4.820   7.326
10284WAT      O31093   8.335   2.415   3.051
10284WAT     H131094   8.313   2.443   3.144
10284WAT     H231095   8.434   2.412   3.039
10285WAT      O31096   5.421   8.686   2.911
10285WAT     H131097   5.514   8.700   2.946
10285WAT     H231098   5.425   8.671   2.812
10286WAT      O31099   1.053   1.296   7.524
10286WAT     H131100   0.984   1.227   7.503
10286WAT     H231101   1.084   1.285   7.618
10287WAT      O31102   7.175   3.736   1.212
10287WAT     H131103   7.105   3.744   1.141
10287WAT     H231104   7.131   3.720   1.301
10288WAT      O31105   6.762   1.764   7.095
10288WAT     H131106   6.851   1.721   7.078
10288WAT     H231107   6.768   1.862   7.074
10289WAT      O31108   7.921   9.018   7.890
10289WAT     H131109   7.859   9.026   7.812
10289WAT     H231110   7.931   8.921   7.915
10290WAT      O31111   4.288   5.332   6.916
10290WAT     H131112   4.240   5.350   7.002
10290WAT     H231113   4.224   5.337   6.840
10291WAT      O31114   8.406   5.204   5.061
10291WAT     H131115   8.456   5.254   5.131
10291WAT     H231116   8.463   5.130   5.026
10292WAT      O31117   8.385   2.325   0.454
10292WAT     H131118   8.479   2.342   0.484
10292WAT     H231119   8.364   2.228   0.465
10293WAT      O31120   2.963   1.650   7.044
10293WAT     H131121   2.989   1.730   6.990
10293WAT     H231122   2.872   1.664   7.083
10294WAT      O31123   6.995   3.142   8.981
10294WAT     H131124   7.012   3.070   8.914
10294WAT     H231125   7.061   3.135   9.055
10295WAT      O31126   1.051   4.225   6.355
10295WAT     H131127   0.955   4.201   6.347
10295WAT     H231128   1.071   4.255   6.448
10296WAT      O31129   4.419   4.522   7.495
10296WAT     H131130   4.485   4.465   7.544
10296WAT     H231131   4.364   4.573   7.561
10297WAT      O31132   3.085   2.812   8.524
10297WAT     H131133   3.021   2.887   8.535
10297WAT     H231134   3.046   2.744   8.461
10298WAT      O31135   3.617   4.392   3.497
10298WAT     H131136   3.528   4.357   3.468
10298WAT     H231137   3.604   4.476   3.550
10299WAT      O31138   8.590   4.652   5.365
10299WAT     H131139   8.660   4.650   5.436
10299WAT     H231140   8.630   4.622   5.278
10300WAT      O31141   2.369   9.643   2.852
10300WAT     H131142   2.273   9.628   2.828
10300WAT     H231143   2.422   9.562   2.828
10301WAT      O31144   5.746   8.811   5.792
10301WAT     H131145   5.809   8.881   5.760
10301WAT     H231146   5.717   8.832   5.886
10302WAT      O31147   3.848   1.733   9.035
10302WAT     H131148   3.837   1.705   9.130
10302WAT     H231149   3.931   1.692   8.997
10303WAT      O31150   0.242   4.256   0.956
10303WAT     H131151   0.225   4.268   0.858
10303WAT     H231152   0.169   4.301   1.008
10304WAT      O31153   3.317   4.183   7.471
10304WAT     H131154   3.392   4.117   7.464
10304WAT     H231155   3.278   4.180   7.563
10305WAT      O31156   2.031   8.122   6.703
10305WAT     H131157   2.072   8.186   6.768
10305WAT     H231158   2.014   8.035   6.749
10306WAT      O31159   4.056   7.656   7.348
10306WAT     H131160   4.140   7.662   7.403
10306WAT     H231161   3.995   7.587   7.388
10307WAT      O31162   2.482   1.590   5.810
10307WAT     H131163   2.540   1.618   5.734
10307WAT     H231164   2.533   1.527   5.870
10308WAT      O31165   1.512   9.665   4.875
10308WAT     H131166   1.572   9.706   4.806
10308WAT     H231167   1.564   9.646   4.958
10309WAT      O31168   3.203   7.121   0.651
10309WAT     H131169   3.185   7.219   0.650
10309WAT     H231170   3.118   7.072   0.671
10310WAT      O31171   9.411   4.423   6.194
10310WAT     H131172   9.401   4.499   6.130
10310WAT     H231173   9.468   4.352   6.154
10311WAT      O31174   4.308   1.882   5.298
10311WAT     H131175   4.213   1.854   5.311
10311WAT     H231176   4.332   1.876   5.201
10312WAT      O31177   4.434   3.436   3.022
10312WAT     H131178   4.425   3.342   2.988
10312WAT     H231179   4.351   3.488   3.001
10313WAT      O31180   7.246   4.064   1.300
10313WAT     H131181   7.330   4.100   1.341
10313WAT     H231182   7.191   4.019   1.370
10314WAT      O31183   2.830   5.325   0.958
10314WAT     H131184   2.851   5.240   0.909
10314WAT     H231185   2.803   5.304   1.052
10315WAT      O31186   8.169   6.414   3.569
10315WAT     H131187   8.227   6.418   3.488
10315WAT     H231188   8.191   6.331   3.622
10316WAT      O31189   6.577   0.206   1.911
10316WAT     H131190   6.530   0.209   1.823
10316WAT     H231191   6.526   0.258   1.979
10317WAT      O31192   3.792   8.650   1.251
10317WAT     H131193   3.808   8.698   1.338
10317WAT     H231194   3.786   8.717   1.177
10318WAT      O31195   4.848   2.982   6.003
10318WAT     H131196   4.758   3.025   6.012
10318WAT     H231197   4.909   3.043   5.951
10319WAT      O31198   3.202   2.089   0.376
10319WAT     H131199   3.163   2.138   0.298
10319WAT     H231200   3.133   2.081   0.448
10320WAT      O31201   7.799   7.342   7.862
10320WAT     H131202   7.803   7.249   7.897
10320WAT     H231203   7.881   7.362   7.809
10321WAT      O31204   5.548   0.885   3.976
10321WAT     H131205   5.566   0.953   4.047
10321WAT     H231206   5.457   0.900   3.937
10322WAT      O31207   9.553   7.170   6.671
10322WAT     H131208   9.469   7.120   6.649
10322WAT     H231209   9.622   7.105   6.704
10323WAT      O31210   9.580   3.630   9.632
10323WAT     H131211   9.533   3.560   9.686
10323WAT     H231212   9.649   3.586   9.574
10324WAT      O31213   4.773   5.167   3.470
10324WAT     H131214   4.770   5.115   3.555
10324WAT     H231215   4.812   5.110   3.398
10325WAT      O31216   4.009   3.840   5.035
10325WAT     H131217   3.997   3.939   5.028
10325WAT     H231218   4.106   3.820   5.050
10326WAT      O31219   6.649   2.967   9.438
10326WAT     H131220   6.670   2.979   9.535
10326WAT     H231221   6.693   3.041   9.386
10327WAT      O31222   7.254   9.697   1.404
10327WAT     H131223   7.166   9.699   1.450
10327WAT     H231224   7.255   9.765   1.331
10328WAT      O31225   8.428   4.099   5.930
10328WAT     H131226   8.499   4.074   5.996
10328WAT     H231227   8.384   4.183   5.959
10329WAT      O31228   0.133   6.360   8.155
10329WAT     H131229   0.079   6.319   8.083
10329WAT     H231230   0.133   6.301   8.235
10330WAT      O31231   8.187   9.737   2.319
10330WAT     H131232   8.269   9.702   2.364
10330WAT     H231233   8.113   9.745   2.386
10331WAT      O31234   8.102   3.069   4.817
10331WAT     H131235   8.195   3.062   4.782
10331WAT     H231236   8.086   3.160   4.854
10332WAT      O31237   4.232   2.402   7.296
10332WAT     H131238   4.211   2.494   7.263
10332WAT     H231239   4.147   2.350   7.307
10333WAT      O31240   5.252   3.773   5.164
10333WAT     H131241   5.307   3.854   5.146
10333WAT     H231242   5.238   3.723   5.079
10334WAT      O31243   2.817   7.726   3.774
10334WAT     H131244   2.828   7.733   3.675
10334WAT     H231245   2.790   7.815   3.811
10335WAT      O31246   2.250   0.477   4.923
10335WAT     H131247   2.345   0.480   4.891
10335WAT     H231248   2.195   0.422   4.860
10336WAT      O31249   1.263   0.909   1.266
10336WAT     H131250   1.288   0.963   1.347
10336WAT     H231251   1.341   0.909   1.203
10337WAT      O31252   1.114   1.700   4.115
10337WAT     H131253   1.041   1.766   4.098
10337WAT     H231254   1.176   1.696   4.036
10338WAT      O31255   6.394   6.854   4.661
10338WAT     H131256   6.329   6.831   4.588
10338WAT     H231257   6.391   6.785   4.733
10339WAT      O31258   0.008   5.133   0.293
10339WAT     H131259   0.035   5.113   0.199
10339WAT     H231260   0.089   5.162   0.345
10340WAT      O31261   3.039   5.659   9.406
10340WAT     H131262   3.018   5.691   9.498
10340WAT     H231263   3.039   5.737   9.343
10341WAT      O31264   0.221   7.252   8.275
10341WAT     H131265   0.301   7.203   8.240
10341WAT     H231266   0.217   7.240   8.375
10342WAT      O31267   2.422   8.004   8.616
10342WAT     H131268   2.465   8.072   8.675
10342WAT     H231269   2.376   8.051   8.540
10343WAT      O31270   8.098   5.518   3.199
10343WAT     H131271   8.137   5.499   3.289
10343WAT     H231272   8.036   5.444   3.172
10344WAT      O31273   5.997   7.423   0.735
10344WAT     H131274   6.091   7.391   0.746
10344WAT     H231275   5.986   7.463   0.644
10345WAT      O31276   8.486   1.432   6.789
10345WAT     H131277   8.548   1.355   6.773
10345WAT     H231278   8.466   1.476   6.702
10346WAT      O31279   5.276   2.602   6.516
10346WAT     H131280   5.347   2.653   6.467
10346WAT     H231281   5.186   2.633   6.486
10347WAT      O31282   5.975   1.140   9.664
10347WAT     H131283   5.950   1.052   9.705
10347WAT     H231284   6.058   1.175   9.709
10348WAT      O31285   9.755   4.516   5.545
10348WAT     H131286   9.838   4.484   5.499
10348WAT     H231287   9.730   4.451   5.617
10349WAT      O31288   4.176   7.956   9.369
10349WAT     H131289   4.088   7.926   9.333
10349WAT     H231290   4.230   7.877   9.396
10350WAT      O31291   8.622   5.054   4.706
10350WAT     H131292   8.671   4.976   4.666
10350WAT     H231293   8.604   5.036   4.802
10351WAT      O31294   6.173   8.849   8.872
10351WAT     H131295   6.136   8.757   8.886
10351WAT     H231296   6.116   8.915   8.921
10352WAT      O31297   9.349   1.967   6.528
10352WAT     H131298   9.389   1.935   6.614
10352WAT     H231299   9.385   1.912   6.452
10353WAT      O31300   8.938   2.321   5.275
10353WAT     H131301   8.919   2.251   5.344
10353WAT     H231302   8.929   2.411   5.317
10354WAT      O31303   8.053   6.714   9.617
10354WAT     H131304   8.048   6.727   9.518
10354WAT     H231305   8.139   6.668   9.640
10355WAT      O31306   1.429   4.002   4.797
10355WAT     H131307   1.392   4.094   4.811
10355WAT     H231308   1.528   4.003   4.812
10356WAT      O31309   5.066   1.778   9.017
10356WAT     H131310   5.008   1.726   9.080
10356WAT     H231311   5.112   1.715   8.954
10357WAT      O31312   0.999   3.695   8.365
10357WAT     H131313   1.093   3.668   8.346
10357WAT     H231314   0.936   3.626   8.329
10358WAT      O31315   8.494   7.216   9.442
10358WAT     H131316   8.518   7.312   9.427
10358WAT     H231317   8.424   7.210   9.513
10359WAT      O31318   7.032   8.954   8.868
10359WAT     H131319   6.935   8.960   8.892
10359WAT     H231320   7.059   9.036   8.818
10360WAT      O31321   0.157   0.922   3.415
10360WAT     H131322   0.108   0.895   3.332
10360WAT     H231323   0.166   0.842   3.475
10361WAT      O31324   5.035   7.981   3.721
10361WAT     H131325   5.118   7.925   3.724
10361WAT     H231326   4.966   7.935   3.665
10362WAT      O31327   0.933   5.380   8.479
10362WAT     H131328   0.988   5.438   8.539
10362WAT     H231329   0.990   5.345   8.404
10363WAT      O31330   7.638   5.915   8.192
10363WAT     H131331   7.629   5.824   8.231
10363WAT     H231332   7.664   5.908   8.096
10364WAT      O31333   3.205   3.020   0.231
10364WAT     H131334   3.121   3.013   0.178
10364WAT     H231335   3.202   2.955   0.307
10365WAT      O31336   5.511   1.439   3.558
10365WAT     H131337   5.599   1.417   3.516
10365WAT     H231338   5.525   1.497   3.637
10366WAT      O31339   4.532   4.133   1.428
10366WAT     H131340   4.503   4.107   1.520
10366WAT     H231341   4.458   4.114   1.363
10367WAT      O31342   5.720   4.905   5.307
10367WAT     H131343   5.781   4.845   5.361
10367WAT     H231344   5.696   4.860   5.221
10368WAT      O31345   8.250   6.717   1.285
10368WAT     H131346   8.159   6.744   1.255
10368WAT     H231347   8.293   6.659   1.215
10369WAT      O31348   5.207   2.896   7.892
10369WAT     H131349   5.109   2.916   7.891
10369WAT     H231350   5.241   2.898   7.985
10370WAT      O31351   5.349   9.679   8.195
10370WAT     H131352   5.433   9.642   8.156
10370WAT     H231353   5.371   9.759   8.251
10371WAT      O31354   1.962   3.565   9.693
10371WAT     H131355   2.046   3.542   9.643
10371WAT     H231356   1.975   3.652   9.741
10372WAT      O31357   1.088   3.907   6.667
10372WAT     H131358   1.142   3.951   6.738
10372WAT     H231359   1.000   3.954   6.656
10373WAT      O31360   7.872   9.390   3.265
10373WAT     H131361   7.926   9.307   3.247
10373WAT     H231362   7.878   9.413   3.362
10374WAT      O31363   2.679   4.576   9.295
10374WAT     H131364   2.748   4.647   9.302
10374WAT     H231365   2.647   4.550   9.387
10375WAT      O31366   9.712   5.038   8.212
10375WAT     H131367   9.764   4.985   8.145
10375WAT     H231368   9.630   5.075   8.169
10376WAT      O31369   2.929   7.783   5.906
10376WAT     H131370   2.904   7.707   5.845
10376WAT     H231371   2.927   7.752   6.001
10377WAT      O31372   8.207   5.319   2.644
10377WAT     H131373   8.165   5.249   2.586
10377WAT     H231374   8.298   5.340   2.610
10378WAT      O31375   2.379   8.028   0.088
10378WAT     H131376   2.316   8.101   0.060
10378WAT     H231377   2.398   8.036   0.186
10379WAT      O31378   1.147   8.739   2.628
10379WAT     H131379   1.061   8.785   2.649
10379WAT     H231380   1.154   8.654   2.681
10380WAT      O31381   7.515   5.865   5.570
10380WAT     H131382   7.611   5.842   5.557
10380WAT     H231383   7.467   5.786   5.609
10381WAT      O31384   3.598   4.323   0.666
10381WAT     H131385   3.534   4.380   0.718
10381WAT     H231386   3.664   4.381   0.619
10382WAT      O31387   0.323   9.029   4.679
10382WAT     H131388   0.401   9.086   4.704
10382WAT     H231389   0.353   8.960   4.612
10383WAT      O31390   6.046   2.636   1.838
10383WAT     H131391   6.144   2.649   1.853
10383WAT     H231392   5.996   2.710   1.883
10384WAT      O31393   0.710   4.155   9.530
10384WAT     H131394   0.795   4.156   9.478
10384WAT     H231395   0.703   4.069   9.580
10385WAT      O31396   4.292   9.366   9.435
10385WAT     H131397   4.281   9.313   9.520
10385WAT     H231398   4.221   9.436   9.430
10386WAT      O31399   3.484   1.404   4.668
10386WAT     H131400   3.552   1.434   4.734
10386WAT     H231401   3.413   1.351   4.715
10387WAT      O31402   0.429   4.881   9.504
10387WAT     H131403   0.422   4.977   9.475
10387WAT     H231404   0.370   4.866   9.583
10388WAT      O31405   0.040   1.452   2.486
10388WAT     H131406  -0.051   1.487   2.511
10388WAT     H231407   0.108   1.523   2.501
10389WAT      O31408   8.147   7.989   7.339
10389WAT     H131409   8.244   8.002   7.360
10389WAT     H231410   8.094   7.991   7.424
10390WAT      O31411   7.370   8.676   7.554
10390WAT     H131412   7.319   8.755   7.588
10390WAT     H231413   7.365   8.601   7.621
10391WAT      O31414   1.543   8.694   4.817
10391WAT     H131415   1.472   8.750   4.858
10391WAT     H231416   1.630   8.709   4.864
10392WAT      O31417   7.935   2.953   0.670
10392WAT     H131418   7.883   2.942   0.756
10392WAT     H231419   7.987   3.038   0.674
10393WAT      O31420   8.867   3.681   7.968
10393WAT     H131421   8.941   3.655   7.906
10393WAT     H231422   8.886   3.771   8.008
10394WAT      O31423   8.888   7.256   6.792
10394WAT     H131424   8.792   7.275   6.812
10394WAT     H231425   8.927   7.196   6.862
10395WAT      O31426   9.776   2.807   3.901
10395WAT     H131427   9.698   2.787   3.960
10395WAT     H231428   9.809   2.722   3.860
10396WAT      O31429   9.181   9.743   6.129
10396WAT     H131430   9.275   9.757   6.097
10396WAT     H231431   9.149   9.826   6.175
10397WAT      O31432   7.534   9.721   6.632
10397WAT     H131433   7.485   9.740   6.547
10397WAT     H231434   7.624   9.765   6.629
10398WAT      O31435   7.558   7.630   7.109
10398WAT     H131436   7.509   7.715   7.087
10398WAT     H231437   7.647   7.652   7.148
10399WAT      O31438   6.257   2.010   5.392
10399WAT     H131439   6.162   1.989   5.367
10399WAT     H231440   6.318   1.982   5.318
10400WAT      O31441   9.830   1.479   8.973
10400WAT     H131442   9.815   1.417   8.895
10400WAT     H231443   9.744   1.523   8.997
10401WAT      O31444   1.755   6.580   9.148
10401WAT     H131445   1.822   6.523   9.101
10401WAT     H231446   1.726   6.654   9.087
10402WAT      O31447   0.819   4.979   3.603
10402WAT     H131448   0.803   5.036   3.684
10402WAT     H231449   0.739   4.922   3.586
10403WAT      O31450   9.636   0.467   3.733
10403WAT     H131451   9.673   0.495   3.822
10403WAT     H231452   9.659   0.371   3.716
10404WAT      O31453   8.411   4.293   7.572
10404WAT     H131454   8.359   4.211   7.545
10404WAT     H231455   8.364   4.339   7.647
10405WAT      O31456   2.541   1.339   5.562
10405WAT     H131457   2.584   1.429   5.558
10405WAT     H231458   2.448   1.348   5.599
10406WAT      O31459   1.830   7.291   9.531
10406WAT     H131460   1.824   7.337   9.620
10406WAT     H231461   1.746   7.239   9.514
10407WAT      O31462   8.230   0.092   4.274
10407WAT     H131463   8.272   0.183   4.278
10407WAT     H231464   8.171   0.079   4.354
10408WAT      O31465   3.408   4.431   6.788
10408WAT     H131466   3.403   4.457   6.692
10408WAT     H231467   3.320   4.394   6.817
10409WAT      O31468   7.537   8.410   6.069
10409WAT     H131469   7.450   8.396   6.118
10409WAT     H231470   7.545   8.341   5.997
10410WAT      O31471   9.748   2.146   7.386
10410WAT     H131472   9.818   2.143   7.314
10410WAT     H231473   9.700   2.059   7.390
10411WAT      O31474   1.958   2.489   2.729
10411WAT     H131475   1.955   2.470   2.827
10411WAT     H231476   1.876   2.540   2.703
10412WAT      O31477   8.633   9.634   2.971
10412WAT     H131478   8.623   9.722   3.018
10412WAT     H231479   8.727   9.624   2.939
10413WAT      O31480   0.988   4.554   3.621
10413WAT     H131481   0.925   4.548   3.543
10413WAT     H231482   1.028   4.464   3.638
10414WAT      O31483   5.591   6.890   0.001
10414WAT     H131484   5.642   6.842   0.072
10414WAT     H231485   5.531   6.958   0.044
10415WAT      O31486   1.088   4.819   0.638
10415WAT     H131487   1.015   4.865   0.689
10415WAT     H231488   1.159   4.886   0.615
10416WAT      O31489   1.991   8.882   0.094
10416WAT     H131490   1.923   8.949   0.124
10416WAT     H231491   2.062   8.927   0.040
10417WAT      O31492   9.159   8.121   0.993
10417WAT     H131493   9.084   8.172   0.949
10417WAT     H231494   9.243   8.135   0.942
10418WAT      O31495   5.733   0.484   0.278
10418WAT     H131496   5.743   0.407   0.342
10418WAT     H231497   5.731   0.450   0.184
10419WAT      O31498   4.704   3.177   3.191
10419WAT     H131499   4.654   3.190   3.105
10419WAT     H231500   4.799   3.153   3.171
10420WAT      O31501   8.616   0.460   8.602
10420WAT     H131502   8.539   0.520   8.581
10420WAT     H231503   8.619   0.443   8.700
10421WAT      O31504   5.458   9.699   0.962
10421WAT     H131505   5.373   9.657   0.930
10421WAT     H231506   5.438   9.755   1.043
10422WAT      O31507   2.023   2.506   9.223
10422WAT     H131508   1.996   2.411   9.212
10422WAT     H231509   2.078   2.516   9.306
10423WAT      O31510   5.456   8.037   3.397
10423WAT     H131511   5.383   7.975   3.425
10423WAT     H231512   5.443   8.126   3.440
10424WAT      O31513   0.691   3.707   9.460
10424WAT     H131514   0.783   3.717   9.422
10424WAT     H231515   0.651   3.797   9.474
10425WAT      O31516   5.726   3.229   1.953
10425WAT     H131517   5.695   3.171   1.878
10425WAT     H231518   5.647   3.267   2.000
10426WAT      O31519   4.444   7.994   1.059
10426WAT     H131520   4.514   8.024   1.124
10426WAT     H231521   4.372   7.945   1.107
10427WAT      O31522   1.325   8.000   8.577
10427WAT     H131523   1.421   7.982   8.595
10427WAT     H231524   1.268   7.936   8.628
10428WAT      O31525   7.714   2.486   0.728
10428WAT     H131526   7.812   2.464   0.728
10428WAT     H231527   7.663   2.412   0.771
10429WAT      O31528   6.420   8.825   4.604
10429WAT     H131529   6.476   8.907   4.588
10429WAT     H231530   6.331   8.836   4.560
10430WAT      O31531   7.896   0.021   7.027
10430WAT     H131532   7.799   0.045   7.027
10430WAT     H231533   7.934   0.032   7.119
10431WAT      O31534   0.873   0.460   1.770
10431WAT     H131535   0.867   0.554   1.804
10431WAT     H231536   0.803   0.445   1.701
10432WAT      O31537   1.089   0.139   2.825
10432WAT     H131538   1.051   0.056   2.786
10432WAT     H231539   1.169   0.116   2.881
10433WAT      O31540   4.693   9.836   1.534
10433WAT     H131541   4.743   9.817   1.619
10433WAT     H231542   4.719   9.926   1.499
10434WAT      O31543   6.757   3.564   6.259
10434WAT     H131544   6.707   3.480   6.237
10434WAT     H231545   6.766   3.621   6.177
10435WAT      O31546   9.322   7.278   0.924
10435WAT     H131547   9.351   7.308   0.833
10435WAT     H231548   9.325   7.355   0.987
10436WAT      O31549   2.369   9.809   6.107
10436WAT     H131550   2.315   9.757   6.041
10436WAT     H231551   2.312   9.833   6.185
10437WAT      O31552   1.709   6.308   5.063
10437WAT     H131553   1.681   6.219   5.026
10437WAT     H231554   1.682   6.380   4.998
10438WAT      O31555   2.154   2.760   8.630
10438WAT     H131556   2.119   2.699   8.558
10438WAT     H231557   2.252   2.745   8.642
10439WAT      O31558   3.855   3.188   9.127
10439WAT     H131559   3.900   3.268   9.167
10439WAT     H231560   3.924   3.121   9.099
10440WAT      O31561   7.337   7.464   7.615
10440WAT     H131562   7.357   7.557   7.584
10440WAT     H231563   7.346   7.459   7.715
10441WAT      O31564   0.309   4.807   9.747
10441WAT     H131565   0.380   4.783   9.812
10441WAT     H231566   0.240   4.863   9.791
10442WAT      O31567   1.826   0.294   6.302
10442WAT     H131568   1.762   0.222   6.275
10442WAT     H231569   1.907   0.291   6.244
10443WAT      O31570   2.588   5.302   4.305
10443WAT     H131571   2.620   5.340   4.218
10443WAT     H231572   2.544   5.213   4.288
10444WAT      O31573   4.108   6.854   3.770
10444WAT     H131574   4.015   6.816   3.770
10444WAT     H231575   4.160   6.817   3.847
10445WAT      O31576   9.160   3.819   4.313
10445WAT     H131577   9.214   3.775   4.385
10445WAT     H231578   9.220   3.840   4.236
10446WAT      O31579   7.888   7.065   0.802
10446WAT     H131580   7.882   7.164   0.816
10446WAT     H231581   7.838   7.040   0.718
10447WAT      O31582   8.788   1.690   4.925
10447WAT     H131583   8.785   1.765   4.860
10447WAT     H231584   8.711   1.628   4.908
10448WAT      O31585   7.718   3.698   3.273
10448WAT     H131586   7.811   3.729   3.289
10448WAT     H231587   7.685   3.648   3.353
10449WAT      O31588   2.345   1.770   5.402
10449WAT     H131589   2.292   1.847   5.438
10449WAT     H231590   2.419   1.748   5.465
10450WAT      O31591   6.714   7.538   0.079
10450WAT     H131592   6.679   7.590   0.157
10450WAT     H231593   6.754   7.601   0.012
10451WAT      O31594   6.293   0.213   5.223
10451WAT     H131595   6.359   0.138   5.209
10451WAT     H231596   6.262   0.212   5.318
10452WAT      O31597   6.846   2.906   8.409
10452WAT     H131598   6.860   3.005   8.421
10452WAT     H231599   6.765   2.878   8.460
10453WAT      O31600   8.673   6.999   6.646
10453WAT     H131601   8.686   6.924   6.711
10453WAT     H231602   8.654   7.084   6.697
10454WAT      O31603   0.433   7.377   7.071
10454WAT     H131604   0.380   7.402   7.152
10454WAT     H231605   0.530   7.389   7.090
10455WAT      O31606   8.709   4.785   6.043
10455WAT     H131607   8.692   4.704   5.987
10455WAT     H231608   8.703   4.761   6.140
10456WAT      O31609   9.499   7.253   7.942
10456WAT     H131610   9.405   7.232   7.970
10456WAT     H231611   9.558   7.174   7.962
10457WAT      O31612   9.021   8.404   5.783
10457WAT     H131613   9.042   8.307   5.791
10457WAT     H231614   8.943   8.416   5.722
10458WAT      O31615   4.418   3.545   1.586
10458WAT     H131616   4.455   3.636   1.607
10458WAT     H231617   4.490   3.488   1.547
10459WAT      O31618   4.108   0.521   3.469
10459WAT     H131619   4.173   0.572   3.527
10459WAT     H231620   4.104   0.564   3.379
10460WAT      O31621   3.869   2.230   8.048
10460WAT     H131622   3.961   2.191   8.041
10460WAT     H231623   3.835   2.218   8.141
10461WAT      O31624   4.229   6.713   7.707
10461WAT     H131625   4.284   6.778   7.759
10461WAT     H231626   4.181   6.761   7.633
10462WAT      O31627   2.409   5.626   1.796
10462WAT     H131628   2.435   5.699   1.732
10462WAT     H231629   2.338   5.570   1.754
10463WAT      O31630   2.366   0.438   8.829
10463WAT     H131631   2.439   0.397   8.883
10463WAT     H231632   2.324   0.512   8.881
10464WAT      O31633   0.486   1.302   7.460
10464WAT     H131634   0.557   1.352   7.508
10464WAT     H231635   0.405   1.293   7.519
10465WAT      O31636   3.653   6.121   8.206
10465WAT     H131637   3.557   6.102   8.229
10465WAT     H231638   3.712   6.051   8.247
10466WAT      O31639   1.047   6.035   3.894
10466WAT     H131640   1.079   6.066   3.804
10466WAT     H231641   1.126   6.015   3.952
10467WAT      O31642   2.047   3.794   1.879
10467WAT     H131643   2.013   3.883   1.910
10467WAT     H231644   2.118   3.808   1.809
10468WAT      O31645   9.716   3.778   6.929
10468WAT     H131646   9.735   3.842   7.003
10468WAT     H231647   9.658   3.823   6.861
10469WAT      O31648   6.483   4.467   9.151
10469WAT     H131649   6.426   4.526   9.094
10469WAT     H231650   6.508   4.516   9.235
10470WAT      O31651   8.644   5.886   7.813
10470WAT     H131652   8.567   5.862   7.754
10470WAT     H231653   8.627   5.852   7.905
10471WAT      O31654   2.979   6.919   9.169
10471WAT     H131655   3.021   6.832   9.197
10471WAT     H231656   2.889   6.928   9.211
10472WAT      O31657   7.653   8.707   6.354
10472WAT     H131658   7.580   8.773   6.372
10472WAT     H231659   7.616   8.614   6.364
10473WAT      O31660   5.127   5.611   1.246
10473WAT     H131661   5.144   5.653   1.157
10473WAT     H231662   5.202   5.631   1.308
10474WAT      O31663   0.770   8.537   6.462
10474WAT     H131664   0.733   8.446   6.443
10474WAT     H231665   0.765   8.593   6.379
10475WAT      O31666   9.657   7.448   4.158
10475WAT     H131667   9.656   7.514   4.233
10475WAT     H231668   9.573   7.394   4.160
10476WAT      O31669   1.285   3.146   7.776
10476WAT     H131670   1.310   3.091   7.856
10476WAT     H231671   1.366   3.196   7.743
10477WAT      O31672   3.755   3.693   4.465
10477WAT     H131673   3.841   3.670   4.419
10477WAT     H231674   3.689   3.619   4.452
10478WAT      O31675   6.411   7.111   6.261
10478WAT     H131676   6.410   7.014   6.284
10478WAT     H231677   6.501   7.150   6.281
10479WAT      O31678   5.559   1.109   7.763
10479WAT     H131679   5.659   1.106   7.763
10479WAT     H231680   5.528   1.165   7.840
10480WAT      O31681   1.583   0.127   4.972
10480WAT     H131682   1.532   0.167   4.896
10480WAT     H231683   1.681   0.127   4.951
10481WAT      O31684   8.041   5.676   3.602
10481WAT     H131685   8.078   5.586   3.625
10481WAT     H231686   8.105   5.725   3.543
10482WAT      O31687   9.493   9.266   1.728
10482WAT     H131688   9.407   9.237   1.769
10482WAT     H231689   9.564   9.272   1.798
10483WAT      O31690   6.318   0.460   5.939
10483WAT     H131691   6.268   0.469   6.025
10483WAT     H231692   6.356   0.549   5.913
10484WAT      O31693   9.575   2.307   0.045
10484WAT     H131694   9.596   2.326   0.141
10484WAT     H231695   9.492   2.357   0.019
10485WAT      O31696   4.563   2.458   8.584
10485WAT     H131697   4.496   2.440   8.656
10485WAT     H231698   4.655   2.455   8.623
10486WAT      O31699   9.725   5.015   7.605
10486WAT     H131700   9.735   4.929   7.555
10486WAT     H231701   9.787   5.015   7.683
10487WAT      O31702   7.248   0.061   0.450
10487WAT     H131703   7.276   0.155   0.435
10487WAT     H231704   7.323   0.010   0.492
10488WAT      O31705   5.879   5.345   5.938
10488WAT     H131706   5.943   5.289   5.989
10488WAT     H231707   5.925   5.385   5.858
10489WAT      O31708   8.280   4.769   5.938
10489WAT     H131709   8.328   4.699   5.992
10489WAT     H231710   8.308   4.762   5.843
10490WAT      O31711   6.487   9.760   7.117
10490WAT     H131712   6.414   9.828   7.117
10490WAT     H231713   6.576   9.807   7.117
10491WAT      O31714   4.328   2.602   3.412
10491WAT     H131715   4.319   2.568   3.319
10491WAT     H231716   4.392   2.679   3.413
10492WAT      O31717   4.886   0.008   4.036
10492WAT     H131718   4.986   0.010   4.032
10492WAT     H231719   4.855   0.047   4.122
10493WAT      O31720   1.280   3.377   8.479
10493WAT     H131721   1.316   3.435   8.406
10493WAT     H231722   1.294   3.281   8.455
10494WAT      O31723   2.386   1.489   4.371
10494WAT     H131724   2.421   1.411   4.320
10494WAT     H231725   2.377   1.567   4.310
10495WAT      O31726   6.905   4.728   1.518
10495WAT     H131727   6.832   4.717   1.451
10495WAT     H231728   6.874   4.789   1.591
10496WAT      O31729   0.878   8.349   9.412
10496WAT     H131730   0.941   8.280   9.445
10496WAT     H231731   0.789   8.339   9.458
10497WAT      O31732   8.632   6.779   0.785
10497WAT     H131733   8.613   6.866   0.830
10497WAT     H231734   8.698   6.795   0.711
10498WAT      O31735   5.877   3.819   7.557
10498WAT     H131736   5.878   3.747   7.488
10498WAT     H231737   5.871   3.778   7.648
10499WAT      O31738   7.014   9.417   2.229
10499WAT     H131739   7.092   9.455   2.180
10499WAT     H231740   6.942   9.392   2.165
10500WAT      O31741   5.613   6.444   3.914
10500WAT     H131742   5.648   6.531   3.949
10500WAT     H231743   5.570   6.459   3.825
10501WAT      O31744   5.519   9.801   6.610
10501WAT     H131745   5.428   9.761   6.617
10501WAT     H231746   5.511   9.900   6.598
10502WAT      O31747   5.614   2.021   7.623
10502WAT     H131748   5.543   1.987   7.562
10502WAT     H231749   5.685   1.951   7.635
10503WAT      O31750   7.167   6.801   7.930
10503WAT     H131751   7.213   6.812   7.842
10503WAT     H231752   7.216   6.853   8.000
10504WAT      O31753   7.065   3.875   8.321
10504WAT     H131754   7.085   3.777   8.324
10504WAT     H231755   7.112   3.921   8.396
10505WAT      O31756   9.315   4.087   5.846
10505WAT     H131757   9.226   4.050   5.821
10505WAT     H231758   9.304   4.178   5.886
10506WAT      O31759   6.286   5.223   4.553
10506WAT     H131760   6.319   5.307   4.594
10506WAT     H231761   6.278   5.234   4.454
10507WAT      O31762   6.345   0.370   7.020
10507WAT     H131763   6.368   0.273   7.027
10507WAT     H231764   6.248   0.380   7.000
10508WAT      O31765   1.859   3.611   5.768
10508WAT     H131766   1.900   3.670   5.837
10508WAT     H231767   1.761   3.603   5.784
10509WAT      O31768   8.135   6.945   5.811
10509WAT     H131769   8.228   6.916   5.830
10509WAT     H231770   8.136   7.020   5.745
10510WAT      O31771   8.973   3.357   1.692
10510WAT     H131772   8.938   3.386   1.602
10510WAT     H231773   8.898   3.353   1.757
10511WAT      O31774   9.544   8.425   7.450
10511WAT     H131775   9.498   8.514   7.443
10511WAT     H231776   9.623   8.433   7.510
10512WAT      O31777   8.317   3.482   9.179
10512WAT     H131778   8.329   3.511   9.273
10512WAT     H231779   8.223   3.451   9.165
10513WAT      O31780   9.645   1.748   5.330
10513WAT     H131781   9.639   1.670   5.267
10513WAT     H231782   9.593   1.825   5.293
10514WAT      O31783   7.460   1.163   3.569
10514WAT     H131784   7.516   1.087   3.537
10514WAT     H231785   7.381   1.175   3.508
10515WAT      O31786   2.458   7.031   9.528
10515WAT     H131787   2.441   7.080   9.613
10515WAT     H231788   2.472   6.934   9.547
10516WAT      O31789   3.756   1.816   3.193
10516WAT     H131790   3.805   1.765   3.263
10516WAT     H231791   3.814   1.890   3.159
10517WAT      O31792   0.842   0.856   3.435
10517WAT     H131793   0.912   0.786   3.421
10517WAT     H231794   0.751   0.817   3.422
10518WAT      O31795   3.689   3.754   0.193
10518WAT     H131796   3.703   3.848   0.162
10518WAT     H231797   3.593   3.730   0.182
10519WAT      O31798   3.389   9.603   8.033
10519WAT     H131799   3.301   9.618   8.077
10519WAT     H231800   3.425   9.514   8.061
10520WAT      O31801   9.499   6.503   4.613
10520WAT     H131802   9.586   6.524   4.656
10520WAT     H231803   9.440   6.584   4.615
10521WAT      O31804   3.045   3.587   5.669
10521WAT     H131805   3.038   3.558   5.573
10521WAT     H231806   3.141   3.589   5.696
10522WAT      O31807   4.317   2.939   7.756
10522WAT     H131808   4.223   2.957   7.728
10522WAT     H231809   4.318   2.892   7.844
10523WAT      O31810   2.053   7.123   1.334
10523WAT     H131811   1.993   7.118   1.414
10523WAT     H231812   2.139   7.169   1.360
10524WAT      O31813   4.221   3.670   4.039
10524WAT     H131814   4.129   3.696   4.069
10524WAT     H231815   4.255   3.739   3.975
10525WAT      O31816   2.197   2.683   6.657
10525WAT     H131817   2.110   2.726   6.682
10525WAT     H231818   2.233   2.632   6.735
10526WAT      O31819   2.387   6.295   4.440
10526WAT     H131820   2.355   6.389   4.447
10526WAT     H231821   2.482   6.294   4.409
10527WAT      O31822   1.310   5.004   7.393
10527WAT     H131823   1.287   4.908   7.378
10527WAT     H231824   1.295   5.027   7.489
10528WAT      O31825   1.627   6.105   0.589
10528WAT     H131826   1.548   6.145   0.635
10528WAT     H231827   1.708   6.115   0.647
10529WAT      O31828   4.361   8.789   8.549
10529WAT     H131829   4.417   8.842   8.485
10529WAT     H231830   4.336   8.702   8.508
10530WAT      O31831   2.832   0.944   1.896
10530WAT     H131832   2.738   0.979   1.897
10530WAT     H231833   2.840   0.868   1.959
10531WAT      O31834   6.768   8.119   7.023
10531WAT     H131835   6.840   8.158   7.081
10531WAT     H231836   6.682   8.119   7.073
10532WAT      O31837   2.354   1.511   9.048
10532WAT     H131838   2.317   1.529   9.140
10532WAT     H231839   2.454   1.503   9.054
10533WAT      O31840   4.479   3.245   6.330
10533WAT     H131841   4.402   3.188   6.302
10533WAT     H231842   4.485   3.247   6.430
10534WAT      O31843   7.392   3.335   2.581
10534WAT     H131844   7.450   3.373   2.509
10534WAT     H231845   7.368   3.241   2.557
10535WAT      O31846   4.422   2.367   6.764
10535WAT     H131847   4.452   2.459   6.737
10535WAT     H231848   4.354   2.375   6.838
10536WAT      O31849   5.397   6.895   1.345
10536WAT     H131850   5.357   6.893   1.253
10536WAT     H231851   5.496   6.897   1.339
10537WAT      O31852   9.790   0.308   7.550
10537WAT     H131853   9.808   0.405   7.537
10537WAT     H231854   9.833   0.256   7.477
10538WAT      O31855   9.583   0.121   5.872
10538WAT     H131856   9.611   0.216   5.882
10538WAT     H231857   9.546   0.107   5.780
10539WAT      O31858   0.047   5.349   3.407
10539WAT     H131859   0.143   5.356   3.378
10539WAT     H231860   0.023   5.253   3.419
10540WAT      O31861   7.970   3.444   4.072
10540WAT     H131862   7.946   3.515   4.006
10540WAT     H231863   7.888   3.416   4.122
10541WAT      O31864   8.627   9.086   8.676
10541WAT     H131865   8.716   9.056   8.641
10541WAT     H231866   8.618   9.185   8.664
10542WAT      O31867   8.408   6.464   5.355
10542WAT     H131868   8.465   6.545   5.346
10542WAT     H231869   8.446   6.390   5.300
10543WAT      O31870   6.782   8.254   5.234
10543WAT     H131871   6.704   8.273   5.294
10543WAT     H231872   6.839   8.182   5.274
10544WAT      O31873   4.084   3.939   3.705
10544WAT     H131874   4.033   3.963   3.622
10544WAT     H231875   4.029   3.877   3.761
10545WAT      O31876   9.336   7.435   4.476
10545WAT     H131877   9.264   7.441   4.407
10545WAT     H231878   9.371   7.527   4.494
10546WAT      O31879   8.121   8.234   1.292
10546WAT     H131880   8.154   8.277   1.376
10546WAT     H231881   8.161   8.281   1.213
10547WAT      O31882   7.825   1.444   4.783
10547WAT     H131883   7.743   1.429   4.727
10547WAT     H231884   7.865   1.533   4.760
10548WAT      O31885   4.936   1.279   4.558
10548WAT     H131886   4.967   1.371   4.582
10548WAT     H231887   4.898   1.234   4.639
10549WAT      O31888   7.158   3.744   4.526
10549WAT     H131889   7.077   3.800   4.542
10549WAT     H231890   7.192   3.758   4.433
10550WAT      O31891   5.811   8.137   1.531
10550WAT     H131892   5.818   8.046   1.491
10550WAT     H231893   5.717   8.152   1.563
10551WAT      O31894   2.201   5.852   8.008
10551WAT     H131895   2.136   5.875   8.079
10551WAT     H231896   2.254   5.933   7.983
10552WAT      O31897   8.532   9.753   6.142
10552WAT     H131898   8.489   9.826   6.195
10552WAT     H231899   8.489   9.666   6.164
10553WAT      O31900   3.228   9.571   8.415
10553WAT     H131901   3.199   9.667   8.419
10553WAT     H231902   3.149   9.512   8.423
10554WAT      O31903   2.528   2.153   0.879
10554WAT     H131904   2.520   2.055   0.861
10554WAT     H231905   2.602   2.191   0.825
10555WAT      O31906   1.772   3.677   9.539
10555WAT     H131907   1.824   3.609   9.590
10555WAT     H231908   1.836   3.734   9.486
10556WAT      O31909   5.599   0.337   8.036
10556WAT     H131910   5.690   0.370   8.011
10556WAT     H231911   5.551   0.407   8.088
10557WAT      O31912   0.283   2.706   0.926
10557WAT     H131913   0.277   2.659   0.837
10557WAT     H231914   0.191   2.726   0.959
10558WAT      O31915   1.818   0.184   4.776
10558WAT     H131916   1.874   0.247   4.831
10558WAT     H231917   1.757   0.237   4.717
10559WAT      O31918   4.068   1.301   0.364
10559WAT     H131919   4.023   1.357   0.295
10559WAT     H231920   4.024   1.314   0.452
10560WAT      O31921   5.204   2.202   7.375
10560WAT     H131922   5.126   2.181   7.434
10560WAT     H231923   5.176   2.265   7.303
10561WAT      O31924   0.917   3.800   2.762
10561WAT     H131925   1.015   3.784   2.750
10561WAT     H231926   0.872   3.798   2.673
10562WAT      O31927   1.574   4.956   6.895
10562WAT     H131928   1.609   4.865   6.916
10562WAT     H231929   1.650   5.013   6.863
10563WAT      O31930   6.039   0.405   8.360
10563WAT     H131931   6.055   0.334   8.429
10563WAT     H231932   6.079   0.491   8.391
10564WAT      O31933   7.318   6.329   1.121
10564WAT     H131934   7.388   6.390   1.158
10564WAT     H231935   7.312   6.342   1.022
10565WAT      O31936   0.731   3.363   2.522
10565WAT     H131937   0.764   3.325   2.608
10565WAT     H231938   0.784   3.326   2.446
10566WAT      O31939   9.084   3.245   4.042
10566WAT     H131940   8.986   3.226   4.034
10566WAT     H231941   9.102   3.339   4.015
10567WAT      O31942   5.061   2.959   2.940
10567WAT     H131943   4.969   2.946   2.903
10567WAT     H231944   5.103   3.040   2.899
10568WAT      O31945   3.648   4.012   1.121
10568WAT     H131946   3.732   4.024   1.067
10568WAT     H231947   3.618   4.100   1.156
10569WAT      O31948   1.707   7.635   1.914
10569WAT     H131949   1.666   7.624   2.005
10569WAT     H231950   1.704   7.548   1.865
10570WAT      O31951   2.115   0.774   0.870
10570WAT     H131952   2.112   0.766   0.970
10570WAT     H231953   2.067   0.857   0.842
10571WAT      O31954   0.788   5.352   1.401
10571WAT     H131955   0.778   5.439   1.449
10571WAT     H231956   0.752   5.278   1.457
10572WAT      O31957   2.016   4.110   0.622
10572WAT     H131958   2.017   4.194   0.676
10572WAT     H231959   1.953   4.044   0.663
10573WAT      O31960   7.397   0.500   9.508
10573WAT     H131961   7.369   0.560   9.433
10573WAT     H231962   7.496   0.501   9.517
10574WAT      O31963   0.175   6.425   4.964
10574WAT     H131964   0.159   6.472   4.877
10574WAT     H231965   0.116   6.344   4.969
10575WAT      O31966   3.554   7.893   3.786
10575WAT     H131967   3.609   7.872   3.705
10575WAT     H231968   3.607   7.872   3.868
10576WAT      O31969   2.535   1.201   5.071
10576WAT     H131970   2.482   1.253   5.138
10576WAT     H231971   2.513   1.104   5.080
10577WAT      O31972   8.440   5.264   5.735
10577WAT     H131973   8.358   5.222   5.697
10577WAT     H231974   8.432   5.364   5.729
10578WAT      O31975   0.214   4.860   2.375
10578WAT     H131976   0.221   4.792   2.302
10578WAT     H231977   0.293   4.851   2.436
10579WAT      O31978   2.317   5.743   4.795
10579WAT     H131979   2.317   5.644   4.782
10579WAT     H231980   2.410   5.775   4.812
10580WAT      O31981   1.908   1.657   9.304
10580WAT     H131982   1.816   1.695   9.313
10580WAT     H231983   1.906   1.578   9.242
10581WAT      O31984   2.464   8.807   0.369
10581WAT     H131985   2.463   8.718   0.322
10581WAT     H231986   2.370   8.842   0.374
10582WAT      O31987   7.859   5.149   5.789
10582WAT     H131988   7.796   5.223   5.766
10582WAT     H231989   7.830   5.065   5.745
10583WAT      O31990   4.788   1.870   9.382
10583WAT     H131991   4.876   1.885   9.428
10583WAT     H231992   4.727   1.821   9.444
10584WAT      O31993   2.590   0.231   6.970
10584WAT     H131994   2.495   0.200   6.965
10584WAT     H231995   2.646   0.176   6.908
10585WAT      O31996   1.861   9.396   7.261
10585WAT     H131997   1.866   9.424   7.356
10585WAT     H231998   1.924   9.451   7.206
10586WAT      O31999   3.659   9.693   6.451
10586WAT     H132000   3.672   9.745   6.366
10586WAT     H232001   3.581   9.632   6.441
10587WAT      O32002   7.547   3.690   4.476
10587WAT     H132003   7.629   3.634   4.471
10587WAT     H232004   7.470   3.635   4.508
10588WAT      O32005   9.653   8.419   5.104
10588WAT     H132006   9.680   8.324   5.122
10588WAT     H232007   9.713   8.481   5.155
10589WAT      O32008   2.775   2.751   1.719
10589WAT     H132009   2.759   2.797   1.806
10589WAT     H232010   2.868   2.770   1.688
10590WAT      O32011   2.986   5.498   4.414
10590WAT     H132012   2.896   5.530   4.385
10590WAT     H232013   3.005   5.531   4.506
10591WAT      O32014   4.331   1.164   8.369
10591WAT     H132015   4.292   1.199   8.455
10591WAT     H232016   4.276   1.087   8.337
10592WAT      O32017   5.832   8.615   3.862
10592WAT     H132018   5.848   8.524   3.824
10592WAT     H232019   5.734   8.636   3.859
10593WAT      O32020   3.360   5.877   7.271
10593WAT     H132021   3.448   5.924   7.278
10593WAT     H232022   3.306   5.917   7.197
10594WAT      O32023   6.334   4.698   9.519
10594WAT     H132024   6.371   4.697   9.613
10594WAT     H232025   6.272   4.775   9.509
10595WAT      O32026   6.649   6.473   9.179
10595WAT     H132027   6.700   6.396   9.217
10595WAT     H232028   6.672   6.557   9.229
10596WAT      O32029   6.626   5.942   1.147
10596WAT     H132030   6.719   5.979   1.158
10596WAT     H232031   6.629   5.842   1.160
10597WAT      O32032   7.573   7.940   6.810
10597WAT     H132033   7.598   7.872   6.741
10597WAT     H232034   7.480   7.972   6.793
10598WAT      O32035   8.122   8.311   9.361
10598WAT     H132036   8.165   8.383   9.415
10598WAT     H232037   8.066   8.253   9.421
10599WAT      O32038   2.256   9.097   8.992
10599WAT     H132039   2.351   9.067   8.994
10599WAT     H232040   2.231   9.139   9.079
10600WAT      O32041   2.214   7.940   6.127
10600WAT     H132042   2.165   7.853   6.122
10600WAT     H232043   2.148   8.015   6.127
10601WAT      O32044   6.185   0.816   9.665
10601WAT     H132045   6.249   0.764   9.722
10601WAT     H232046   6.236   0.877   9.604
10602WAT      O32047   6.657   2.139   2.151
10602WAT     H132048   6.745   2.145   2.105
10602WAT     H232049   6.664   2.179   2.242
10603WAT      O32050   1.257   2.895   4.411
10603WAT     H132051   1.244   2.988   4.445
10603WAT     H232052   1.269   2.896   4.312
10604WAT      O32053   0.905   3.076   5.162
10604WAT     H132054   0.940   3.085   5.069
10604WAT     H232055   0.971   3.025   5.218
10605WAT      O32056   3.671   4.394   4.726
10605WAT     H132057   3.626   4.483   4.714
10605WAT     H232058   3.770   4.407   4.726
10606WAT      O32059   1.428   2.179   6.580
10606WAT     H132060   1.449   2.276   6.594
10606WAT     H232061   1.478   2.124   6.647
10607WAT      O32062   2.147   6.229   3.865
10607WAT     H132063   2.196   6.141   3.858
10607WAT     H232064   2.212   6.300   3.893
10608WAT      O32065   9.703   2.054   1.884
10608WAT     H132066   9.662   1.969   1.850
10608WAT     H232067   9.714   2.048   1.983
10609WAT      O32068   8.808   8.040   8.875
10609WAT     H132069   8.849   7.955   8.842
10609WAT     H232070   8.739   8.019   8.944
10610WAT      O32071   5.865   7.143   1.875
10610WAT     H132072   5.957   7.179   1.895
10610WAT     H232073   5.869   7.044   1.870
10611WAT      O32074   1.129   6.859   7.715
10611WAT     H132075   1.176   6.938   7.674
10611WAT     H232076   1.184   6.777   7.701
10612WAT      O32077   0.149   5.410   4.032
10612WAT     H132078   0.241   5.373   4.047
10612WAT     H232079   0.113   5.373   3.946
10613WAT      O32080   0.089   3.544   7.686
10613WAT     H132081   0.024   3.470   7.673
10613WAT     H232082   0.182   3.509   7.677
10614WAT      O32083   0.100   8.249   7.324
10614WAT     H132084   0.051   8.192   7.390
10614WAT     H232085   0.161   8.192   7.269
10615WAT      O32086   2.667   5.658   5.186
10615WAT     H132087   2.698   5.725   5.253
10615WAT     H232088   2.648   5.571   5.231
10616WAT      O32089   3.566   5.730   8.099
10616WAT     H132090   3.652   5.780   8.096
10616WAT     H232091   3.554   5.678   8.014
10617WAT      O32092   1.325   5.242   8.318
10617WAT     H132093   1.291   5.148   8.327
10617WAT     H232094   1.410   5.241   8.265
10618WAT      O32095   4.530   3.203   5.106
10618WAT     H132096   4.489   3.212   5.196
10618WAT     H232097   4.466   3.235   5.036
10619WAT      O32098   5.094   5.116   1.424
10619WAT     H132099   5.042   5.111   1.339
10619WAT     H232100   5.146   5.032   1.436
10620WAT      O32101   0.690   5.318   9.189
10620WAT     H132102   0.629   5.378   9.242
10620WAT     H232103   0.670   5.327   9.092
10621WAT      O32104   7.216   3.083   3.253
10621WAT     H132105   7.227   3.169   3.203
10621WAT     H232106   7.307   3.045   3.273
10622WAT      O32107   7.154   6.734   9.804
10622WAT     H132108   7.253   6.733   9.793
10622WAT     H232109   7.129   6.694   9.892
10623WAT      O32110   2.737   7.977   3.873
10623WAT     H132111   2.763   8.071   3.894
10623WAT     H232112   2.647   7.976   3.830
10624WAT      O32113   0.817   0.327   6.779
10624WAT     H132114   0.838   0.230   6.796
10624WAT     H232115   0.788   0.370   6.864
10625WAT      O32116   1.524   1.139   9.074
10625WAT     H132117   1.565   1.212   9.130
10625WAT     H232118   1.594   1.103   9.011
10626WAT      O32119   0.293   0.093   6.891
10626WAT     H132120   0.320   0.189   6.904
10626WAT     H232121   0.194   0.087   6.886
10627WAT      O32122   7.063   0.565   5.440
10627WAT     H132123   7.146   0.513   5.418
10627WAT     H232124   7.034   0.542   5.533
10628WAT      O32125   5.970   8.059   8.687
10628WAT     H132126   6.007   7.992   8.751
10628WAT     H232127   6.008   8.043   8.596
10629WAT      O32128   8.903   8.880   5.378
10629WAT     H132129   8.955   8.845   5.300
10629WAT     H232130   8.818   8.827   5.387
10630WAT      O32131   7.962   7.226   0.266
10630WAT     H132132   8.017   7.166   0.324
10630WAT     H232133   7.909   7.289   0.324
10631WAT      O32134   2.215   6.476   6.291
10631WAT     H132135   2.307   6.446   6.319
10631WAT     H232136   2.150   6.455   6.364
10632WAT      O32137   3.668   8.749   6.543
10632WAT     H132138   3.588   8.739   6.484
10632WAT     H232139   3.691   8.846   6.552
10633WAT      O32140   9.532   3.184   7.936
10633WAT     H132141   9.473   3.262   7.951
10633WAT     H232142   9.611   3.190   7.997
10634WAT      O32143   1.402   2.894   1.664
10634WAT     H132144   1.410   2.910   1.566
10634WAT     H232145   1.306   2.899   1.691
10635WAT      O32146   3.644   5.968   8.985
10635WAT     H132147   3.715   5.947   8.918
10635WAT     H232148   3.554   5.962   8.941
10636WAT      O32149   8.278   1.026   0.383
10636WAT     H132150   8.315   1.032   0.290
10636WAT     H232151   8.180   1.009   0.378
10637WAT      O32152   0.482   3.208   1.401
10637WAT     H132153   0.537   3.287   1.431
10637WAT     H232154   0.415   3.238   1.333
10638WAT      O32155   2.328   0.303   2.057
10638WAT     H132156   2.332   0.220   2.002
10638WAT     H232157   2.233   0.333   2.065
10639WAT      O32158   7.685   7.763   8.075
10639WAT     H132159   7.647   7.838   8.022
10639WAT     H232160   7.753   7.799   8.139
10640WAT      O32161   2.580   3.670   5.002
10640WAT     H132162   2.624   3.581   4.992
10640WAT     H232163   2.637   3.741   4.961
10641WAT      O32164   7.257   0.899   7.252
10641WAT     H132165   7.307   0.944   7.178
10641WAT     H232166   7.292   0.806   7.264
10642WAT      O32167   0.118   1.249   2.645
10642WAT     H132168   0.092   1.323   2.582
10642WAT     H232169   0.132   1.165   2.594
10643WAT      O32170   0.072   4.532   0.121
10643WAT     H132171   0.081   4.472   0.201
10643WAT     H232172   0.128   4.613   0.134
10644WAT      O32173   0.115   2.717   2.250
10644WAT     H132174   0.019   2.723   2.279
10644WAT     H232175   0.135   2.624   2.219
10645WAT      O32176   0.184   2.791   1.787
10645WAT     H132177   0.197   2.818   1.692
10645WAT     H232178   0.268   2.749   1.822
10646WAT      O32179   9.516   1.413   5.250
10646WAT     H132180   9.449   1.407   5.324
10646WAT     H232181   9.482   1.476   5.180
10647WAT      O32182   1.577   6.210   5.759
10647WAT     H132183   1.676   6.225   5.761
10647WAT     H232184   1.542   6.231   5.667
10648WAT      O32185   6.768   7.730   6.791
10648WAT     H132186   6.796   7.803   6.728
10648WAT     H232187   6.768   7.765   6.885
10649WAT      O32188   4.554   7.633   4.734
10649WAT     H132189   4.577   7.676   4.646
10649WAT     H232190   4.487   7.560   4.719
10650WAT      O32191   1.046   8.401   0.185
10650WAT     H132192   1.023   8.470   0.253
10650WAT     H232193   1.101   8.441   0.112
10651WAT      O32194   8.213   8.319   4.069
10651WAT     H132195   8.226   8.348   3.975
10651WAT     H232196   8.277   8.368   4.128
10652WAT      O32197   2.777   4.830   6.721
10652WAT     H132198   2.699   4.818   6.660
10652WAT     H232199   2.751   4.892   6.796
10653WAT      O32200   2.243   8.727   5.823
10653WAT     H132201   2.327   8.771   5.793
10653WAT     H232202   2.180   8.796   5.860
10654WAT      O32203   6.732   6.373   3.583
10654WAT     H132204   6.691   6.385   3.673
10654WAT     H232205   6.751   6.462   3.542
10655WAT      O32206   3.717   8.177   1.577
10655WAT     H132207   3.685   8.226   1.496
10655WAT     H232208   3.797   8.224   1.616
10656WAT      O32209   4.382   4.032   3.286
10656WAT     H132210   4.410   4.101   3.352
10656WAT     H232211   4.454   4.020   3.218
10657WAT      O32212   3.219   0.363   2.302
10657WAT     H132213   3.291   0.387   2.367
10657WAT     H232214   3.153   0.301   2.345
10658WAT      O32215   0.386   8.687   7.443
10658WAT     H132216   0.446   8.641   7.378
10658WAT     H232217   0.402   8.650   7.535
10659WAT      O32218   3.131   7.612   4.596
10659WAT     H132219   3.051   7.582   4.647
10659WAT     H232220   3.212   7.607   4.655
10660WAT      O32221   0.750   4.772   7.166
10660WAT     H132222   0.670   4.716   7.144
10660WAT     H232223   0.722   4.849   7.222
10661WAT      O32224   1.263   3.599   8.708
10661WAT     H132225   1.235   3.547   8.627
10661WAT     H232226   1.280   3.536   8.784
10662WAT      O32227   3.456   4.401   3.937
10662WAT     H132228   3.390   4.461   3.892
10662WAT     H232229   3.547   4.441   3.932
10663WAT      O32230   3.035   9.110   9.448
10663WAT     H132231   3.041   9.183   9.517
10663WAT     H232232   2.944   9.112   9.406
10664WAT      O32233   1.878   2.771   9.247
10664WAT     H132234   1.952   2.838   9.237
10664WAT     H232235   1.917   2.679   9.248
10665WAT      O32236   5.133   2.396   3.200
10665WAT     H132237   5.209   2.373   3.139
10665WAT     H232238   5.168   2.440   3.283
10666WAT      O32239   1.470   4.367   5.877
10666WAT     H132240   1.522   4.339   5.958
10666WAT     H232241   1.525   4.431   5.822
10667WAT      O32242   1.976   6.324   6.107
10667WAT     H132243   1.956   6.226   6.106
10667WAT     H232244   1.906   6.372   6.160
10668WAT      O32245   6.210   5.892   1.008
10668WAT     H132246   6.298   5.925   0.975
10668WAT     H232247   6.198   5.920   1.103
10669WAT      O32248   6.001   9.484   3.951
10669WAT     H132249   5.990   9.577   3.916
10669WAT     H232250   5.916   9.433   3.938
10670WAT      O32251   9.581   4.514   5.356
10670WAT     H132252   9.640   4.515   5.438
10670WAT     H232253   9.628   4.560   5.281
10671WAT      O32254   1.376   7.099   1.648
10671WAT     H132255   1.416   7.188   1.623
10671WAT     H232256   1.300   7.078   1.587
10672WAT      O32257   3.215   4.040   2.543
10672WAT     H132258   3.270   4.114   2.503
10672WAT     H232259   3.177   3.983   2.471
10673WAT      O32260   3.682   6.871   8.232
10673WAT     H132261   3.761   6.810   8.239
10673WAT     H232262   3.694   6.947   8.296
10674WAT      O32263   1.737   5.445   1.554
10674WAT     H132264   1.783   5.365   1.592
10674WAT     H232265   1.789   5.527   1.577
10675WAT      O32266   2.180   1.334   5.311
10675WAT     H132267   2.199   1.415   5.256
10675WAT     H232268   2.081   1.327   5.326
10676WAT      O32269   2.884   8.285   3.543
10676WAT     H132270   2.907   8.202   3.594
10676WAT     H232271   2.894   8.269   3.445
10677WAT      O32272   8.624   6.959   0.025
10677WAT     H132273   8.672   6.927  -0.057
10677WAT     H232274   8.569   6.884   0.063
10678WAT      O32275   0.745   8.371   4.632
10678WAT     H132276   0.720   8.308   4.558
10678WAT     H232277   0.774   8.319   4.712
10679WAT      O32278   0.686   1.553   1.419
10679WAT     H132279   0.609   1.571   1.357
10679WAT     H232280   0.753   1.496   1.372
10680WAT      O32281   1.652   9.721   8.121
10680WAT     H132282   1.660   9.699   8.024
10680WAT     H232283   1.693   9.648   8.176
10681WAT      O32284   1.371   4.697   5.972
10681WAT     H132285   1.390   4.690   5.874
10681WAT     H232286   1.427   4.631   6.022
10682WAT      O32287   7.071   5.233   4.947
10682WAT     H132288   6.987   5.282   4.967
10682WAT     H232289   7.078   5.152   5.005
10683WAT      O32290   7.702   3.872   6.885
10683WAT     H132291   7.730   3.810   6.813
10683WAT     H232292   7.630   3.933   6.850
10684WAT      O32293   0.722   3.218   5.887
10684WAT     H132294   0.821   3.205   5.889
10684WAT     H232295   0.693   3.245   5.795
10685WAT      O32296   6.458   3.159   4.961
10685WAT     H132297   6.461   3.227   5.035
10685WAT     H232298   6.446   3.068   5.000
10686WAT      O32299   3.412   0.179   7.934
10686WAT     H132300   3.471   0.256   7.914
10686WAT     H232301   3.320   0.212   7.957
10687WAT      O32302   5.447   3.426   0.128
10687WAT     H132303   5.543   3.415   0.104
10687WAT     H232304   5.394   3.349   0.093
10688WAT      O32305   2.725   9.084   5.850
10688WAT     H132306   2.718   9.174   5.807
10688WAT     H232307   2.819   9.065   5.876
10689WAT      O32308   7.039   6.350   1.211
10689WAT     H132309   6.971   6.355   1.139
10689WAT     H232310   7.130   6.348   1.171
10690WAT      O32311   8.797   9.827   1.190
10690WAT     H132312   8.895   9.811   1.202
10690WAT     H232313   8.746   9.750   1.227
10691WAT      O32314   5.442   8.708   2.644
10691WAT     H132315   5.461   8.666   2.555
10691WAT     H232316   5.521   8.760   2.674
10692WAT      O32317   3.061   7.131   2.389
10692WAT     H132318   3.082   7.035   2.373
10692WAT     H232319   3.008   7.141   2.473
10693WAT      O32320   1.372   3.783   8.073
10693WAT     H132321   1.399   3.853   8.139
10693WAT     H232322   1.449   3.723   8.054
10694WAT      O32323   7.034   5.364   9.347
10694WAT     H132324   7.069   5.445   9.393
10694WAT     H232325   7.079   5.282   9.383
10695WAT      O32326   9.825   6.953   9.621
10695WAT     H132327   9.912   6.988   9.656
10695WAT     H232328   9.831   6.854   9.609
10696WAT      O32329   1.522   1.592   3.401
10696WAT     H132330   1.566   1.503   3.412
10696WAT     H232331   1.530   1.622   3.306
10697WAT      O32332   3.229   9.675   2.130
10697WAT     H132333   3.267   9.733   2.058
10697WAT     H232334   3.222   9.727   2.215
10698WAT      O32335   6.917   9.462   1.426
10698WAT     H132336   6.949   9.542   1.375
10698WAT     H232337   6.817   9.461   1.429
10699WAT      O32338   3.587   9.303   5.626
10699WAT     H132339   3.576   9.209   5.593
10699WAT     H232340   3.684   9.322   5.640
10700WAT      O32341   5.847   2.214   5.592
10700WAT     H132342   5.778   2.284   5.573
10700WAT     H232343   5.810   2.123   5.574
10701WAT      O32344   9.218   5.103   2.896
10701WAT     H132345   9.133   5.062   2.928
10701WAT     H232346   9.198   5.172   2.827
10702WAT      O32347   1.192   5.878   0.708
10702WAT     H132348   1.220   5.836   0.622
10702WAT     H232349   1.139   5.961   0.688
10703WAT      O32350   2.709   4.944   7.956
10703WAT     H132351   2.758   5.017   7.907
10703WAT     H232352   2.774   4.872   7.981
10704WAT      O32353   3.045   5.804   0.218
10704WAT     H132354   3.069   5.835   0.310
10704WAT     H232355   3.043   5.883   0.157
10705WAT      O32356   7.105   4.247   9.420
10705WAT     H132357   7.130   4.259   9.324
10705WAT     H232358   7.182   4.274   9.477
10706WAT      O32359   1.664   7.995   6.447
10706WAT     H132360   1.701   8.053   6.520
10706WAT     H232361   1.595   7.934   6.485
10707WAT      O32362   3.463   3.837   3.912
10707WAT     H132363   3.553   3.874   3.887
10707WAT     H232364   3.409   3.907   3.958
10708WAT      O32365   3.153   7.229   2.853
10708WAT     H132366   3.155   7.131   2.831
10708WAT     H232367   3.129   7.281   2.771
10709WAT      O32368   0.088   3.578   8.277
10709WAT     H132369   0.054   3.509   8.340
10709WAT     H232370   0.167   3.542   8.227
10710WAT      O32371   1.762   9.577   4.130
10710WAT     H132372   1.700   9.626   4.190
10710WAT     H232373   1.813   9.509   4.183
10711WAT      O32374   6.426   7.094   5.044
10711WAT     H132375   6.397   7.004   5.078
10711WAT     H232376   6.360   7.163   5.073
10712WAT      O32377   7.001   5.523   6.524
10712WAT     H132378   7.099   5.543   6.524
10712WAT     H232379   6.967   5.526   6.430
10713WAT      O32380   9.093   9.580   2.032
10713WAT     H132381   9.028   9.567   2.108
10713WAT     H232382   9.185   9.589   2.069
10714WAT      O32383   0.380   0.371   8.782
10714WAT     H132384   0.337   0.322   8.858
10714WAT     H232385   0.316   0.439   8.746
10715WAT      O32386   7.685   6.849   7.937
10715WAT     H132387   7.700   6.930   7.993
10715WAT     H232388   7.616   6.868   7.867
10716WAT      O32389   0.164   5.377   9.036
10716WAT     H132390   0.107   5.443   8.987
10716WAT     H232391   0.105   5.310   9.082
10717WAT      O32392   5.151   3.983   8.644
10717WAT     H132393   5.063   3.955   8.682
10717WAT     H232394   5.164   4.081   8.661
10718WAT      O32395   4.066   1.243   1.536
10718WAT     H132396   4.101   1.261   1.444
10718WAT     H232397   3.999   1.169   1.532
10719WAT      O32398   4.093   6.539   4.478
10719WAT     H132399   4.091   6.573   4.384
10719WAT     H232400   4.011   6.569   4.526
10720WAT      O32401   1.952   8.934   6.362
10720WAT     H132402   1.932   9.007   6.427
10720WAT     H232403   2.019   8.966   6.295
10721WAT      O32404   7.578   5.260   0.545
10721WAT     H132405   7.638   5.189   0.509
10721WAT     H232406   7.505   5.279   0.479
10722WAT      O32407   0.803   0.261   5.312
10722WAT     H132408   0.749   0.264   5.396
10722WAT     H232409   0.900   0.256   5.334
10723WAT      O32410   6.763   9.579   4.850
10723WAT     H132411   6.835   9.558   4.784
10723WAT     H232412   6.710   9.497   4.870
10724WAT      O32413   5.760   4.542   4.217
10724WAT     H132414   5.707   4.506   4.294
10724WAT     H232415   5.699   4.594   4.157
10725WAT      O32416   9.079   9.794   8.023
10725WAT     H132417   9.081   9.738   7.940
10725WAT     H232418   9.128   9.880   8.007
10726WAT      O32419   5.513   8.556   2.433
10726WAT     H132420   5.609   8.539   2.455
10726WAT     H232421   5.470   8.472   2.402
10727WAT      O32422   8.250   3.794   5.335
10727WAT     H132423   8.203   3.882   5.325
10727WAT     H232424   8.316   3.783   5.261
10728WAT      O32425   6.949   2.905   7.969
10728WAT     H132426   6.943   3.002   7.948
10728WAT     H232427   6.957   2.853   7.884
10729WAT      O32428   3.661   4.705   1.191
10729WAT     H132429   3.719   4.785   1.179
10729WAT     H232430   3.688   4.655   1.273
10730WAT      O32431   2.433   3.590   6.234
10730WAT     H132432   2.366   3.524   6.198
10730WAT     H232433   2.429   3.590   6.333
10731WAT      O32434   4.819   9.341   7.750
10731WAT     H132435   4.800   9.243   7.746
10731WAT     H232436   4.737   9.390   7.780
10732WAT      O32437   6.567   7.868   2.855
10732WAT     H132438   6.649   7.904   2.811
10732WAT     H232439   6.582   7.864   2.954
10733WAT      O32440   4.186   5.625   9.487
10733WAT     H132441   4.214   5.537   9.450
10733WAT     H232442   4.089   5.621   9.513
10734WAT      O32443   7.377   2.308   2.540
10734WAT     H132444   7.464   2.328   2.585
10734WAT     H232445   7.302   2.341   2.597
10735WAT      O32446   5.586   1.500   2.088
10735WAT     H132447   5.586   1.408   2.127
10735WAT     H232448   5.492   1.533   2.082
10736WAT      O32449   0.885   9.425   4.941
10736WAT     H132450   0.951   9.352   4.960
10736WAT     H232451   0.902   9.502   5.002
10737WAT      O32452   5.817   9.773   1.167
10737WAT     H132453   5.876   9.748   1.244
10737WAT     H232454   5.787   9.690   1.120
10738WAT      O32455   0.398   8.340   6.659
10738WAT     H132456   0.328   8.411   6.671
10738WAT     H232457   0.447   8.326   6.745
10739WAT      O32458   1.875   1.941   3.483
10739WAT     H132459   1.813   1.912   3.409
10739WAT     H232460   1.825   2.001   3.545
10740WAT      O32461   7.506   6.785   9.319
10740WAT     H132462   7.549   6.775   9.230
10740WAT     H232463   7.421   6.838   9.310
10741WAT      O32464   6.606   7.611   6.361
10741WAT     H132465   6.582   7.621   6.457
10741WAT     H232466   6.688   7.664   6.342
10742WAT      O32467   0.168   2.019   4.387
10742WAT     H132468   0.253   2.068   4.367
10742WAT     H232469   0.146   2.030   4.484
10743WAT      O32470   4.886   1.271   1.842
10743WAT     H132471   4.881   1.228   1.932
10743WAT     H232472   4.808   1.333   1.830
10744WAT      O32473   2.055   5.249   6.577
10744WAT     H132474   1.962   5.286   6.570
10744WAT     H232475   2.060   5.162   6.527
10745WAT      O32476   0.887   9.319   1.239
10745WAT     H132477   0.943   9.401   1.226
10745WAT     H232478   0.887   9.264   1.155
10746WAT      O32479   7.769   0.616   7.359
10746WAT     H132480   7.853   0.562   7.363
10746WAT     H232481   7.777   0.685   7.287
10747WAT      O32482   9.658   6.555   8.107
10747WAT     H132483   9.581   6.581   8.048
10747WAT     H232484   9.627   6.550   8.202
10748WAT      O32485   4.345   4.225   6.074
10748WAT     H132486   4.306   4.317   6.082
10748WAT     H232487   4.400   4.220   5.991
10749WAT      O32488   4.444   8.459   6.029
10749WAT     H132489   4.389   8.384   5.993
10749WAT     H232490   4.416   8.479   6.123
10750WAT      O32491   0.605   1.322   0.977
10750WAT     H132492   0.681   1.257   0.975
10750WAT     H232493   0.530   1.284   1.032
10751WAT      O32494   2.864   7.731   3.514
10751WAT     H132495   2.792   7.710   3.449
10751WAT     H232496   2.942   7.770   3.466
10752WAT      O32497   4.528   0.042   1.878
10752WAT     H132498   4.440   0.013   1.917
10752WAT     H232499   4.512   0.103   1.801
10753WAT      O32500   5.306   0.590   2.865
10753WAT     H132501   5.390   0.565   2.819
10753WAT     H232502   5.296   0.536   2.949
10754WAT      O32503   1.187   8.792   0.324
10754WAT     H132504   1.174   8.776   0.226
10754WAT     H232505   1.282   8.775   0.349
10755WAT      O32506   3.474   1.213   3.907
10755WAT     H132507   3.477   1.160   3.992
10755WAT     H232508   3.394   1.273   3.908
10756WAT      O32509   1.209   7.537   1.203
10756WAT     H132510   1.187   7.530   1.106
10756WAT     H232511   1.252   7.453   1.234
10757WAT      O32512   8.266   8.105   3.425
10757WAT     H132513   8.266   8.139   3.519
10757WAT     H232514   8.333   8.031   3.417
10758WAT      O32515   4.297   8.300   7.398
10758WAT     H132516   4.237   8.380   7.398
10758WAT     H232517   4.273   8.240   7.322
10759WAT      O32518   4.464   9.023   5.507
10759WAT     H132519   4.419   8.937   5.483
10759WAT     H232520   4.561   9.017   5.486
10760WAT      O32521   7.439   3.477   9.238
10760WAT     H132522   7.467   3.426   9.319
10760WAT     H232523   7.344   3.508   9.250
10761WAT      O32524   1.335   2.353   8.286
10761WAT     H132525   1.324   2.396   8.196
10761WAT     H232526   1.308   2.257   8.280
10762WAT      O32527   9.756   4.587   9.032
10762WAT     H132528   9.847   4.567   8.995
10762WAT     H232529   9.764   4.629   9.122
10763WAT      O32530   7.797   2.610   8.716
10763WAT     H132531   7.721   2.563   8.760
10763WAT     H232532   7.882   2.559   8.732
10764WAT      O32533   8.810   9.361   6.895
10764WAT     H132534   8.806   9.341   6.993
10764WAT     H232535   8.875   9.299   6.851
10765WAT      O32536   2.846   0.865   0.911
10765WAT     H132537   2.908   0.829   0.841
10765WAT     H232538   2.898   0.924   0.973
10766WAT      O32539   1.080   7.531   2.639
10766WAT     H132540   0.991   7.492   2.616
10766WAT     H232541   1.123   7.566   2.556
10767WAT      O32542   9.481   6.412   2.485
10767WAT     H132543   9.520   6.320   2.492
10767WAT     H232544   9.548   6.479   2.518
10768WAT      O32545   9.612   8.205   4.702
10768WAT     H132546   9.665   8.123   4.726
10768WAT     H232547   9.544   8.222   4.772
10769WAT      O32548   9.543   1.231   9.531
10769WAT     H132549   9.530   1.217   9.433
10769WAT     H232550   9.485   1.307   9.561
10770WAT      O32551   2.110   6.457   4.853
10770WAT     H132552   2.103   6.449   4.754
10770WAT     H232553   2.064   6.380   4.896
10771WAT      O32554   1.545   4.127   4.297
10771WAT     H132555   1.597   4.184   4.361
10771WAT     H232556   1.512   4.184   4.221
10772WAT      O32557   7.066   2.574   5.000
10772WAT     H132558   7.111   2.631   4.930
10772WAT     H232559   7.136   2.532   5.058
10773WAT      O32560   6.438   5.505   8.234
10773WAT     H132561   6.437   5.535   8.330
10773WAT     H232562   6.532   5.487   8.205
10774WAT      O32563   5.577   2.603   3.273
10774WAT     H132564   5.577   2.702   3.282
10774WAT     H232565   5.653   2.573   3.216
10775WAT      O32566   8.744   6.011   0.746
10775WAT     H132567   8.718   5.916   0.726
10775WAT     H232568   8.689   6.073   0.690
10776WAT      O32569   7.087   9.266   0.885
10776WAT     H132570   7.104   9.175   0.847
10776WAT     H232571   7.108   9.267   0.983
10777WAT      O32572   5.984   3.526   4.461
10777WAT     H132573   6.050   3.467   4.506
10777WAT     H232574   6.027   3.570   4.382
10778WAT      O32575   5.540   9.125   7.249
10778WAT     H132576   5.567   9.175   7.167
10778WAT     H232577   5.606   9.143   7.322
10779WAT      O32578   6.753   6.501   2.971
10779WAT     H132579   6.769   6.590   2.929
10779WAT     H232580   6.658   6.474   2.956
10780WAT      O32581   0.578   1.608   4.616
10780WAT     H132582   0.486   1.570   4.623
10780WAT     H232583   0.578   1.684   4.552
10781WAT      O32584   0.014   5.865   6.841
10781WAT     H132585  -0.021   5.861   6.747
10781WAT     H232586   0.046   5.958   6.860
10782WAT      O32587   6.070   9.788   1.647
10782WAT     H132588   6.094   9.863   1.709
10782WAT     H232589   5.995   9.735   1.687
10783WAT      O32590   6.741   1.532   4.579
10783WAT     H132591   6.833   1.554   4.614
10783WAT     H232592   6.675   1.541   4.653
10784WAT      O32593   3.186   7.116   3.862
10784WAT     H132594   3.218   7.028   3.897
10784WAT     H232595   3.263   7.169   3.829
10785WAT      O32596   6.470   6.468   2.920
10785WAT     H132597   6.405   6.430   2.987
10785WAT     H232598   6.453   6.566   2.909
10786WAT      O32599   2.870   6.148   0.874
10786WAT     H132600   2.865   6.053   0.908
10786WAT     H232601   2.848   6.150   0.777
10787WAT      O32602   2.201   2.359   8.541
10787WAT     H132603   2.116   2.316   8.574
10787WAT     H232604   2.178   2.438   8.485
10788WAT      O32605   4.174   3.814   5.948
10788WAT     H132606   4.149   3.739   6.009
10788WAT     H232607   4.269   3.802   5.919
10789WAT      O32608   6.631   4.123   9.815
10789WAT     H132609   6.617   4.079   9.904
10789WAT     H232610   6.685   4.063   9.756
10790WAT      O32611   1.604   1.802   2.959
10790WAT     H132612   1.578   1.890   2.917
10790WAT     H232613   1.584   1.728   2.895
10791WAT      O32614   1.836   1.737   2.643
10791WAT     H132615   1.848   1.818   2.586
10791WAT     H232616   1.842   1.763   2.739
10792WAT      O32617   1.299   7.182   1.287
10792WAT     H132618   1.275   7.176   1.384
10792WAT     H232619   1.342   7.096   1.259
10793WAT      O32620   9.748   1.245   9.726
10793WAT     H132621   9.819   1.178   9.702
10793WAT     H232622   9.672   1.238   9.661
10794WAT      O32623   6.828   4.368   5.423
10794WAT     H132624   6.852   4.307   5.347
10794WAT     H232625   6.823   4.315   5.508
10795WAT      O32626   7.080   2.228   4.985
10795WAT     H132627   7.049   2.295   4.917
10795WAT     H232628   7.151   2.171   4.944
10796WAT      O32629   0.173   5.209   0.805
10796WAT     H132630   0.234   5.146   0.852
10796WAT     H232631   0.220   5.250   0.727
10797WAT      O32632   2.979   6.560   8.632
10797WAT     H132633   2.947   6.593   8.543
10797WAT     H232634   2.905   6.509   8.677
10798WAT      O32635   3.833   5.210   4.888
10798WAT     H132636   3.893   5.283   4.919
10798WAT     H232637   3.887   5.127   4.872
10799WAT      O32638   8.986   3.267   9.551
10799WAT     H132639   8.968   3.170   9.570
10799WAT     H232640   8.988   3.318   9.637
10800WAT      O32641   8.833   8.994   7.146
10800WAT     H132642   8.740   9.006   7.112
10800WAT     H232643   8.830   8.952   7.237
10801WAT      O32644   0.052   6.244   5.686
10801WAT     H132645   0.093   6.249   5.595
10801WAT     H232646   0.064   6.152   5.723
10802WAT      O32647   9.560   1.986   9.703
10802WAT     H132648   9.649   2.019   9.736
10802WAT     H232649   9.534   1.904   9.754
10803WAT      O32650   8.304   6.988   0.588
10803WAT     H132651   8.381   6.925   0.576
10803WAT     H232652   8.218   6.937   0.581
10804WAT      O32653   7.519   8.168   5.490
10804WAT     H132654   7.505   8.073   5.464
10804WAT     H232655   7.489   8.228   5.416
10805WAT      O32656   8.775   0.462   6.507
10805WAT     H132657   8.687   0.472   6.459
10805WAT     H232658   8.830   0.544   6.493
10806WAT      O32659   1.310   8.769   5.208
10806WAT     H132660   1.231   8.817   5.247
10806WAT     H232661   1.329   8.687   5.262
10807WAT      O32662   8.018   1.807   1.874
10807WAT     H132663   7.966   1.730   1.911
10807WAT     H232664   7.980   1.833   1.785
10808WAT      O32665   3.194   1.586   6.674
10808WAT     H132666   3.194   1.560   6.770
10808WAT     H232667   3.106   1.626   6.650
10809WAT      O32668   1.700   2.486   0.216
10809WAT     H132669   1.636   2.560   0.199
10809WAT     H232670   1.649   2.403   0.242
10810WAT      O32671   3.403   0.953   7.845
10810WAT     H132672   3.326   0.912   7.893
10810WAT     H232673   3.463   0.999   7.911
10811WAT      O32674   1.363   3.573   6.294
10811WAT     H132675   1.377   3.490   6.241
10811WAT     H232676   1.266   3.599   6.290
10812WAT      O32677   1.077   2.021   2.931
10812WAT     H132678   1.022   2.059   2.856
10812WAT     H232679   1.106   1.929   2.908
10813WAT      O32680   6.458   5.319   1.932
10813WAT     H132681   6.415   5.380   1.998
10813WAT     H232682   6.411   5.230   1.933
10814WAT      O32683   1.232   5.158   1.948
10814WAT     H132684   1.213   5.069   1.907
10814WAT     H232685   1.291   5.211   1.887
10815WAT      O32686   9.348   1.101   4.802
10815WAT     H132687   9.307   1.028   4.747
10815WAT     H232688   9.404   1.159   4.743
10816WAT      O32689   7.933   4.099   4.883
10816WAT     H132690   8.033   4.107   4.888
10816WAT     H232691   7.908   4.030   4.816
10817WAT      O32692   0.582   9.220   8.791
10817WAT     H132693   0.508   9.159   8.764
10817WAT     H232694   0.649   9.169   8.845
10818WAT      O32695   5.305   9.273   8.338
10818WAT     H132696   5.397   9.285   8.375
10818WAT     H232697   5.273   9.181   8.357
10819WAT      O32698   8.198   7.516   6.795
10819WAT     H132699   8.272   7.580   6.776
10819WAT     H232700   8.129   7.523   6.722
10820WAT      O32701   3.135   2.616   1.048
10820WAT     H132702   3.055   2.667   1.016
10820WAT     H232703   3.107   2.548   1.116
10821WAT      O32704   0.217   7.204   4.127
10821WAT     H132705   0.228   7.292   4.173
10821WAT     H232706   0.261   7.208   4.037
10822WAT      O32707   2.394   7.677   2.676
10822WAT     H132708   2.361   7.593   2.633
10822WAT     H232709   2.329   7.707   2.745
10823WAT      O32710   8.839   6.930   0.212
10823WAT     H132711   8.769   6.969   0.152
10823WAT     H232712   8.796   6.877   0.285
10824WAT      O32713   7.887   7.785   3.009
10824WAT     H132714   7.884   7.714   2.938
10824WAT     H232715   7.822   7.761   3.081
10825WAT      O32716   7.696   3.581   3.533
10825WAT     H132717   7.795   3.585   3.547
10825WAT     H232718   7.649   3.608   3.617
10826WAT      O32719   0.177   2.451   0.027
10826WAT     H132720   0.264   2.457  -0.021
10826WAT     H232721   0.112   2.400  -0.028
10827WAT      O32722   0.738   7.026   6.430
10827WAT     H132723   0.833   6.997   6.415
10827WAT     H232724   0.678   6.946   6.423
10828WAT      O32725   8.860   1.961   0.173
10828WAT     H132726   8.846   2.036   0.108
10828WAT     H232727   8.913   1.889   0.129
10829WAT      O32728   8.776   0.081   3.248
10829WAT     H132729   8.744   0.081   3.343
10829WAT     H232730   8.813  -0.009   3.225
10830WAT      O32731   0.318   1.602   8.793
10830WAT     H132732   0.262   1.673   8.750
10830WAT     H232733   0.404   1.642   8.825
10831WAT      O32734   1.780   9.105   1.495
10831WAT     H132735   1.840   9.047   1.440
10831WAT     H232736   1.754   9.056   1.578
10832WAT      O32737   3.426   5.651   0.722
10832WAT     H132738   3.410   5.706   0.803
10832WAT     H232739   3.373   5.566   0.728
10833WAT      O32740   6.047   8.227   5.763
10833WAT     H132741   6.105   8.180   5.697
10833WAT     H232742   5.952   8.197   5.750
10834WAT      O32743   7.270   0.021   7.198
10834WAT     H132744   7.366   0.009   7.220
10834WAT     H232745   7.228   0.085   7.262
10835WAT      O32746   0.446   9.275   9.205
10835WAT     H132747   0.532   9.230   9.181
10835WAT     H232748   0.453   9.373   9.187
10836WAT      O32749   2.666   6.535   0.775
10836WAT     H132750   2.735   6.568   0.710
10836WAT     H232751   2.582   6.513   0.726
10837WAT      O32752   7.784   0.730   3.316
10837WAT     H132753   7.769   0.783   3.399
10837WAT     H232754   7.803   0.791   3.239
10838WAT      O32755   4.600   7.537   7.054
10838WAT     H132756   4.640   7.468   6.994
10838WAT     H232757   4.608   7.627   7.010
10839WAT      O32758   6.178   7.230   9.801
10839WAT     H132759   6.254   7.173   9.771
10839WAT     H232760   6.125   7.261   9.722
10840WAT      O32761   8.113   3.152   8.924
10840WAT     H132762   8.051   3.128   8.998
10840WAT     H232763   8.103   3.249   8.902
10841WAT      O32764   9.710   8.001   4.937
10841WAT     H132765   9.621   7.960   4.957
10841WAT     H232766   9.742   7.971   4.847
10842WAT      O32767   9.664   2.349   9.010
10842WAT     H132768   9.729   2.414   8.972
10842WAT     H232769   9.574   2.362   8.969
10843WAT      O32770   2.483   6.401   8.459
10843WAT     H132771   2.443   6.446   8.539
10843WAT     H232772   2.453   6.447   8.376
10844WAT      O32773   1.509   7.678   4.123
10844WAT     H132774   1.412   7.659   4.107
10844WAT     H232775   1.527   7.775   4.107
10845WAT      O32776   6.927   2.599   9.485
10845WAT     H132777   6.860   2.638   9.421
10845WAT     H232778   6.879   2.547   9.555
10846WAT      O32779   7.507   6.134   9.022
10846WAT     H132780   7.423   6.189   9.017
10846WAT     H232781   7.586   6.195   9.025
10847WAT      O32782   4.305   6.534   1.702
10847WAT     H132783   4.274   6.616   1.655
10847WAT     H232784   4.337   6.467   1.635
10848WAT      O32785   7.648   0.192   4.335
10848WAT     H132786   7.553   0.195   4.303
10848WAT     H232787   7.653   0.141   4.420
10849WAT      O32788   9.211   6.594   8.011
10849WAT     H132789   9.119   6.634   8.015
10849WAT     H232790   9.226   6.536   8.091
10850WAT      O32791   7.777   7.471   6.038
10850WAT     H132792   7.783   7.374   6.062
10850WAT     H232793   7.689   7.489   5.993
10851WAT      O32794   1.179   8.751   8.268
10851WAT     H132795   1.252   8.768   8.334
10851WAT     H232796   1.220   8.724   8.180
10852WAT      O32797   7.262   3.109   0.285
10852WAT     H132798   7.216   3.195   0.306
10852WAT     H232799   7.358   3.126   0.264
10853WAT      O32800   7.062   3.110   4.797
10853WAT     H132801   7.029   3.016   4.795
10853WAT     H232802   7.059   3.149   4.705
10854WAT      O32803   5.997   0.790   1.904
10854WAT     H132804   6.026   0.847   1.827
10854WAT     H232805   5.904   0.813   1.929
10855WAT      O32806   3.168   1.525   1.750
10855WAT     H132807   3.079   1.551   1.787
10855WAT     H232808   3.237   1.530   1.822
10856WAT      O32809   6.912   8.694   7.888
10856WAT     H132810   6.932   8.738   7.976
10856WAT     H232811   6.915   8.763   7.815
10857WAT      O32812   7.233   7.733   1.526
10857WAT     H132813   7.217   7.827   1.497
10857WAT     H232814   7.292   7.733   1.607
10858WAT      O32815   9.217   6.354   5.401
10858WAT     H132816   9.185   6.448   5.414
10858WAT     H232817   9.182   6.296   5.474
10859WAT      O32818   6.651   4.513   7.638
10859WAT     H132819   6.736   4.554   7.604
10859WAT     H232820   6.634   4.428   7.590
10860WAT      O32821   2.262   8.266   6.120
10860WAT     H132822   2.274   8.358   6.083
10860WAT     H232823   2.261   8.271   6.220
10861WAT      O32824   9.501   4.865   5.590
10861WAT     H132825   9.450   4.828   5.512
10861WAT     H232826   9.564   4.936   5.558
10862WAT      O32827   4.532   7.086   1.500
10862WAT     H132828   4.510   7.102   1.404
10862WAT     H232829   4.507   6.992   1.524
10863WAT      O32830   0.449   7.649   2.120
10863WAT     H132831   0.503   7.692   2.047
10863WAT     H232832   0.444   7.550   2.103
10864WAT      O32833   9.505   7.898   6.663
10864WAT     H132834   9.570   7.871   6.734
10864WAT     H232835   9.442   7.823   6.644
10865WAT      O32836   7.946   6.505   5.447
10865WAT     H132837   7.979   6.433   5.386
10865WAT     H232838   7.849   6.521   5.429
10866WAT      O32839   2.443   1.111   9.236
10866WAT     H132840   2.517   1.094   9.302
10866WAT     H232841   2.471   1.078   9.146
10867WAT      O32842   2.038   9.594   6.856
10867WAT     H132843   2.111   9.590   6.788
10867WAT     H232844   2.078   9.601   6.947
10868WAT      O32845   5.204   7.661   7.412
10868WAT     H132846   5.221   7.756   7.385
10868WAT     H232847   5.218   7.602   7.333
10869WAT      O32848   1.614   6.449   4.850
10869WAT     H132849   1.683   6.509   4.809
10869WAT     H232850   1.532   6.449   4.793
10870WAT      O32851   8.259   4.992   6.348
10870WAT     H132852   8.252   5.085   6.386
10870WAT     H232853   8.325   4.992   6.273
10871WAT      O32854   6.576   8.453   2.032
10871WAT     H132855   6.649   8.471   2.098
10871WAT     H232856   6.615   8.425   1.945
10872WAT      O32857   5.038   9.388   5.667
10872WAT     H132858   5.000   9.377   5.759
10872WAT     H232859   5.048   9.485   5.646
10873WAT      O32860   7.192   1.585   2.485
10873WAT     H132861   7.235   1.658   2.432
10873WAT     H232862   7.130   1.533   2.426
10874WAT      O32863   2.275   9.512   2.149
10874WAT     H132864   2.272   9.567   2.066
10874WAT     H232865   2.347   9.443   2.141
10875WAT      O32866   7.958   6.082   9.127
10875WAT     H132867   7.934   6.176   9.100
10875WAT     H232868   7.999   6.084   9.218
10876WAT      O32869   2.004   0.152   2.149
10876WAT     H132870   1.993   0.222   2.079
10876WAT     H232871   1.991   0.193   2.240
10877WAT      O32872   9.481   1.091   9.748
10877WAT     H132873   9.519   1.140   9.670
10877WAT     H232874   9.523   1.001   9.755
10878WAT      O32875   3.179   2.412   8.466
10878WAT     H132876   3.260   2.401   8.524
10878WAT     H232877   3.112   2.341   8.487
10879WAT      O32878   7.134   8.791   8.658
10879WAT     H132879   7.096   8.874   8.699
10879WAT     H232880   7.132   8.799   8.558
10880WAT      O32881   1.792   4.088   7.714
10880WAT     H132882   1.833   4.073   7.804
10880WAT     H232883   1.847   4.042   7.644
10881WAT      O32884   2.741   5.759   4.587
10881WAT     H132885   2.705   5.823   4.519
10881WAT     H232886   2.712   5.667   4.565
10882WAT      O32887   1.098   2.997   0.356
10882WAT     H132888   1.063   2.921   0.302
10882WAT     H232889   1.197   3.006   0.340
10883WAT      O32890   5.677   3.672   5.270
10883WAT     H132891   5.749   3.608   5.244
10883WAT     H232892   5.595   3.655   5.215
10884WAT      O32893   7.067   0.599   4.533
10884WAT     H132894   7.084   0.614   4.631
10884WAT     H232895   7.133   0.533   4.498
10885WAT      O32896   0.866   1.008   1.953
10885WAT     H132897   0.876   0.924   1.899
10885WAT     H232898   0.944   1.068   1.935
10886WAT      O32899   6.899   1.052   5.743
10886WAT     H132900   6.934   1.145   5.728
10886WAT     H232901   6.888   1.005   5.656
10887WAT      O32902   3.431   2.997   9.358
10887WAT     H132903   3.527   3.002   9.388
10887WAT     H232904   3.371   3.009   9.436
10888WAT      O32905   7.604   1.217   6.807
10888WAT     H132906   7.608   1.248   6.712
10888WAT     H232907   7.673   1.265   6.861
10889WAT      O32908   1.442   7.779   7.603
10889WAT     H132909   1.487   7.847   7.660
10889WAT     H232910   1.346   7.803   7.592
10890WAT      O32911   7.442   9.368   6.191
10890WAT     H132912   7.449   9.365   6.092
10890WAT     H232913   7.359   9.419   6.218
10891WAT      O32914   2.280   6.946   0.035
10891WAT     H132915   2.207   6.896  -0.010
10891WAT     H232916   2.354   6.883   0.058
10892WAT      O32917   0.853   4.846   9.460
10892WAT     H132918   0.849   4.827   9.362
10892WAT     H232919   0.763   4.831   9.501
10893WAT      O32920   4.135   3.575   5.621
10893WAT     H132921   4.085   3.589   5.536
10893WAT     H232922   4.220   3.627   5.619
10894WAT      O32923   6.658   6.260   3.336
10894WAT     H132924   6.696   6.307   3.415
10894WAT     H232925   6.726   6.256   3.263
10895WAT      O32926   6.216   1.313   8.909
10895WAT     H132927   6.126   1.270   8.917
10895WAT     H232928   6.212   1.406   8.945
10896WAT      O32929   7.077   3.294   2.115
10896WAT     H132930   7.132   3.343   2.049
10896WAT     H232931   6.987   3.273   2.076
10897WAT      O32932   6.915   1.243   9.331
10897WAT     H132933   6.977   1.164   9.327
10897WAT     H232934   6.908   1.276   9.425
10898WAT      O32935   5.033   9.185   8.548
10898WAT     H132936   5.019   9.283   8.534
10898WAT     H232937   4.995   9.158   8.637
10899WAT      O32938   7.327   5.759   0.675
10899WAT     H132939   7.423   5.776   0.651
10899WAT     H232940   7.318   5.754   0.774
10900WAT      O32941   3.329   7.347   4.035
10900WAT     H132942   3.345   7.446   4.033
10900WAT     H232943   3.372   7.304   3.956
10901WAT      O32944   5.976   4.095   1.657
10901WAT     H132945   6.055   4.105   1.718
10901WAT     H232946   5.975   4.002   1.619
10902WAT      O32947   6.132   7.037   0.723
10902WAT     H132948   6.136   6.948   0.768
10902WAT     H232949   6.219   7.085   0.736
10903WAT      O32950   9.080   3.240   7.260
10903WAT     H132951   9.134   3.160   7.235
10903WAT     H232952   9.095   3.262   7.356
10904WAT      O32953   4.901   0.876   2.524
10904WAT     H132954   4.878   0.779   2.532
10904WAT     H232955   4.971   0.898   2.591
10905WAT      O32956   6.324   4.655   2.487
10905WAT     H132957   6.283   4.569   2.516
10905WAT     H232958   6.356   4.706   2.567
10906WAT      O32959   8.363   5.792   9.725
10906WAT     H132960   8.365   5.785   9.825
10906WAT     H232961   8.280   5.839   9.697
10907WAT      O32962   8.116   9.676   7.608
10907WAT     H132963   8.075   9.712   7.524
10907WAT     H232964   8.128   9.751   7.673
10908WAT      O32965   1.989   2.616   1.875
10908WAT     H132966   2.041   2.677   1.815
10908WAT     H232967   1.896   2.607   1.841
10909WAT      O32968   2.725   1.870   3.652
10909WAT     H132969   2.632   1.870   3.690
10909WAT     H232970   2.720   1.872   3.553
10910WAT      O32971   7.601   2.434   5.691
10910WAT     H132972   7.573   2.505   5.627
10910WAT     H232973   7.701   2.429   5.694
10911WAT      O32974   7.150   4.357   8.784
10911WAT     H132975   7.170   4.259   8.785
10911WAT     H232976   7.190   4.401   8.864
10912WAT      O32977   5.452   3.980   5.443
10912WAT     H132978   5.411   4.068   5.467
10912WAT     H232979   5.387   3.906   5.460
10913WAT      O32980   5.143   5.821   5.804
10913WAT     H132981   5.075   5.749   5.816
10913WAT     H232982   5.102   5.910   5.826
10914WAT      O32983   0.883   0.526   1.276
10914WAT     H132984   0.882   0.578   1.190
10914WAT     H232985   0.972   0.482   1.287
10915WAT      O32986   7.701   3.737   7.725
10915WAT     H132987   7.662   3.728   7.633
10915WAT     H232988   7.799   3.719   7.721
10916WAT      O32989   9.247   8.567   4.368
10916WAT     H132990   9.211   8.623   4.294
10916WAT     H232991   9.335   8.529   4.341
10917WAT      O32992   8.078   6.507   6.032
10917WAT     H132993   8.010   6.436   6.045
10917WAT     H232994   8.036   6.588   5.990
10918WAT      O32995   6.839   1.054   8.417
10918WAT     H132996   6.833   1.128   8.485
10918WAT     H232997   6.797   0.971   8.454
10919WAT      O32998   4.640   5.479   0.197
10919WAT     H132999   4.707   5.502   0.126
10919WAT     H233000   4.609   5.562   0.243
10920WAT      O33001   1.357   0.087   7.721
10920WAT     H133002   1.425   0.035   7.668
10920WAT     H233003   1.399   0.118   7.806
10921WAT      O33004   0.791   6.086   3.813
10921WAT     H133005   0.877   6.086   3.865
10921WAT     H233006   0.717   6.052   3.871
10922WAT      O33007   8.449   9.431   6.249
10922WAT     H133008   8.432   9.347   6.301
10922WAT     H233009   8.542   9.428   6.211
10923WAT      O33010   5.219   1.887   6.054
10923WAT     H133011   5.238   1.918   5.961
10923WAT     H233012   5.176   1.961   6.106
10924WAT      O33013   9.418   7.931   5.895
10924WAT     H133014   9.358   7.873   5.841
10924WAT     H233015   9.509   7.933   5.852
10925WAT      O33016   0.846   5.277   3.246
10925WAT     H133017   0.921   5.343   3.238
10925WAT     H233018   0.858   5.206   3.177
10926WAT      O33019   0.177   5.798   4.997
10926WAT     H133020   0.171   5.891   5.034
10926WAT     H233021   0.102   5.742   5.035
10927WAT      O33022   3.400   3.664   9.132
10927WAT     H133023   3.453   3.604   9.072
10927WAT     H233024   3.303   3.642   9.123
10928WAT      O33025   9.280   5.010   8.231
10928WAT     H133026   9.293   5.027   8.329
10928WAT     H233027   9.253   5.096   8.186
10929WAT      O33028   7.821   4.764   8.080
10929WAT     H133029   7.832   4.665   8.089
10929WAT     H233030   7.733   4.792   8.117
10930WAT      O33031   6.075   1.594   0.467
10930WAT     H133032   6.103   1.499   0.451
10930WAT     H233033   6.052   1.637   0.379
10931WAT      O33034   4.655   1.073   5.359
10931WAT     H133035   4.635   0.975   5.352
10931WAT     H233036   4.748   1.090   5.325
10932WAT      O33037   9.536   3.450   3.928
10932WAT     H133038   9.440   3.450   3.898
10932WAT     H233039   9.539   3.449   4.028
10933WAT      O33040   0.919   9.679   6.541
10933WAT     H133041   0.903   9.609   6.472
10933WAT     H233042   0.987   9.745   6.507
10934WAT      O33043   4.929   6.712   6.801
10934WAT     H133044   4.936   6.612   6.800
10934WAT     H233045   5.021   6.751   6.795
10935WAT      O33046   6.781   9.525   0.132
10935WAT     H133047   6.741   9.616   0.144
10935WAT     H233048   6.721   9.470   0.073
10936WAT      O33049   2.549   7.398   3.978
10936WAT     H133050   2.547   7.483   3.926
10936WAT     H233051   2.553   7.320   3.915
10937WAT      O33052   4.374   9.652   7.540
10937WAT     H133053   4.447   9.624   7.477
10937WAT     H233054   4.399   9.738   7.585
10938WAT      O33055   4.755   4.243   1.120
10938WAT     H133056   4.794   4.323   1.074
10938WAT     H233057   4.693   4.196   1.057
10939WAT      O33058   8.424   8.268   3.058
10939WAT     H133059   8.353   8.209   3.096
10939WAT     H233060   8.514   8.226   3.074
10940WAT      O33061   9.713   4.669   4.714
10940WAT     H133062   9.670   4.736   4.653
10940WAT     H233063   9.806   4.650   4.683
10941WAT      O33064   5.673   2.601   5.289
10941WAT     H133065   5.756   2.575   5.240
10941WAT     H233066   5.604   2.630   5.224
10942WAT      O33067   6.904   3.952   4.814
10942WAT     H133068   6.808   3.951   4.839
10942WAT     H233069   6.914   3.929   4.717
10943WAT      O33070   4.986   2.091   3.906
10943WAT     H133071   4.987   2.056   3.813
10943WAT     H233072   4.985   2.191   3.905
10944WAT      O33073   4.342   1.101   9.739
10944WAT     H133074   4.391   1.015   9.755
10944WAT     H233075   4.318   1.142   9.826
10945WAT      O33076   3.518   1.664   5.452
10945WAT     H133077   3.469   1.604   5.515
10945WAT     H233078   3.454   1.728   5.411
10946WAT      O33079   9.113   3.678   1.739
10946WAT     H133080   9.062   3.636   1.665
10946WAT     H233081   9.153   3.607   1.797
10947WAT      O33082   7.447   3.787   7.132
10947WAT     H133083   7.401   3.793   7.221
10947WAT     H233084   7.533   3.738   7.143
10948WAT      O33085   7.823   6.115   2.220
10948WAT     H133086   7.886   6.067   2.281
10948WAT     H233087   7.769   6.180   2.273
10949WAT      O33088   4.501   0.358   3.591
10949WAT     H133089   4.413   0.331   3.551
10949WAT     H233090   4.486   0.408   3.676
10950WAT      O33091   9.060   4.877   3.898
10950WAT     H133092   9.135   4.811   3.897
10950WAT     H233093   9.008   4.869   3.814
10951WAT      O33094   5.488   0.559   7.055
10951WAT     H133095   5.580   0.526   7.073
10951WAT     H233096   5.437   0.490   7.004
10952WAT      O33097   2.269   5.167   4.830
10952WAT     H133098   2.318   5.092   4.785
10952WAT     H233099   2.189   5.192   4.775
10953WAT      O33100   8.251   2.889   2.501
10953WAT     H133101   8.205   2.880   2.589
10953WAT     H233102   8.337   2.838   2.502
10954WAT      O33103   6.712   7.109   8.617
10954WAT     H133104   6.749   7.148   8.533
10954WAT     H233105   6.741   7.013   8.625
10955WAT      O33106   8.855   5.981   2.520
10955WAT     H133107   8.905   5.906   2.479
10955WAT     H233108   8.919   6.045   2.562
10956WAT      O33109   8.627   1.719   1.161
10956WAT     H133110   8.608   1.757   1.071
10956WAT     H233111   8.561   1.754   1.228
10957WAT      O33112   6.060   2.460   3.175
10957WAT     H133113   6.124   2.420   3.109
10957WAT     H233114   6.107   2.476   3.262
10958WAT      O33115   3.236   0.716   4.140
10958WAT     H133116   3.143   0.680   4.150
10958WAT     H233117   3.296   0.668   4.204
10959WAT      O33118   5.577   9.026   3.717
10959WAT     H133119   5.613   9.118   3.726
10959WAT     H233120   5.529   9.000   3.801
10960WAT      O33121   3.609   6.451   6.810
10960WAT     H133122   3.575   6.376   6.753
10960WAT     H233123   3.546   6.466   6.886
10961WAT      O33124   7.272   6.192   4.299
10961WAT     H133125   7.361   6.171   4.339
10961WAT     H233126   7.273   6.285   4.263
10962WAT      O33127   8.438   0.166   1.995
10962WAT     H133128   8.504   0.123   2.057
10962WAT     H233129   8.475   0.166   1.902
10963WAT      O33130   0.707   1.163   3.131
10963WAT     H133131   0.802   1.194   3.138
10963WAT     H233132   0.705   1.063   3.129
10964WAT      O33133   2.651   8.325   0.720
10964WAT     H133134   2.712   8.349   0.645
10964WAT     H233135   2.705   8.307   0.803
10965WAT      O33136   6.412   4.466   5.826
10965WAT     H133137   6.510   4.483   5.832
10965WAT     H233138   6.395   4.368   5.833
10966WAT      O33139   8.421   8.750   5.498
10966WAT     H133140   8.403   8.748   5.400
10966WAT     H233141   8.345   8.795   5.545
10967WAT      O33142   6.840   7.300   0.730
10967WAT     H133143   6.878   7.288   0.821
10967WAT     H233144   6.754   7.351   0.736
10968WAT      O33145   6.347   8.990   0.439
10968WAT     H133146   6.386   9.078   0.467
10968WAT     H233147   6.253   8.983   0.473
10969WAT      O33148   2.575   1.302   6.663
10969WAT     H133149   2.579   1.204   6.680
10969WAT     H233150   2.501   1.342   6.717
10970WAT      O33151   4.770   7.873   6.110
10970WAT     H133152   4.674   7.886   6.088
10970WAT     H233153   4.810   7.960   6.140
10971WAT      O33154   6.722   1.096   1.655
10971WAT     H133155   6.806   1.054   1.621
10971WAT     H233156   6.711   1.075   1.752
10972WAT      O33157   5.646   7.204   1.220
10972WAT     H133158   5.736   7.162   1.218
10972WAT     H233159   5.578   7.135   1.246
10973WAT      O33160   1.217   1.554   4.922
10973WAT     H133161   1.144   1.564   4.854
10973WAT     H233162   1.276   1.478   4.896
10974WAT      O33163   3.569   0.776   4.071
10974WAT     H133164   3.554   0.777   3.972
10974WAT     H233165   3.566   0.870   4.105
10975WAT      O33166   5.996   5.073   8.153
10975WAT     H133167   5.966   5.107   8.243
10975WAT     H233168   6.092   5.047   8.158
10976WAT      O33169   1.013   4.038   7.628
10976WAT     H133170   1.093   4.092   7.601
10976WAT     H233171   0.937   4.059   7.567
10977WAT      O33172   8.933   0.427   9.143
10977WAT     H133173   8.923   0.356   9.073
10977WAT     H233174   8.990   0.501   9.108
10978WAT      O33175   8.897   8.779   8.138
10978WAT     H133176   8.933   8.751   8.049
10978WAT     H233177   8.882   8.698   8.195
10979WAT      O33178   0.633   7.757   1.944
10979WAT     H133179   0.727   7.733   1.967
10979WAT     H233180   0.613   7.850   1.975
10980WAT      O33181   1.146   4.417   3.013
10980WAT     H133182   1.067   4.359   3.026
10980WAT     H233183   1.222   4.363   2.978
10981WAT      O33184   3.244   0.950   1.036
10981WAT     H133185   3.251   0.999   1.124
10981WAT     H233186   3.253   0.852   1.051
10982WAT      O33187   5.981   3.798   9.263
10982WAT     H133188   6.074   3.820   9.232
10982WAT     H233189   5.923   3.781   9.184
10983WAT      O33190   3.705   2.266   0.986
10983WAT     H133191   3.797   2.275   0.948
10983WAT     H233192   3.711   2.260   1.086
10984WAT      O33193   3.767   3.257   1.366
10984WAT     H133194   3.677   3.222   1.388
10984WAT     H233195   3.828   3.182   1.342
10985WAT      O33196   5.196   8.177   6.110
10985WAT     H133197   5.209   8.093   6.058
10985WAT     H233198   5.232   8.165   6.203
10986WAT      O33199   3.328   1.983   2.336
10986WAT     H133200   3.304   2.023   2.425
10986WAT     H233201   3.258   1.915   2.311
10987WAT      O33202   8.783   7.519   2.259
10987WAT     H133203   8.845   7.466   2.200
10987WAT     H233204   8.769   7.609   2.219
10988WAT      O33205   8.884   0.762   3.241
10988WAT     H133206   8.843   0.672   3.228
10988WAT     H233207   8.970   0.768   3.191
10989WAT      O33208   5.101   7.167   1.795
10989WAT     H133209   5.125   7.193   1.889
10989WAT     H233210   5.171   7.201   1.732
10990WAT      O33211   8.101   9.474   6.706
10990WAT     H133212   8.161   9.531   6.650
10990WAT     H233213   8.045   9.533   6.765
10991WAT      O33214   0.110   7.390   3.535
10991WAT     H133215   0.059   7.457   3.589
10991WAT     H233216   0.168   7.437   3.468
10992WAT      O33217   2.228   4.392   2.630
10992WAT     H133218   2.248   4.457   2.556
10992WAT     H233219   2.287   4.413   2.709
10993WAT      O33220   8.135   7.621   5.059
10993WAT     H133221   8.171   7.532   5.089
10993WAT     H233222   8.200   7.664   4.996
10994WAT      O33223   8.463   9.592   3.346
10994WAT     H133224   8.384   9.532   3.356
10994WAT     H233225   8.454   9.646   3.262
10995WAT      O33226   2.506   7.036   7.475
10995WAT     H133227   2.438   6.975   7.435
10995WAT     H233228   2.462   7.120   7.507
10996WAT      O33229   2.443   9.361   8.658
10996WAT     H133230   2.505   9.300   8.609
10996WAT     H233231   2.459   9.354   8.757
10997WAT      O33232   2.032   2.298   1.129
10997WAT     H133233   2.075   2.330   1.214
10997WAT     H233234   1.983   2.213   1.147
10998WAT      O33235   5.597   5.984   3.415
10998WAT     H133236   5.582   6.017   3.321
10998WAT     H233237   5.687   5.941   3.421
10999WAT      O33238   6.433   7.585   9.808
10999WAT     H133239   6.529   7.606   9.793
10999WAT     H233240   6.381   7.669   9.818
11000WAT      O33241   1.584   9.239   1.081
11000WAT     H133242   1.651   9.309   1.058
11000WAT     H233243   1.606   9.155   1.032
11001WAT      O33244   0.478   1.948   8.363
11001WAT     H133245   0.454   2.045   8.360
11001WAT     H233246   0.559   1.932   8.307
11002WAT      O33247   0.858   4.177   1.062
11002WAT     H133248   0.887   4.138   1.150
11002WAT     H233249   0.891   4.119   0.988
11003WAT      O33250   7.161   8.870   5.508
11003WAT     H133251   7.119   8.861   5.598
11003WAT     H233252   7.143   8.961   5.471
11004WAT      O33253   1.018   5.691   5.945
11004WAT     H133254   1.057   5.718   6.033
11004WAT     H233255   1.080   5.719   5.872
11005WAT      O33256   0.596   4.291   3.624
11005WAT     H133257   0.570   4.365   3.686
11005WAT     H233258   0.518   4.266   3.566
11006WAT      O33259   3.472   8.550   6.686
11006WAT     H133260   3.543   8.618   6.668
11006WAT     H233261   3.391   8.596   6.722
11007WAT      O33262   1.860   6.570   6.393
11007WAT     H133263   1.811   6.627   6.459
11007WAT     H233264   1.939   6.529   6.437
11008WAT      O33265   3.487   1.153   2.555
11008WAT     H133266   3.496   1.253   2.548
11008WAT     H233267   3.476   1.115   2.463
11009WAT      O33268   3.472   7.839   5.626
11009WAT     H133269   3.416   7.809   5.703
11009WAT     H233270   3.527   7.762   5.594
11010WAT      O33271   2.136   5.219   7.206
11010WAT     H133272   2.040   5.198   7.185
11010WAT     H233273   2.144   5.315   7.231
11011WAT      O33274   0.531   1.274   6.025
11011WAT     H133275   0.569   1.354   5.978
11011WAT     H233276   0.462   1.303   6.091
11012WAT      O33277   0.107   6.011   5.809
11012WAT     H133278   0.054   5.981   5.888
11012WAT     H233279   0.176   5.942   5.786
11013WAT      O33280   2.778   6.935   9.365
11013WAT     H133281   2.789   6.889   9.452
11013WAT     H233282   2.723   7.018   9.378
11014WAT      O33283   8.948   4.331   9.229
11014WAT     H133284   8.894   4.344   9.146
11014WAT     H233285   8.960   4.233   9.246
11015WAT      O33286   4.520   5.773   2.466
11015WAT     H133287   4.592   5.754   2.399
11015WAT     H233288   4.542   5.729   2.553
11016WAT      O33289   4.538   1.564   3.494
11016WAT     H133290   4.558   1.661   3.501
11016WAT     H233291   4.498   1.544   3.405
11017WAT      O33292   9.672   0.843   0.988
11017WAT     H133293   9.592   0.785   0.968
11017WAT     H233294   9.740   0.833   0.916
11018WAT      O33295   6.042   9.433   5.372
11018WAT     H133296   5.957   9.394   5.407
11018WAT     H233297   6.036   9.444   5.273
11019WAT      O33298   5.724   6.675   8.437
11019WAT     H133299   5.767   6.666   8.526
11019WAT     H233300   5.789   6.715   8.372
11020WAT      O33301   3.510   9.213   6.300
11020WAT     H133302   3.417   9.194   6.268
11020WAT     H233303   3.545   9.133   6.350
11021WAT      O33304   1.589   0.547   4.980
11021WAT     H133305   1.494   0.576   4.969
11021WAT     H233306   1.641   0.619   5.024
11022WAT      O33307   2.205   6.009   6.712
11022WAT     H133308   2.130   5.943   6.711
11022WAT     H233309   2.291   5.960   6.728
11023WAT      O33310   6.234   8.844   6.189
11023WAT     H133311   6.265   8.939   6.201
11023WAT     H233312   6.174   8.820   6.266
11024WAT      O33313   4.890   0.999   0.578
11024WAT     H133314   4.801   0.953   0.580
11024WAT     H233315   4.931   0.989   0.488
11025WAT      O33316   5.788   2.167   1.529
11025WAT     H133317   5.729   2.086   1.525
11025WAT     H233318   5.860   2.159   1.460
11026WAT      O33319   6.850   3.695   5.152
11026WAT     H133320   6.807   3.662   5.237
11026WAT     H233321   6.801   3.776   5.120
11027WAT      O33322   5.916   0.767   6.669
11027WAT     H133323   5.886   0.813   6.585
11027WAT     H233324   5.841   0.713   6.706
11028WAT      O33325   4.490   2.128   4.266
11028WAT     H133326   4.560   2.087   4.207
11028WAT     H233327   4.411   2.067   4.271
11029WAT      O33328   5.945   0.319   0.673
11029WAT     H133329   5.972   0.233   0.716
11029WAT     H233330   5.846   0.318   0.658
11030WAT      O33331   1.041   5.034   4.009
11030WAT     H133332   0.963   4.972   4.015
11030WAT     H233333   1.009   5.124   3.978
11031WAT      O33334   3.306   8.340   3.386
11031WAT     H133335   3.357   8.355   3.471
11031WAT     H233336   3.223   8.396   3.386
11032WAT      O33337   8.240   6.169   4.392
11032WAT     H133338   8.193   6.127   4.470
11032WAT     H233339   8.309   6.106   4.358
11033WAT      O33340   0.169   3.755   4.313
11033WAT     H133341   0.219   3.787   4.393
11033WAT     H233342   0.159   3.655   4.318
11034WAT      O33343   0.115   4.395   1.160
11034WAT     H133344   0.033   4.440   1.124
11034WAT     H233345   0.157   4.453   1.230
11035WAT      O33346   3.854   1.114   7.161
11035WAT     H133347   3.839   1.213   7.165
11035WAT     H233348   3.825   1.072   7.247
11036WAT      O33349   1.393   8.626   6.982
11036WAT     H133350   1.435   8.672   7.060
11036WAT     H233351   1.330   8.688   6.936
11037WAT      O33352   8.133   1.714   4.539
11037WAT     H133353   8.233   1.707   4.533
11037WAT     H233354   8.103   1.800   4.498
11038WAT      O33355   1.277   1.059   4.871
11038WAT     H133356   1.231   0.992   4.929
11038WAT     H233357   1.354   1.099   4.922
11039WAT      O33358   2.947   1.952   3.792
11039WAT     H133359   2.855   1.953   3.753
11039WAT     H233360   2.997   1.872   3.758
11040WAT      O33361   2.620   4.740   5.669
11040WAT     H133362   2.660   4.735   5.761
11040WAT     H233363   2.528   4.780   5.675
11041WAT      O33364   5.800   9.209   1.589
11041WAT     H133365   5.900   9.213   1.580
11041WAT     H233366   5.759   9.197   1.499
11042WAT      O33367   1.455   4.693   5.692
11042WAT     H133368   1.530   4.633   5.721
11042WAT     H233369   1.442   4.686   5.593
11043WAT      O33370   3.828   6.924   2.357
11043WAT     H133371   3.876   6.948   2.442
11043WAT     H233372   3.812   6.825   2.354
11044WAT      O33373   6.096   2.442   6.134
11044WAT     H133374   6.086   2.343   6.118
11044WAT     H233375   6.076   2.491   6.050
11045WAT      O33376   8.250   8.085   5.774
11045WAT     H133377   8.222   8.028   5.697
11045WAT     H233378   8.169   8.121   5.821
11046WAT      O33379   1.304   8.831   4.933
11046WAT     H133380   1.209   8.810   4.910
11046WAT     H233381   1.327   8.791   5.022
11047WAT      O33382   5.469   6.379   6.617
11047WAT     H133383   5.429   6.348   6.531
11047WAT     H233384   5.528   6.307   6.654
11048WAT      O33385   0.967   1.224   3.137
11048WAT     H133386   1.062   1.198   3.154
11048WAT     H233387   0.957   1.322   3.148
11049WAT      O33388   1.910   3.119   3.926
11049WAT     H133389   1.857   3.057   3.868
11049WAT     H233390   1.884   3.106   4.021
11050WAT      O33391   6.046   2.191   0.779
11050WAT     H133392   5.947   2.178   0.778
11050WAT     H233393   6.067   2.282   0.815
11051WAT      O33394   3.032   8.508   2.751
11051WAT     H133395   2.940   8.542   2.731
11051WAT     H233396   3.045   8.505   2.850
11052WAT      O33397   0.381   1.250   5.046
11052WAT     H133398   0.425   1.339   5.053
11052WAT     H233399   0.436   1.190   4.988
11053WAT      O33400   3.341   9.259   7.068
11053WAT     H133401   3.346   9.341   7.124
11053WAT     H233402   3.253   9.213   7.083
11054WAT      O33403   0.619   6.526   7.689
11054WAT     H133404   0.555   6.601   7.679
11054WAT     H233405   0.665   6.509   7.602
11055WAT      O33406   7.492   0.435   1.766
11055WAT     H133407   7.464   0.528   1.743
11055WAT     H233408   7.449   0.370   1.703
11056WAT      O33409   4.048   0.122   3.386
11056WAT     H133410   4.130   0.066   3.392
11056WAT     H233411   4.045   0.169   3.297
11057WAT      O33412   4.595   8.692   0.840
11057WAT     H133413   4.694   8.683   0.850
11057WAT     H233414   4.550   8.648   0.918
11058WAT      O33415   5.260   2.008   3.215
11058WAT     H133416   5.277   2.078   3.146
11058WAT     H233417   5.341   1.998   3.272
11059WAT      O33418   3.776   0.618   6.229
11059WAT     H133419   3.754   0.670   6.311
11059WAT     H233420   3.691   0.583   6.189
11060WAT      O33421   5.327   8.661   9.761
11060WAT     H133422   5.274   8.597   9.817
11060WAT     H233423   5.293   8.658   9.666
11061WAT      O33424   3.300   4.595   3.322
11061WAT     H133425   3.361   4.574   3.247
11061WAT     H233426   3.235   4.520   3.335
11062WAT      O33427   5.261   7.099   2.965
11062WAT     H133428   5.216   7.012   2.982
11062WAT     H233429   5.280   7.144   3.053
11063WAT      O33430   7.178   0.585   1.861
11063WAT     H133431   7.216   0.570   1.770
11063WAT     H233432   7.242   0.639   1.916
11064WAT      O33433   4.397   5.046   3.709
11064WAT     H133434   4.327   5.024   3.777
11064WAT     H233435   4.486   5.015   3.741
11065WAT      O33436   3.439   2.918   8.835
11065WAT     H133437   3.536   2.907   8.857
11065WAT     H233438   3.409   2.841   8.778
11066WAT      O33439   4.680   9.427   0.430
11066WAT     H133440   4.761   9.369   0.440
11066WAT     H233441   4.602   9.382   0.474
11067WAT      O33442   7.519   1.606   1.506
11067WAT     H133443   7.567   1.574   1.424
11067WAT     H233444   7.451   1.538   1.534
11068WAT      O33445   1.938   0.542   5.190
11068WAT     H133446   1.865   0.610   5.189
11068WAT     H233447   1.910   0.463   5.244
11069WAT      O33448   3.609   6.205   4.481
11069WAT     H133449   3.557   6.244   4.406
11069WAT     H233450   3.631   6.109   4.460
11070WAT      O33451   6.508   3.598   3.080
11070WAT     H133452   6.485   3.518   3.136
11070WAT     H233453   6.437   3.668   3.092
11071WAT      O33454   2.533   2.179   8.156
11071WAT     H133455   2.547   2.086   8.121
11071WAT     H233456   2.436   2.192   8.177
11072WAT      O33457   3.704   1.927   0.667
11072WAT     H133458   3.737   1.833   0.670
11072WAT     H233459   3.676   1.950   0.573
11073WAT      O33460   4.949   8.900   8.594
11073WAT     H133461   5.036   8.850   8.592
11073WAT     H233462   4.956   8.975   8.660
11074WAT      O33463   0.834   2.270   2.390
11074WAT     H133464   0.885   2.184   2.391
11074WAT     H233465   0.815   2.297   2.295
11075WAT      O33466   9.831   1.373   3.079
11075WAT     H133467   9.799   1.425   3.158
11075WAT     H233468   9.783   1.405   2.997
11076WAT      O33469   5.921   0.572   6.025
11076WAT     H133470   6.019   0.574   6.044
11076WAT     H233471   5.901   0.499   5.960
11077WAT      O33472   5.282   9.637   0.146
11077WAT     H133473   5.310   9.555   0.097
11077WAT     H233474   5.350   9.659   0.216
11078WAT      O33475   2.201   4.112   0.959
11078WAT     H133476   2.147   4.036   0.924
11078WAT     H233477   2.192   4.190   0.898
11079WAT      O33478   2.742   7.470   0.613
11079WAT     H133479   2.749   7.439   0.518
11079WAT     H233480   2.783   7.560   0.621
11080WAT      O33481   1.283   3.361   9.806
11080WAT     H133482   1.244   3.381   9.717
11080WAT     H233483   1.255   3.432   9.871
11081WAT      O33484   9.283   9.119   1.889
11081WAT     H133485   9.348   9.047   1.869
11081WAT     H233486   9.270   9.126   1.988
11082WAT      O33487   9.597   5.196   2.693
11082WAT     H133488   9.541   5.261   2.745
11082WAT     H233489   9.686   5.186   2.737
11083WAT      O33490   9.120   8.552   3.931
11083WAT     H133491   9.076   8.482   3.986
11083WAT     H233492   9.181   8.508   3.864
11084WAT      O33493   0.844   6.787   5.730
11084WAT     H133494   0.882   6.877   5.750
11084WAT     H233495   0.900   6.741   5.661
11085WAT      O33496   9.153   8.340   0.165
11085WAT     H133497   9.198   8.354   0.253
11085WAT     H233498   9.128   8.243   0.156
11086WAT      O33499   9.661   1.530   1.331
11086WAT     H133500   9.581   1.534   1.271
11086WAT     H233501   9.690   1.623   1.355
11087WAT      O33502   6.912   7.972   3.635
11087WAT     H133503   7.000   7.984   3.589
11087WAT     H233504   6.871   8.061   3.653
11088WAT      O33505   1.981   6.327   2.912
11088WAT     H133506   1.888   6.295   2.894
11088WAT     H233507   2.001   6.406   2.854
11089WAT      O33508   3.087   8.331   8.101
11089WAT     H133509   3.143   8.272   8.042
11089WAT     H233510   2.991   8.324   8.073
11090WAT      O33511   1.716   7.533   5.157
11090WAT     H133512   1.657   7.606   5.189
11090WAT     H233513   1.685   7.446   5.195
11091WAT      O33514   5.715   7.383   7.565
11091WAT     H133515   5.629   7.354   7.606
11091WAT     H233516   5.738   7.475   7.597
11092WAT      O33517   3.540   9.581   5.269
11092WAT     H133518   3.633   9.617   5.257
11092WAT     H233519   3.512   9.592   5.364
11093WAT      O33520   7.078   7.459   4.089
11093WAT     H133521   7.088   7.370   4.133
11093WAT     H233522   7.005   7.454   4.021
11094WAT      O33523   8.666   7.123   7.454
11094WAT     H133524   8.683   7.034   7.496
11094WAT     H233525   8.576   7.122   7.411
11095WAT      O33526   0.072   7.470   0.522
11095WAT     H133527   0.150   7.407   0.519
11095WAT     H233528   0.077   7.525   0.606
11096WAT      O33529   1.423   4.204   7.720
11096WAT     H133530   1.439   4.267   7.796
11096WAT     H233531   1.502   4.204   7.659
11097WAT      O33532   1.946   2.482   1.599
11097WAT     H133533   1.944   2.461   1.697
11097WAT     H233534   1.878   2.552   1.579
11098WAT      O33535   1.683   9.605   9.842
11098WAT     H133536   1.775   9.594   9.804
11098WAT     H233537   1.688   9.658   9.927
11099WAT      O33538   3.399   0.483   8.753
11099WAT     H133539   3.451   0.489   8.668
11099WAT     H233540   3.305   0.512   8.736
11100WAT      O33541   0.893   6.161   2.498
11100WAT     H133542   0.981   6.114   2.505
11100WAT     H233543   0.898   6.233   2.429
11101WAT      O33544   0.621   6.394   6.109
11101WAT     H133545   0.628   6.423   6.013
11101WAT     H233546   0.616   6.294   6.113
11102WAT      O33547   1.156   0.673   8.221
11102WAT     H133548   1.159   0.631   8.311
11102WAT     H233549   1.139   0.603   8.152
11103WAT      O33550   4.597   8.204   3.776
11103WAT     H133551   4.610   8.301   3.795
11103WAT     H233552   4.646   8.150   3.845
11104WAT      O33553   2.721   0.213   9.821
11104WAT     H133554   2.662   0.294   9.811
11104WAT     H233555   2.813   0.243   9.845
11105WAT      O33556   3.596   9.812   7.932
11105WAT     H133557   3.570   9.726   7.976
11105WAT     H233558   3.525   9.881   7.948
11106WAT      O33559   6.482   0.607   8.375
11106WAT     H133560   6.485   0.687   8.316
11106WAT     H233561   6.414   0.621   8.447
11107WAT      O33562   6.783   8.834   3.296
11107WAT     H133563   6.744   8.923   3.270
11107WAT     H233564   6.849   8.805   3.227
11108WAT      O33565   2.843   1.228   4.116
11108WAT     H133566   2.818   1.319   4.149
11108WAT     H233567   2.936   1.206   4.145
11109WAT      O33568   2.733   6.623   4.353
11109WAT     H133569   2.652   6.626   4.295
11109WAT     H233570   2.799   6.557   4.314
11110WAT      O33571   7.475   2.501   2.179
11110WAT     H133572   7.428   2.527   2.094
11110WAT     H233573   7.434   2.551   2.256
11111WAT      O33574   7.379   2.584   2.416
11111WAT     H133575   7.440   2.605   2.493
11111WAT     H233576   7.284   2.604   2.443
11112WAT      O33577   0.827   1.112   9.848
11112WAT     H133578   0.761   1.106   9.772
11112WAT     H233579   0.778   1.107   9.935
11113WAT      O33580   1.595   8.565   3.191
11113WAT     H133581   1.599   8.475   3.234
11113WAT     H233582   1.683   8.585   3.148
11114WAT      O33583   4.666   6.888   9.276
11114WAT     H133584   4.598   6.944   9.230
11114WAT     H233585   4.731   6.852   9.208
11115WAT      O33586   0.373   3.980   6.507
11115WAT     H133587   0.394   3.941   6.417
11115WAT     H233588   0.370   4.080   6.499
11116WAT      O33589   3.071   0.081   7.849
11116WAT     H133590   2.990   0.060   7.905
11116WAT     H233591   3.075   0.019   7.771
11117WAT      O33592   3.601   4.743   7.546
11117WAT     H133593   3.551   4.658   7.527
11117WAT     H233594   3.554   4.793   7.619
11118WAT      O33595   2.454   8.219   9.584
11118WAT     H133596   2.517   8.146   9.557
11118WAT     H233597   2.436   8.212   9.682
11119WAT      O33598   8.726   1.050   4.222
11119WAT     H133599   8.768   1.017   4.137
11119WAT     H233600   8.653   1.114   4.200
11120WAT      O33601   9.444   0.506   6.400
11120WAT     H133602   9.404   0.532   6.312
11120WAT     H233603   9.469   0.410   6.398
11121WAT      O33604   8.427   4.450   5.386
11121WAT     H133605   8.347   4.471   5.329
11121WAT     H233606   8.485   4.530   5.393
11122WAT      O33607   4.769   1.924   9.740
11122WAT     H133608   4.753   1.997   9.806
11122WAT     H233609   4.714   1.844   9.766
11123WAT      O33610   4.955   5.878   5.559
11123WAT     H133611   5.033   5.917   5.510
11123WAT     H233612   4.946   5.923   5.648
11124WAT      O33613   1.179   7.212   1.800
11124WAT     H133614   1.234   7.287   1.837
11124WAT     H233615   1.238   7.152   1.746
11125WAT      O33616   0.681   6.435   6.969
11125WAT     H133617   0.765   6.437   7.024
11125WAT     H233618   0.679   6.516   6.910
11126WAT      O33619   5.099   4.496   5.712
11126WAT     H133620   5.136   4.581   5.675
11126WAT     H233621   5.032   4.517   5.783
11127WAT      O33622   3.601   5.851   4.851
11127WAT     H133623   3.685   5.797   4.855
11127WAT     H233624   3.569   5.855   4.757
11128WAT      O33625   1.387   8.276   0.346
11128WAT     H133626   1.441   8.193   0.362
11128WAT     H233627   1.293   8.250   0.323
11129WAT      O33628   8.820   3.298   8.456
11129WAT     H133629   8.874   3.382   8.447
11129WAT     H233630   8.764   3.286   8.374
11130WAT      O33631   3.507   6.259   0.885
11130WAT     H133632   3.499   6.358   0.874
11130WAT     H233633   3.564   6.239   0.965
11131WAT      O33634   9.131   6.343   4.412
11131WAT     H133635   9.085   6.428   4.440
11131WAT     H233636   9.220   6.365   4.372
11132WAT      O33637   9.419   7.246   6.063
11132WAT     H133638   9.508   7.269   6.024
11132WAT     H233639   9.373   7.180   6.004
11133WAT      O33640   3.974   2.386   7.442
11133WAT     H133641   3.893   2.437   7.472
11133WAT     H233642   3.960   2.353   7.349
11134WAT      O33643   6.680   8.098   7.429
11134WAT     H133644   6.720   8.189   7.444
11134WAT     H233645   6.662   8.054   7.516
11135WAT      O33646   4.367   8.418   2.370
11135WAT     H133647   4.324   8.418   2.280
11135WAT     H233648   4.457   8.462   2.364
11136WAT      O33649   0.753   8.482   3.371
11136WAT     H133650   0.793   8.563   3.413
11136WAT     H233651   0.653   8.487   3.376
11137WAT      O33652   9.621   8.193   0.597
11137WAT     H133653   9.695   8.132   0.623
11137WAT     H233654   9.655   8.287   0.595
11138WAT      O33655   4.483   8.958   8.336
11138WAT     H133656   4.424   9.033   8.305
11138WAT     H233657   4.578   8.983   8.322
11139WAT      O33658   2.058   7.259   6.636
11139WAT     H133659   2.087   7.227   6.726
11139WAT     H233660   1.959   7.244   6.626
11140WAT      O33661   4.724   4.135   2.893
11140WAT     H133662   4.798   4.116   2.828
11140WAT     H233663   4.763   4.165   2.980
11141WAT      O33664   8.976   1.126   2.105
11141WAT     H133665   9.013   1.063   2.037
11141WAT     H233666   8.877   1.112   2.114
11142WAT      O33667   3.652   7.489   4.399
11142WAT     H133668   3.651   7.390   4.412
11142WAT     H233669   3.640   7.534   4.487
11143WAT      O33670   5.976   5.461   9.405
11143WAT     H133671   5.906   5.390   9.399
11143WAT     H233672   6.005   5.471   9.501
11144WAT      O33673   5.122   8.708   9.121
11144WAT     H133674   5.042   8.758   9.156
11144WAT     H233675   5.190   8.700   9.194
11145WAT      O33676   4.378   7.646   4.336
11145WAT     H133677   4.435   7.653   4.254
11145WAT     H233678   4.281   7.643   4.309
11146WAT      O33679   3.832   1.773   7.206
11146WAT     H133680   3.792   1.684   7.184
11146WAT     H233681   3.784   1.812   7.285
11147WAT      O33682   6.877   7.888   6.589
11147WAT     H133683   6.835   7.847   6.508
11147WAT     H233684   6.967   7.848   6.604
11148WAT      O33685   3.824   7.767   8.624
11148WAT     H133686   3.910   7.722   8.647
11148WAT     H233687   3.834   7.866   8.634
11149WAT      O33688   8.563   5.448   2.921
11149WAT     H133689   8.588   5.450   2.825
11149WAT     H233690   8.476   5.496   2.934
11150WAT      O33691   1.922   8.759   8.378
11150WAT     H133692   1.856   8.694   8.416
11150WAT     H233693   1.889   8.852   8.394
11151WAT      O33694   8.453   5.499   3.615
11151WAT     H133695   8.520   5.564   3.650
11151WAT     H233696   8.494   5.408   3.610
11152WAT      O33697   2.075   9.494   7.131
11152WAT     H133698   2.143   9.427   7.100
11152WAT     H233699   2.120   9.562   7.188
11153WAT      O33700   7.998   7.642   7.355
11153WAT     H133701   7.932   7.715   7.368
11153WAT     H233702   8.040   7.651   7.264
11154WAT      O33703   6.505   2.296   2.864
11154WAT     H133704   6.458   2.338   2.941
11154WAT     H233705   6.523   2.364   2.794
11155WAT      O33706   2.141   7.771   3.942
11155WAT     H133707   2.227   7.753   3.990
11155WAT     H233708   2.064   7.754   4.004
11156WAT      O33709   1.066   9.621   9.149
11156WAT     H133710   1.146   9.629   9.208
11156WAT     H233711   0.984   9.606   9.205
11157WAT      O33712   2.739   6.145   3.462
11157WAT     H133713   2.815   6.142   3.527
11157WAT     H233714   2.752   6.076   3.391
11158WAT      O33715   8.880   9.026   2.495
11158WAT     H133716   8.911   9.101   2.554
11158WAT     H233717   8.921   9.035   2.404
11159WAT      O33718   5.879   5.245   0.581
11159WAT     H133719   5.871   5.321   0.645
11159WAT     H233720   5.936   5.173   0.622
11160WAT      O33721   5.641   5.253   9.889
11160WAT     H133722   5.695   5.252   9.804
11160WAT     H233723   5.670   5.328   9.947
11161WAT      O33724   7.671   0.306   4.924
11161WAT     H133725   7.600   0.374   4.907
11161WAT     H233726   7.755   0.332   4.878
11162WAT      O33727   2.786   9.791   7.606
11162WAT     H133728   2.795   9.804   7.507
11162WAT     H233729   2.834   9.865   7.653
11163WAT      O33730   8.055   2.546   9.025
11163WAT     H133731   8.131   2.584   8.972
11163WAT     H233732   7.983   2.615   9.033
11164WAT      O33733   1.540   2.069   1.174
11164WAT     H133734   1.523   2.095   1.269
11164WAT     H233735   1.476   2.117   1.114
11165WAT      O33736   3.889   5.090   3.746
11165WAT     H133737   3.939   5.103   3.831
11165WAT     H233738   3.845   5.001   3.746
11166WAT      O33739   1.786   8.178   6.610
11166WAT     H133740   1.876   8.150   6.643
11166WAT     H233741   1.760   8.265   6.653
11167WAT      O33742   6.516   3.430   4.850
11167WAT     H133743   6.511   3.410   4.948
11167WAT     H233744   6.594   3.381   4.810
11168WAT      O33745   4.580   1.698   1.680
11168WAT     H133746   4.512   1.648   1.733
11168WAT     H233747   4.665   1.704   1.733
11169WAT      O33748   5.688   1.171   6.254
11169WAT     H133749   5.761   1.122   6.207
11169WAT     H233750   5.599   1.135   6.226
11170WAT      O33751   4.346   1.574   4.657
11170WAT     H133752   4.250   1.597   4.675
11170WAT     H233753   4.352   1.514   4.578
11171WAT      O33754   6.726   0.193   5.024
11171WAT     H133755   6.792   0.231   4.960
11171WAT     H233756   6.727   0.094   5.018
11172WAT      O33757   7.017   1.344   1.682
11172WAT     H133758   7.041   1.315   1.590
11172WAT     H233759   7.024   1.444   1.688
11173WAT      O33760   6.239   9.411   3.798
11173WAT     H133761   6.313   9.350   3.827
11173WAT     H233762   6.165   9.408   3.866
11174WAT      O33763   3.670   5.725   2.082
11174WAT     H133764   3.713   5.809   2.047
11174WAT     H233765   3.683   5.720   2.181
11175WAT      O33766   8.980   8.605   7.237
11175WAT     H133767   8.887   8.604   7.272
11175WAT     H233768   9.033   8.677   7.282
11176WAT      O33769   6.043   8.389   4.440
11176WAT     H133770   6.063   8.344   4.353
11176WAT     H233771   6.110   8.462   4.456
11177WAT      O33772   6.302   3.603   9.882
11177WAT     H133773   6.293   3.696   9.917
11177WAT     H233774   6.219   3.552   9.903
11178WAT      O33775   7.105   9.579   9.103
11178WAT     H133776   7.168   9.502   9.091
11178WAT     H233777   7.104   9.607   9.199
11179WAT      O33778   8.759   2.914   5.791
11179WAT     H133779   8.711   2.848   5.849
11179WAT     H233780   8.693   2.979   5.752
11180WAT      O33781   1.730   6.776   9.755
11180WAT     H133782   1.773   6.866   9.763
11180WAT     H233783   1.678   6.757   9.838
11181WAT      O33784   4.168   1.361   3.358
11181WAT     H133785   4.103   1.303   3.308
11181WAT     H233786   4.208   1.308   3.433
11182WAT      O33787   4.816   5.086   8.546
11182WAT     H133788   4.749   5.012   8.539
11182WAT     H233789   4.871   5.089   8.462
11183WAT      O33790   7.938   2.495   1.429
11183WAT     H133791   8.018   2.550   1.454
11183WAT     H233792   7.856   2.550   1.435
11184WAT      O33793   8.984   7.870   9.056
11184WAT     H133794   9.070   7.889   9.102
11184WAT     H233795   8.908   7.900   9.113
11185WAT      O33796   8.380   0.332   1.409
11185WAT     H133797   8.340   0.290   1.327
11185WAT     H233798   8.311   0.337   1.481
11186WAT      O33799   5.479   4.131   5.123
11186WAT     H133800   5.403   4.114   5.186
11186WAT     H233801   5.554   4.175   5.173
11187WAT      O33802   0.222   8.554   6.697
11187WAT     H133803   0.267   8.622   6.755
11187WAT     H233804   0.167   8.600   6.628
11188WAT      O33805   3.616   6.747   9.454
11188WAT     H133806   3.710   6.766   9.427
11188WAT     H233807   3.594   6.798   9.538
11189WAT      O33808   7.152   9.030   0.734
11189WAT     H133809   7.185   9.007   0.643
11189WAT     H233810   7.187   8.963   0.800
11190WAT      O33811   4.838   6.952   9.506
11190WAT     H133812   4.764   6.936   9.441
11190WAT     H233813   4.891   7.033   9.477
11191WAT      O33814   2.943   5.186   9.661
11191WAT     H133815   3.037   5.155   9.678
11191WAT     H233816   2.942   5.286   9.652
11192WAT      O33817   1.618   1.864   8.203
11192WAT     H133818   1.607   1.927   8.127
11192WAT     H233819   1.598   1.771   8.173
11193WAT      O33820   7.123   7.625   2.819
11193WAT     H133821   7.037   7.620   2.769
11193WAT     H233822   7.139   7.719   2.849
11194WAT      O33823   1.251   3.009   9.534
11194WAT     H133824   1.312   3.017   9.614
11194WAT     H233825   1.246   3.097   9.488
11195WAT      O33826   4.404   7.948   4.374
11195WAT     H133827   4.500   7.963   4.397
11195WAT     H233828   4.377   7.856   4.400
11196WAT      O33829   7.883   2.448   1.134
11196WAT     H133830   7.842   2.539   1.124
11196WAT     H233831   7.916   2.436   1.228
11197WAT      O33832   9.490   1.612   1.112
11197WAT     H133833   9.535   1.588   1.025
11197WAT     H233834   9.408   1.557   1.123
11198WAT      O33835   0.605   4.644   5.458
11198WAT     H133836   0.540   4.716   5.482
11198WAT     H233837   0.567   4.555   5.480
11199WAT      O33838   0.787   9.374   2.256
11199WAT     H133839   0.813   9.397   2.350
11199WAT     H233840   0.822   9.445   2.194
11200WAT      O33841   6.311   2.455   8.714
11200WAT     H133842   6.305   2.420   8.807
11200WAT     H233843   6.285   2.551   8.713
11201WAT      O33844   1.098   7.995   1.084
11201WAT     H133845   1.087   8.086   1.125
11201WAT     H233846   1.059   7.927   1.146
11202WAT      O33847   3.047   5.474   0.936
11202WAT     H133848   2.968   5.416   0.917
11202WAT     H233849   3.085   5.450   1.025
11203WAT      O33850   8.811   0.538   2.743
11203WAT     H133851   8.762   0.570   2.824
11203WAT     H233852   8.748   0.531   2.666
11204WAT      O33853   8.523   4.595   9.271
11204WAT     H133854   8.539   4.549   9.184
11204WAT     H233855   8.456   4.543   9.324
11205WAT      O33856   2.191   0.196   1.562
11205WAT     H133857   2.282   0.186   1.602
11205WAT     H233858   2.158   0.289   1.577
11206WAT      O33859   5.294   5.740   5.574
11206WAT     H133860   5.299   5.640   5.579
11206WAT     H233861   5.238   5.775   5.649
11207WAT      O33862   6.600   2.875   3.943
11207WAT     H133863   6.553   2.897   3.857
11207WAT     H233864   6.616   2.776   3.948
11208WAT      O33865   0.769   3.465   4.701
11208WAT     H133866   0.796   3.559   4.681
11208WAT     H233867   0.686   3.465   4.756
11209WAT      O33868   1.475   2.183   5.186
11209WAT     H133869   1.449   2.099   5.139
11209WAT     H233870   1.538   2.235   5.127
11210WAT      O33871   7.155   0.859   0.177
11210WAT     H133872   7.144   0.922   0.253
11210WAT     H233873   7.113   0.898   0.095
11211WAT      O33874   1.802   5.105   6.847
11211WAT     H133875   1.842   5.137   6.933
11211WAT     H233876   1.823   5.170   6.775
11212WAT      O33877   5.875   8.020   0.889
11212WAT     H133878   5.956   8.021   0.830
11212WAT     H233879   5.793   8.018   0.832
11213WAT      O33880   1.759   6.005   0.216
11213WAT     H133881   1.842   5.954   0.192
11213WAT     H233882   1.697   6.006   0.137
11214WAT      O33883   3.564   9.202   9.581
11214WAT     H133884   3.591   9.293   9.612
11214WAT     H233885   3.517   9.154   9.655
11215WAT      O33886   3.062   5.810   5.489
11215WAT     H133887   3.072   5.849   5.398
11215WAT     H233888   3.133   5.741   5.504
11216WAT      O33889   1.491   6.867   8.709
11216WAT     H133890   1.478   6.932   8.784
11216WAT     H233891   1.524   6.916   8.628
11217WAT      O33892   7.360   0.369   7.034
11217WAT     H133893   7.412   0.329   6.958
11217WAT     H233894   7.419   0.379   7.114
11218WAT      O33895   5.543   6.967   0.536
11218WAT     H133896   5.509   7.025   0.611
11218WAT     H233897   5.473   6.901   0.511
11219WAT      O33898   1.955   5.214   1.505
11219WAT     H133899   1.918   5.180   1.591
11219WAT     H233900   2.014   5.144   1.464
11220WAT      O33901   6.231   3.828   1.835
11220WAT     H133902   6.159   3.806   1.901
11220WAT     H233903   6.194   3.820   1.743
11221WAT      O33904   0.167   2.734   0.176
11221WAT     H133905   0.176   2.639   0.144
11221WAT     H233906   0.172   2.796   0.098
11222WAT      O33907   0.647   8.068   4.404
11222WAT     H133908   0.602   8.010   4.336
11222WAT     H233909   0.613   8.161   4.396
11223WAT      O33910   3.468   5.169   9.129
11223WAT     H133911   3.445   5.189   9.224
11223WAT     H233912   3.385   5.142   9.080
11224WAT      O33913   7.107   3.450   8.320
11224WAT     H133914   7.170   3.525   8.300
11224WAT     H233915   7.017   3.471   8.282
11225WAT      O33916   5.934   3.665   2.485
11225WAT     H133917   5.878   3.689   2.565
11225WAT     H233918   5.938   3.742   2.422
11226WAT      O33919   3.142   4.585   0.231
11226WAT     H133920   3.093   4.666   0.265
11226WAT     H233921   3.219   4.615   0.175
11227WAT      O33922   4.638   7.990   9.368
11227WAT     H133923   4.663   8.079   9.406
11227WAT     H233924   4.621   7.999   9.270
11228WAT      O33925   3.450   9.581   3.233
11228WAT     H133926   3.385   9.533   3.175
11228WAT     H233927   3.540   9.581   3.189
11229WAT      O33928   7.743   0.983   5.039
11229WAT     H133929   7.729   0.927   5.120
11229WAT     H233930   7.757   1.079   5.067
11230WAT      O33931   1.730   5.579   0.220
11230WAT     H133932   1.728   5.498   0.280
11230WAT     H233933   1.803   5.640   0.249
11231WAT      O33934   1.823   4.554   7.878
11231WAT     H133935   1.875   4.500   7.812
11231WAT     H233936   1.870   4.641   7.894
11232WAT      O33937   6.202   1.009   8.666
11232WAT     H133938   6.163   0.957   8.742
11232WAT     H233939   6.156   0.983   8.581
11233WAT      O33940   1.571   6.799   3.343
11233WAT     H133941   1.664   6.772   3.369
11233WAT     H233942   1.538   6.871   3.404
11234WAT      O33943   3.203   3.976   1.103
11234WAT     H133944   3.222   4.074   1.088
11234WAT     H233945   3.148   3.966   1.186
11235WAT      O33946   3.754   6.687   6.775
11235WAT     H133947   3.751   6.587   6.783
11235WAT     H233948   3.661   6.723   6.781
11236WAT      O33949   0.757   5.593   6.438
11236WAT     H133950   0.786   5.649   6.515
11236WAT     H233951   0.682   5.534   6.466
11237WAT      O33952   7.880   2.019   2.298
11237WAT     H133953   7.949   1.951   2.274
11237WAT     H233954   7.910   2.109   2.265
11238WAT      O33955   7.621   1.830   4.760
11238WAT     H133956   7.531   1.833   4.717
11238WAT     H233957   7.633   1.742   4.806
11239WAT      O33958   6.332   1.532   4.835
11239WAT     H133959   6.426   1.551   4.807
11239WAT     H233960   6.303   1.444   4.797
11240WAT      O33961   8.234   8.243   8.420
11240WAT     H133962   8.239   8.162   8.479
11240WAT     H233963   8.319   8.294   8.425
11241WAT      O33964   8.168   1.450   5.971
11241WAT     H133965   8.114   1.454   5.887
11241WAT     H233966   8.112   1.414   6.046
11242WAT      O33967   5.822   2.169   5.927
11242WAT     H133968   5.915   2.205   5.935
11242WAT     H233969   5.801   2.153   5.830
11243WAT      O33970   2.877   3.442   4.185
11243WAT     H133971   2.961   3.449   4.238
11243WAT     H233972   2.881   3.503   4.107
11244WAT      O33973   2.817   9.800   3.456
11244WAT     H133974   2.844   9.896   3.457
11244WAT     H233975   2.856   9.756   3.375
11245WAT      O33976   9.449   5.283   9.122
11245WAT     H133977   9.525   5.306   9.182
11245WAT     H233978   9.368   5.336   9.149
11246WAT      O33979   2.119   5.798   1.338
11246WAT     H133980   2.158   5.887   1.315
11246WAT     H233981   2.193   5.734   1.357
11247WAT      O33982   3.832   3.519   4.779
11247WAT     H133983   3.784   3.497   4.863
11247WAT     H233984   3.859   3.616   4.780
11248WAT      O33985   1.669   3.478   1.765
11248WAT     H133986   1.650   3.434   1.853
11248WAT     H233987   1.736   3.551   1.779
11249WAT      O33988   0.776   2.968   6.664
11249WAT     H133989   0.855   2.993   6.608
11249WAT     H233990   0.713   3.045   6.669
11250WAT      O33991   5.190   6.252   5.614
11250WAT     H133992   5.164   6.317   5.542
11250WAT     H233993   5.146   6.279   5.700
11251WAT      O33994   4.303   6.478   4.728
11251WAT     H133995   4.312   6.574   4.701
11251WAT     H233996   4.272   6.424   4.650
11252WAT      O33997   5.364   2.524   5.673
11252WAT     H133998   5.266   2.531   5.687
11252WAT     H233999   5.388   2.557   5.582
11253WAT      O34000   8.351   8.605   0.531
11253WAT     H134001   8.357   8.516   0.486
11253WAT     H234002   8.442   8.637   0.557
11254WAT      O34003   4.096   1.665   5.987
11254WAT     H134004   4.102   1.757   6.028
11254WAT     H234005   4.093   1.674   5.887
11255WAT      O34006   5.155   2.295   1.872
11255WAT     H134007   5.098   2.376   1.863
11255WAT     H234008   5.108   2.227   1.928
11256WAT      O34009   4.939   7.080   5.334
11256WAT     H134010   4.977   7.110   5.246
11256WAT     H234011   4.843   7.107   5.339
11257WAT      O34012   5.416   9.789   3.982
11257WAT     H134013   5.433   9.729   4.061
11257WAT     H234014   5.492   9.853   3.972
11258WAT      O34015   5.269   6.612   3.885
11258WAT     H134016   5.340   6.647   3.824
11258WAT     H234017   5.303   6.609   3.979
11259WAT      O34018   0.777   6.348   6.561
11259WAT     H134019   0.683   6.328   6.589
11259WAT     H234020   0.838   6.336   6.639
11260WAT      O34021   9.485   5.185   7.493
11260WAT     H134022   9.480   5.196   7.394
11260WAT     H234023   9.565   5.128   7.516
11261WAT      O34024   8.208   5.564   1.684
11261WAT     H134025   8.261   5.584   1.602
11261WAT     H234026   8.111   5.580   1.665
11262WAT      O34027   7.985   2.088   6.260
11262WAT     H134028   8.072   2.107   6.306
11262WAT     H234029   7.939   2.174   6.237
11263WAT      O34030   8.342   7.217   0.239
11263WAT     H134031   8.247   7.194   0.263
11263WAT     H234032   8.391   7.244   0.322
11264WAT      O34033   5.978   6.491   8.641
11264WAT     H134034   6.076   6.511   8.639
11264WAT     H234035   5.958   6.418   8.576
11265WAT      O34036   5.974   7.438   3.856
11265WAT     H134037   6.052   7.375   3.854
11265WAT     H234038   5.891   7.388   3.828
11266WAT      O34039   1.236   3.860   5.055
11266WAT     H134040   1.318   3.890   5.104
11266WAT     H234041   1.230   3.910   4.968
11267WAT      O34042   9.839   1.115   1.548
11267WAT     H134043   9.839   1.167   1.462
11267WAT     H234044   9.900   1.159   1.613
11268WAT      O34045   8.815   7.937   6.214
11268WAT     H134046   8.795   7.840   6.228
11268WAT     H234047   8.891   7.964   6.273
11269WAT      O34048   6.617   5.389   8.439
11269WAT     H134049   6.536   5.446   8.457
11269WAT     H234050   6.697   5.448   8.430
11270WAT      O34051   2.168   7.280   3.841
11270WAT     H134052   2.152   7.284   3.940
11270WAT     H234053   2.084   7.307   3.793
11271WAT      O34054   6.041   7.610   4.807
11271WAT     H134055   6.097   7.527   4.796
11271WAT     H234056   5.955   7.586   4.853
11272WAT      O34057   8.210   1.196   8.379
11272WAT     H134058   8.237   1.171   8.286
11272WAT     H234059   8.126   1.251   8.376
11273WAT      O34060   0.014   2.536   2.649
11273WAT     H134061  -0.020   2.622   2.687
11273WAT     H234062   0.100   2.553   2.601
11274WAT      O34063   3.349   5.615   4.036
11274WAT     H134064   3.377   5.658   3.950
11274WAT     H234065   3.286   5.676   4.084
11275WAT      O34066   7.389   2.500   0.507
11275WAT     H134067   7.418   2.595   0.520
11275WAT     H234068   7.432   2.464   0.424
11276WAT      O34069   6.298   1.353   7.877
11276WAT     H134070   6.385   1.328   7.834
11276WAT     H234071   6.252   1.423   7.821
11277WAT      O34072   8.304   5.095   8.002
11277WAT     H134073   8.226   5.154   8.020
11277WAT     H234074   8.335   5.108   7.907
11278WAT      O34075   5.328   7.630   3.362
11278WAT     H134076   5.382   7.580   3.430
11278WAT     H234077   5.231   7.606   3.372
11279WAT      O34078   4.479   1.626   9.248
11279WAT     H134079   4.571   1.592   9.227
11279WAT     H234080   4.482   1.681   9.331
11280WAT      O34081   4.817   2.583   9.690
11280WAT     H134082   4.743   2.558   9.627
11280WAT     H234083   4.786   2.572   9.784
11281WAT      O34084   5.843   1.793   8.073
11281WAT     H134085   5.932   1.838   8.081
11281WAT     H234086   5.774   1.860   8.045
11282WAT      O34087   8.102   9.534   3.560
11282WAT     H134088   8.017   9.491   3.591
11282WAT     H234089   8.095   9.633   3.573
11283WAT      O34090   5.630   2.504   9.008
11283WAT     H134091   5.572   2.508   9.090
11283WAT     H234092   5.674   2.414   9.003
11284WAT      O34093   0.625   6.345   4.704
11284WAT     H134094   0.526   6.335   4.704
11284WAT     H234095   0.663   6.302   4.622
11285WAT      O34096   3.549   0.393   1.138
11285WAT     H134097   3.553   0.489   1.110
11285WAT     H234098   3.636   0.366   1.179
11286WAT      O34099   7.808   9.662   7.403
11286WAT     H134100   7.723   9.679   7.354
11286WAT     H234101   7.874   9.735   7.381
11287WAT      O34102   0.681   1.436   8.791
11287WAT     H134103   0.689   1.339   8.768
11287WAT     H234104   0.717   1.451   8.884
11288WAT      O34105   3.431   1.692   1.636
11288WAT     H134106   3.452   1.596   1.616
11288WAT     H234107   3.478   1.719   1.720
11289WAT      O34108   5.962   0.030   0.444
11289WAT     H134109   5.926  -0.021   0.523
11289WAT     H234110   6.061   0.013   0.436
11290WAT      O34111   4.873   0.460   4.771
11290WAT     H134112   4.919   0.417   4.693
11290WAT     H234113   4.867   0.394   4.846
11291WAT      O34114   2.884   8.549   2.413
11291WAT     H134115   2.978   8.565   2.443
11291WAT     H234116   2.823   8.549   2.493
11292WAT      O34117   1.669   6.934   1.324
11292WAT     H134118   1.578   6.928   1.282
11292WAT     H234119   1.659   6.949   1.422
11293WAT      O34120   8.154   4.458   5.125
11293WAT     H134121   8.073   4.507   5.093
11293WAT     H234122   8.237   4.504   5.091
11294WAT      O34123   9.570   1.148   7.865
11294WAT     H134124   9.604   1.190   7.781
11294WAT     H234125   9.487   1.096   7.845
11295WAT      O34126   3.444   3.679   7.938
11295WAT     H134127   3.415   3.693   7.844
11295WAT     H234128   3.487   3.589   7.947
11296WAT      O34129   2.553   9.407   3.582
11296WAT     H134130   2.546   9.458   3.496
11296WAT     H234131   2.576   9.312   3.562
11297WAT      O34132   9.133   8.458   2.134
11297WAT     H134133   9.131   8.547   2.089
11297WAT     H234134   9.220   8.413   2.113
11298WAT      O34135   8.282   1.875   4.116
11298WAT     H134136   8.367   1.822   4.118
11298WAT     H234137   8.204   1.814   4.105
11299WAT      O34138   1.941   0.973   5.099
11299WAT     H134139   1.988   0.989   5.012
11299WAT     H234140   1.995   1.009   5.174
11300WAT      O34141   0.221   4.671   1.244
11300WAT     H134142   0.293   4.741   1.247
11300WAT     H234143   0.132   4.715   1.254
11301WAT      O34144   4.764   3.153   8.544
11301WAT     H134145   4.733   3.243   8.575
11301WAT     H234146   4.839   3.121   8.602
11302WAT      O34147   7.607   5.326   1.299
11302WAT     H134148   7.637   5.267   1.224
11302WAT     H234149   7.636   5.420   1.281
11303WAT      O34150   3.503   7.151   7.731
11303WAT     H134151   3.409   7.152   7.764
11303WAT     H234152   3.528   7.242   7.699
11304WAT      O34153   8.293   3.299   2.484
11304WAT     H134154   8.270   3.270   2.577
11304WAT     H234155   8.301   3.399   2.481
11305WAT      O34156   4.896   6.275   2.514
11305WAT     H134157   4.871   6.186   2.474
11305WAT     H234158   4.983   6.266   2.562
11306WAT      O34159   6.938   0.963   1.531
11306WAT     H134160   6.992   1.041   1.500
11306WAT     H234161   6.988   0.878   1.514
11307WAT      O34162   6.692   7.735   5.472
11307WAT     H134163   6.788   7.759   5.485
11307WAT     H234164   6.685   7.636   5.455
11308WAT      O34165   2.112   0.140   6.500
11308WAT     H134166   2.175   0.169   6.572
11308WAT     H234167   2.025   0.113   6.541
11309WAT      O34168   2.039   1.632   3.826
11309WAT     H134169   2.057   1.601   3.733
11309WAT     H234170   1.947   1.604   3.854
11310WAT      O34171   3.442   5.202   3.496
11310WAT     H134172   3.501   5.266   3.545
11310WAT     H234173   3.477   5.188   3.404
11311WAT      O34174   2.138   1.949   3.443
11311WAT     H134175   2.170   2.033   3.488
11311WAT     H234176   2.040   1.938   3.459
11312WAT      O34177   3.479   2.720   8.073
11312WAT     H134178   3.470   2.797   8.136
11312WAT     H234179   3.441   2.638   8.116
11313WAT      O34180   5.984   3.734   8.540
11313WAT     H134181   6.007   3.682   8.457
11313WAT     H234182   5.885   3.733   8.554
11314WAT      O34183   5.010   9.209   4.722
11314WAT     H134184   5.061   9.148   4.783
11314WAT     H234185   5.056   9.215   4.634
11315WAT      O34186   1.907   7.788   9.595
11315WAT     H134187   1.894   7.821   9.502
11315WAT     H234188   1.988   7.830   9.635
11316WAT      O34189   9.462   6.034   5.426
11316WAT     H134190   9.481   6.069   5.518
11316WAT     H234191   9.369   5.996   5.423
11317WAT      O34192   8.183   5.251   6.394
11317WAT     H134193   8.096   5.294   6.371
11317WAT     H234194   8.251   5.321   6.415
11318WAT      O34195   0.554   8.625   4.890
11318WAT     H134196   0.516   8.698   4.947
11318WAT     H234197   0.653   8.640   4.880
11319WAT      O34198   8.420   4.100   2.881
11319WAT     H134199   8.385   4.181   2.929
11319WAT     H234200   8.425   4.024   2.946
11320WAT      O34201   9.443   3.376   7.634
11320WAT     H134202   9.511   3.448   7.621
11320WAT     H234203   9.434   3.355   7.731
11321WAT      O34204   9.210   6.693   4.274
11321WAT     H134205   9.246   6.609   4.313
11321WAT     H234206   9.135   6.728   4.330
11322WAT      O34207   9.128   4.326   8.894
11322WAT     H134208   9.124   4.425   8.881
11322WAT     H234209   9.194   4.287   8.830
11323WAT      O34210   2.181   0.821   7.222
11323WAT     H134211   2.228   0.839   7.136
11323WAT     H234212   2.095   0.774   7.203
11324WAT      O34213   0.541   4.681   1.810
11324WAT     H134214   0.546   4.754   1.878
11324WAT     H234215   0.632   4.642   1.796
11325WAT      O34216   5.954   4.030   4.522
11325WAT     H134217   6.044   4.014   4.482
11325WAT     H234218   5.887   4.048   4.449
11326WAT      O34219   5.921   8.241   7.822
11326WAT     H134220   5.898   8.183   7.745
11326WAT     H234221   6.020   8.238   7.838
11327WAT      O34222   6.356   3.715   3.839
11327WAT     H134223   6.396   3.659   3.767
11327WAT     H234224   6.260   3.688   3.852
11328WAT      O34225   2.624   2.836   0.327
11328WAT     H134226   2.717   2.865   0.352
11328WAT     H234227   2.572   2.915   0.295
11329WAT      O34228   8.873   4.297   7.321
11329WAT     H134229   8.866   4.289   7.221
11329WAT     H234230   8.791   4.258   7.363
11330WAT      O34231   1.792   6.827   8.036
11330WAT     H134232   1.804   6.730   8.018
11330WAT     H234233   1.696   6.847   8.052
11331WAT      O34234   1.836   4.632   8.721
11331WAT     H134235   1.876   4.558   8.775
11331WAT     H234236   1.820   4.711   8.780
11332WAT      O34237   7.207   1.250   4.229
11332WAT     H134238   7.124   1.281   4.276
11332WAT     H234239   7.284   1.307   4.256
11333WAT      O34240   7.058   2.764   6.810
11333WAT     H134241   6.974   2.816   6.828
11333WAT     H234242   7.036   2.667   6.799
11334WAT      O34243   8.623   8.584   5.193
11334WAT     H134244   8.541   8.529   5.208
11334WAT     H234245   8.658   8.616   5.281
11335WAT      O34246   2.034   6.549   0.335
11335WAT     H134247   2.031   6.641   0.374
11335WAT     H234248   2.110   6.542   0.271
11336WAT      O34249   6.227   4.113   1.148
11336WAT     H134250   6.183   4.110   1.238
11336WAT     H234251   6.194   4.192   1.097
11337WAT      O34252   4.703   5.530   6.970
11337WAT     H134253   4.700   5.624   6.935
11337WAT     H234254   4.795   5.493   6.958
11338WAT      O34255   3.133   9.480   7.763
11338WAT     H134256   3.212   9.538   7.782
11338WAT     H234257   3.087   9.512   7.680
11339WAT      O34258   3.698   2.702   8.648
11339WAT     H134259   3.768   2.648   8.695
11339WAT     H234260   3.705   2.798   8.676
11340WAT      O34261   1.942   1.338   9.180
11340WAT     H134262   2.029   1.290   9.191
11340WAT     H234263   1.936   1.375   9.087
11341WAT      O34264   5.643   1.675   9.742
11341WAT     H134265   5.615   1.669   9.647
11341WAT     H234266   5.740   1.697   9.748
11342WAT      O34267   3.246   0.325   4.984
11342WAT     H134268   3.243   0.281   5.073
11342WAT     H234269   3.341   0.338   4.956
11343WAT      O34270   6.716   4.405   2.754
11343WAT     H134271   6.684   4.335   2.691
11343WAT     H234272   6.808   4.435   2.727
11344WAT      O34273   3.097   7.003   9.699
11344WAT     H134274   3.167   6.967   9.761
11344WAT     H234275   3.030   6.932   9.678
11345WAT      O34276   1.322   3.578   3.956
11345WAT     H134277   1.403   3.535   3.918
11345WAT     H234278   1.325   3.676   3.940
11346WAT      O34279   7.799   8.635   5.874
11346WAT     H134280   7.847   8.548   5.864
11346WAT     H234281   7.739   8.631   5.953
11347WAT      O34282   7.356   3.844   3.477
11347WAT     H134283   7.270   3.797   3.499
11347WAT     H234284   7.337   3.941   3.461
11348WAT      O34285   9.885   6.455   3.043
11348WAT     H134286   9.877   6.361   3.078
11348WAT     H234287   9.940   6.455   2.960
11349WAT      O34288   8.398   7.924   0.215
11349WAT     H134289   8.350   7.871   0.285
11349WAT     H234290   8.358   7.904   0.125
11350WAT      O34291   3.894   3.228   5.109
11350WAT     H134292   3.984   3.244   5.067
11350WAT     H234293   3.824   3.224   5.038
11351WAT      O34294   9.401   9.305   8.284
11351WAT     H134295   9.481   9.365   8.282
11351WAT     H234296   9.320   9.357   8.256
11352WAT      O34297   5.198   6.168   0.612
11352WAT     H134298   5.227   6.251   0.659
11352WAT     H234299   5.263   6.094   0.631
11353WAT      O34300   5.684   7.877   1.428
11353WAT     H134301   5.702   7.806   1.360
11353WAT     H234302   5.594   7.861   1.468
11354WAT      O34303   7.437   1.877   6.806
11354WAT     H134304   7.364   1.923   6.857
11354WAT     H234305   7.480   1.808   6.865
11355WAT      O34306   1.593   0.537   2.730
11355WAT     H134307   1.534   0.584   2.795
11355WAT     H234308   1.622   0.602   2.658
11356WAT      O34309   2.560   4.692   9.067
11356WAT     H134310   2.588   4.627   9.137
11356WAT     H234311   2.628   4.765   9.060
11357WAT      O34312   8.243   0.576   5.064
11357WAT     H134313   8.342   0.565   5.052
11357WAT     H234314   8.226   0.630   5.146
11358WAT      O34315   8.358   9.054   5.220
11358WAT     H134316   8.398   9.086   5.306
11358WAT     H234317   8.423   9.070   5.145
11359WAT      O34318   3.729   3.533   2.793
11359WAT     H134319   3.721   3.462   2.724
11359WAT     H234320   3.638   3.567   2.817
11360WAT      O34321   5.836   4.011   7.332
11360WAT     H134322   5.846   3.941   7.402
11360WAT     H234323   5.750   3.997   7.282
11361WAT      O34324   5.130   1.093   1.169
11361WAT     H134325   5.084   1.088   1.080
11361WAT     H234326   5.147   1.000   1.202
11362WAT      O34327   8.115   0.323   8.320
11362WAT     H134328   8.164   0.242   8.287
11362WAT     H234329   8.143   0.342   8.415
11363WAT      O34330   5.113   1.017   9.831
11363WAT     H134331   5.117   0.943   9.764
11363WAT     H234332   5.097   1.104   9.784
11364WAT      O34333   0.010   5.875   9.477
11364WAT     H134334   0.104   5.868   9.443
11364WAT     H234335   0.005   5.836   9.569
11365WAT      O34336   8.677   9.536   2.244
11365WAT     H134337   8.641   9.535   2.151
11365WAT     H234338   8.671   9.444   2.283
11366WAT      O34339   2.682   2.015   7.468
11366WAT     H134340   2.683   2.108   7.505
11366WAT     H234341   2.611   2.007   7.399
11367WAT      O34342   3.701   8.885   6.171
11367WAT     H134343   3.781   8.911   6.117
11367WAT     H234344   3.633   8.843   6.112
11368WAT      O34345   3.924   7.457   8.169
11368WAT     H134346   4.013   7.466   8.125
11368WAT     H234347   3.895   7.361   8.168
11369WAT      O34348   8.307   0.299   0.200
11369WAT     H134349   8.388   0.249   0.231
11369WAT     H234350   8.335   0.390   0.169
11370WAT      O34351   5.845   3.316   3.025
11370WAT     H134352   5.865   3.224   3.058
11370WAT     H234353   5.877   3.325   2.931
11371WAT      O34354   8.184   0.675   2.035
11371WAT     H134355   8.220   0.582   2.037
11371WAT     H234356   8.243   0.733   1.980
11372WAT      O34357   9.732   1.522   3.344
11372WAT     H134358   9.759   1.443   3.399
11372WAT     H234359   9.814   1.573   3.316
11373WAT      O34360   6.342   3.363   9.257
11373WAT     H134361   6.347   3.265   9.242
11373WAT     H234362   6.394   3.411   9.186
11374WAT      O34363   1.057   6.443   5.994
11374WAT     H134364   0.987   6.509   6.020
11374WAT     H234365   1.064   6.372   6.065
11375WAT      O34366   2.918   8.694   6.854
11375WAT     H134367   2.941   8.732   6.764
11375WAT     H234368   2.823   8.665   6.854
11376WAT      O34369   6.459   8.842   7.628
11376WAT     H134370   6.418   8.835   7.537
11376WAT     H234371   6.414   8.778   7.690
11377WAT      O34372   5.138   4.344   1.149
11377WAT     H134373   5.187   4.423   1.112
11377WAT     H234374   5.156   4.264   1.091
11378WAT      O34375   4.042   2.279   0.370
11378WAT     H134376   4.129   2.284   0.420
11378WAT     H234377   4.047   2.339   0.290
11379WAT      O34378   7.174   5.274   3.917
11379WAT     H134379   7.223   5.189   3.898
11379WAT     H234380   7.126   5.303   3.834
11380WAT      O34381   4.695   3.249   3.845
11380WAT     H134382   4.601   3.284   3.851
11380WAT     H234383   4.696   3.152   3.868
11381WAT      O34384   4.192   1.263   3.801
11381WAT     H134385   4.117   1.326   3.780
11381WAT     H234386   4.159   1.169   3.793
11382WAT      O34387   1.888   1.594   5.437
11382WAT     H134388   1.919   1.509   5.394
11382WAT     H234389   1.928   1.601   5.528
11383WAT      O34390   6.570   2.347   8.228
11383WAT     H134391   6.486   2.382   8.186
11383WAT     H234392   6.559   2.345   8.327
11384WAT      O34393   8.911   0.372   5.174
11384WAT     H134394   8.864   0.295   5.131
11384WAT     H234395   9.008   0.369   5.151
11385WAT      O34396   2.803   4.177   6.621
11385WAT     H134397   2.897   4.208   6.606
11385WAT     H234398   2.763   4.228   6.697
11386WAT      O34399   8.466   5.711   0.854
11386WAT     H134400   8.398   5.771   0.894
11386WAT     H234401   8.531   5.681   0.925
11387WAT      O34402   2.687   1.256   0.344
11387WAT     H134403   2.646   1.175   0.301
11387WAT     H234404   2.783   1.236   0.367
11388WAT      O34405   3.543   2.459   9.802
11388WAT     H134406   3.531   2.390   9.874
11388WAT     H234407   3.478   2.533   9.816
11389WAT      O34408   6.571   7.315   6.436
11389WAT     H134409   6.526   7.333   6.523
11389WAT     H234410   6.583   7.401   6.386
11390WAT      O34411   0.441   9.761   9.480
11390WAT     H134412   0.536   9.746   9.505
11390WAT     H234413   0.436   9.806   9.390
11391WAT      O34414   2.838   6.324   6.946
11391WAT     H134415   2.866   6.332   7.041
11391WAT     H234416   2.849   6.229   6.915
11392WAT      O34417   3.535   6.440   4.119
11392WAT     H134418   3.555   6.419   4.023
11392WAT     H234419   3.498   6.358   4.163
11393WAT      O34420   8.906   8.123   3.960
11393WAT     H134421   8.927   8.215   3.994
11393WAT     H234422   8.888   8.127   3.861
11394WAT      O34423   4.797   9.622   7.643
11394WAT     H134424   4.750   9.607   7.556
11394WAT     H234425   4.750   9.694   7.694
11395WAT      O34426   3.946   8.732   7.610
11395WAT     H134427   4.010   8.694   7.676
11395WAT     H234428   3.993   8.747   7.523
11396WAT      O34429   6.532   0.899   9.839
11396WAT     H134430   6.505   0.981   9.891
11396WAT     H234431   6.621   0.867   9.871
11397WAT      O34432   3.975   5.226   7.233
11397WAT     H134433   3.906   5.160   7.263
11397WAT     H234434   3.929   5.311   7.205
11398WAT      O34435   5.981   5.081   1.209
11398WAT     H134436   5.968   5.164   1.154
11398WAT     H234437   6.010   5.107   1.301
11399WAT      O34438   9.449   1.487   3.734
11399WAT     H134439   9.495   1.567   3.695
11399WAT     H234440   9.471   1.406   3.681
11400WAT      O34441   6.423   3.824   5.385
11400WAT     H134442   6.334   3.849   5.423
11400WAT     H234443   6.490   3.895   5.407
11401WAT      O34444   1.532   2.255   2.443
11401WAT     H134445   1.462   2.302   2.497
11401WAT     H234446   1.618   2.304   2.449
11402WAT      O34447   4.503   8.946   1.061
11402WAT     H134448   4.407   8.970   1.053
11402WAT     H234449   4.511   8.850   1.090
11403WAT      O34450   9.170   4.745   8.245
11403WAT     H134451   9.083   4.755   8.196
11403WAT     H234452   9.214   4.834   8.252
11404WAT      O34453   7.101   4.869   3.455
11404WAT     H134454   7.156   4.855   3.537
11404WAT     H234455   7.140   4.944   3.401
11405WAT      O34456   2.707   1.140   8.429
11405WAT     H134457   2.710   1.121   8.331
11405WAT     H234458   2.631   1.088   8.470
11406WAT      O34459   6.498   4.068   4.751
11406WAT     H134460   6.449   4.110   4.674
11406WAT     H234461   6.477   3.970   4.754
11407WAT      O34462   8.052   5.914   1.586
11407WAT     H134463   8.131   5.890   1.530
11407WAT     H234464   7.985   5.840   1.583
11408WAT      O34465   7.016   0.792   5.150
11408WAT     H134466   6.992   0.758   5.059
11408WAT     H234467   6.937   0.784   5.211
11409WAT      O34468   7.393   6.974   2.824
11409WAT     H134469   7.457   6.906   2.860
11409WAT     H234470   7.359   6.944   2.735
11410WAT      O34471   1.167   4.903   4.876
11410WAT     H134472   1.179   4.950   4.789
11410WAT     H234473   1.171   4.804   4.862
11411WAT      O34474   4.281   0.700   8.589
11411WAT     H134475   4.336   0.668   8.512
11411WAT     H234476   4.198   0.644   8.597
11412WAT      O34477   2.187   6.337   1.389
11412WAT     H134478   2.274   6.385   1.403
11412WAT     H234479   2.113   6.391   1.428
11413WAT      O34480   1.587   3.221   5.885
11413WAT     H134481   1.536   3.287   5.831
11413WAT     H234482   1.562   3.128   5.857
11414WAT      O34483   4.924   1.082   2.947
11414WAT     H134484   4.873   1.001   2.975
11414WAT     H234485   4.956   1.131   3.029
11415WAT      O34486   3.073   9.260   1.218
11415WAT     H134487   3.123   9.324   1.160
11415WAT     H234488   3.033   9.308   1.295
11416WAT      O34489   8.921   2.499   8.618
11416WAT     H134490   8.953   2.495   8.713
11416WAT     H234491   8.973   2.434   8.563
11417WAT      O34492   5.209   3.039   6.038
11417WAT     H134493   5.114   3.067   6.022
11417WAT     H234494   5.216   2.940   6.032
11418WAT      O34495   1.818   7.929   8.277
11418WAT     H134496   1.858   7.957   8.364
11418WAT     H234497   1.867   7.849   8.242
11419WAT      O34498   4.202   1.211   8.605
11419WAT     H134499   4.180   1.113   8.602
11419WAT     H234500   4.266   1.229   8.680
11420WAT      O34501   7.936   3.803   7.292
11420WAT     H134502   7.866   3.863   7.330
11420WAT     H234503   7.936   3.716   7.341
11421WAT      O34504   0.904   3.597   8.762
11421WAT     H134505   0.925   3.518   8.705
11421WAT     H234506   0.953   3.677   8.727
11422WAT      O34507   4.017   6.585   2.337
11422WAT     H134508   3.921   6.614   2.345
11422WAT     H234509   4.032   6.547   2.246
11423WAT      O34510   3.782   0.285   4.271
11423WAT     H134511   3.790   0.199   4.220
11423WAT     H234512   3.717   0.273   4.346
11424WAT      O34513   6.070   4.445   3.172
11424WAT     H134514   6.075   4.406   3.080
11424WAT     H234515   6.070   4.371   3.239
11425WAT      O34516   6.923   5.661   5.613
11425WAT     H134517   6.929   5.590   5.683
11425WAT     H234518   7.007   5.715   5.613
11426WAT      O34519   7.470   2.305   4.118
11426WAT     H134520   7.552   2.344   4.160
11426WAT     H234521   7.407   2.378   4.092
11427WAT      O34522   7.265   5.445   7.074
11427WAT     H134523   7.277   5.416   7.168
11427WAT     H234524   7.353   5.479   7.039
11428WAT      O34525   4.691   7.176   5.355
11428WAT     H134526   4.656   7.132   5.438
11428WAT     H234527   4.661   7.125   5.275
11429WAT      O34528   2.533   2.124   7.804
11429WAT     H134529   2.563   2.061   7.876
11429WAT     H234530   2.463   2.080   7.749
11430WAT      O34531   4.895   7.844   2.486
11430WAT     H134532   4.895   7.766   2.549
11430WAT     H234533   4.963   7.910   2.517
11431WAT      O34534   6.503   3.725   3.356
11431WAT     H134535   6.507   3.688   3.449
11431WAT     H234536   6.409   3.727   3.324
11432WAT      O34537   9.778   5.390   6.427
11432WAT     H134538   9.813   5.299   6.404
11432WAT     H234539   9.726   5.385   6.511
11433WAT      O34540   8.684   3.498   0.566
11433WAT     H134541   8.665   3.419   0.625
11433WAT     H234542   8.779   3.496   0.536
11434WAT      O34543   4.301   2.352   2.097
11434WAT     H134544   4.277   2.340   2.193
11434WAT     H234545   4.227   2.316   2.040
11435WAT      O34546   3.507   2.265   0.096
11435WAT     H134547   3.511   2.316   0.181
11435WAT     H234548   3.437   2.195   0.102
11436WAT      O34549   0.737   8.024   1.716
11436WAT     H134550   0.716   8.111   1.671
11436WAT     H234551   0.768   8.042   1.809
11437WAT      O34552   2.313   3.990   1.290
11437WAT     H134553   2.370   3.950   1.362
11437WAT     H234554   2.220   4.000   1.323
11438WAT      O34555   2.884   2.038   4.896
11438WAT     H134556   2.960   1.989   4.938
11438WAT     H234557   2.846   1.984   4.821
11439WAT      O34558   5.661   5.702   1.748
11439WAT     H134559   5.592   5.630   1.755
11439WAT     H234560   5.712   5.708   1.833
11440WAT      O34561   3.777   4.664   9.320
11440WAT     H134562   3.802   4.595   9.252
11440WAT     H234563   3.794   4.755   9.282
11441WAT      O34564   8.804   8.461   0.798
11441WAT     H134565   8.726   8.400   0.803
11441WAT     H234566   8.819   8.490   0.704
11442WAT      O34567   6.078   0.493   2.986
11442WAT     H134568   6.063   0.440   3.070
11442WAT     H234569   6.081   0.590   3.008
11443WAT      O34570   8.628   6.140   5.399
11443WAT     H134571   8.670   6.053   5.371
11443WAT     H234572   8.574   6.125   5.481
11444WAT      O34573   6.509   3.308   7.534
11444WAT     H134574   6.426   3.349   7.573
11444WAT     H234575   6.565   3.380   7.493
11445WAT      O34576   9.686   8.194   9.333
11445WAT     H134577   9.606   8.206   9.393
11445WAT     H234578   9.688   8.267   9.265
11446WAT      O34579   6.288   3.284   9.761
11446WAT     H134580   6.326   3.373   9.736
11446WAT     H234581   6.255   3.237   9.679
11447WAT      O34582   8.105   1.969   6.612
11447WAT     H134583   8.201   1.949   6.595
11447WAT     H234584   8.098   2.054   6.664
11448WAT      O34585   2.125   4.918   5.671
11448WAT     H134586   2.093   4.823   5.677
11448WAT     H234587   2.049   4.978   5.648
11449WAT      O34588   4.481   7.069   8.472
11449WAT     H134589   4.538   7.119   8.537
11449WAT     H234590   4.397   7.041   8.517
11450WAT      O34591   3.380   6.646   2.246
11450WAT     H134592   3.432   6.670   2.328
11450WAT     H234593   3.443   6.626   2.171
11451WAT      O34594   2.952   2.071   0.541
11451WAT     H134595   2.889   2.016   0.486
11451WAT     H234596   2.932   2.056   0.638
11452WAT      O34597   7.522   8.734   7.851
11452WAT     H134598   7.549   8.808   7.790
11452WAT     H234599   7.428   8.748   7.883
11453WAT      O34600   3.898   8.962   2.490
11453WAT     H134601   3.850   8.875   2.480
11453WAT     H234602   3.831   9.036   2.490
11454WAT      O34603   3.112   8.915   4.263
11454WAT     H134604   3.180   8.971   4.311
11454WAT     H234605   3.040   8.888   4.327
11455WAT      O34606   9.807   9.613   3.705
11455WAT     H134607   9.890   9.667   3.688
11455WAT     H234608   9.746   9.622   3.627
11456WAT      O34609   3.605   8.477   0.259
11456WAT     H134610   3.639   8.509   0.171
11456WAT     H234611   3.653   8.393   0.285
11457WAT      O34612   0.667   0.897   5.802
11457WAT     H134613   0.651   0.935   5.894
11457WAT     H234614   0.613   0.948   5.735
11458WAT      O34615   2.454   5.478   7.833
11458WAT     H134616   2.416   5.500   7.923
11458WAT     H234617   2.456   5.379   7.821
11459WAT      O34618   6.967   8.022   1.646
11459WAT     H134619   6.970   8.110   1.693
11459WAT     H234620   7.022   7.955   1.695
11460WAT      O34621   4.597   4.111   6.649
11460WAT     H134622   4.547   4.108   6.735
11460WAT     H234623   4.686   4.067   6.660
11461WAT      O34624   1.120   8.391   6.404
11461WAT     H134625   1.163   8.301   6.419
11461WAT     H234626   1.110   8.438   6.492
11462WAT      O34627   3.590   2.452   8.323
11462WAT     H134628   3.628   2.360   8.315
11462WAT     H234629   3.663   2.520   8.321
11463WAT      O34630   9.487   2.799   8.277
11463WAT     H134631   9.497   2.892   8.242
11463WAT     H234632   9.571   2.771   8.323
11464WAT      O34633   1.104   0.579   3.984
11464WAT     H134634   1.086   0.537   4.073
11464WAT     H234635   1.136   0.673   3.998
11465WAT      O34636   0.048   9.501   2.460
11465WAT     H134637   0.123   9.450   2.419
11465WAT     H234638   0.064   9.599   2.450
11466WAT      O34639   3.091   5.895   7.287
11466WAT     H134640   3.190   5.892   7.302
11466WAT     H234641   3.044   5.893   7.376
11467WAT      O34642   7.863   9.691   1.976
11467WAT     H134643   7.876   9.778   2.023
11467WAT     H234644   7.777   9.649   2.007
11468WAT      O34645   1.130   7.498   2.916
11468WAT     H134646   1.110   7.404   2.941
11468WAT     H234647   1.086   7.519   2.828
11469WAT      O34648   7.253   2.566   9.874
11469WAT     H134649   7.324   2.636   9.881
11469WAT     H234650   7.167   2.602   9.907
11470WAT      O34651   4.399   2.540   7.494
11470WAT     H134652   4.353   2.473   7.437
11470WAT     H234653   4.428   2.618   7.439
11471WAT      O34654   3.606   5.614   6.583
11471WAT     H134655   3.626   5.651   6.492
11471WAT     H234656   3.507   5.614   6.598
11472WAT      O34657   4.635   7.188   9.779
11472WAT     H134658   4.644   7.196   9.680
11472WAT     H234659   4.544   7.154   9.802
11473WAT      O34660   5.854   8.230   5.243
11473WAT     H134661   5.821   8.136   5.240
11473WAT     H234662   5.930   8.237   5.307
11474WAT      O34663   7.642   1.149   7.470
11474WAT     H134664   7.717   1.130   7.406
11474WAT     H234665   7.679   1.197   7.550
11475WAT      O34666   4.868   8.749   6.029
11475WAT     H134667   4.925   8.680   5.984
11475WAT     H234668   4.918   8.835   6.033
11476WAT      O34669   3.485   4.105   8.174
11476WAT     H134670   3.459   4.182   8.116
11476WAT     H234671   3.573   4.068   8.143
11477WAT      O34672   4.864   9.238   5.191
11477WAT     H134673   4.925   9.215   5.115
11477WAT     H234674   4.788   9.293   5.156
11478WAT      O34675   0.193   1.121   6.098
11478WAT     H134676   0.113   1.181   6.086
11478WAT     H234677   0.243   1.149   6.179
11479WAT      O34678   8.079   8.004   1.499
11479WAT     H134679   8.023   8.016   1.417
11479WAT     H234680   8.019   7.997   1.579
11480WAT      O34681   6.077   0.361   4.519
11480WAT     H134682   5.992   0.383   4.471
11480WAT     H234683   6.153   0.412   4.478
11481WAT      O34684   8.398   2.264   6.178
11481WAT     H134685   8.493   2.252   6.150
11481WAT     H234686   8.383   2.218   6.265
11482WAT      O34687   5.856   8.452   5.542
11482WAT     H134688   5.945   8.425   5.504
11482WAT     H234689   5.860   8.446   5.642
11483WAT      O34690   5.285   7.526   1.008
11483WAT     H134691   5.188   7.510   1.027
11483WAT     H234692   5.331   7.437   0.998
11484WAT      O34693   0.052   3.754   3.354
11484WAT     H134694   0.132   3.721   3.403
11484WAT     H234695   0.010   3.829   3.405
11485WAT      O34696   1.902   0.226   9.693
11485WAT     H134697   1.891   0.239   9.792
11485WAT     H234698   1.889   0.129   9.671
11486WAT      O34699   6.824   9.410   5.886
11486WAT     H134700   6.743   9.461   5.917
11486WAT     H234701   6.854   9.348   5.958
11487WAT      O34702   0.320   3.409   7.639
11487WAT     H134703   0.407   3.413   7.590
11487WAT     H234704   0.245   3.406   7.573
11488WAT      O34705   4.886   8.093   9.667
11488WAT     H134706   4.930   8.179   9.644
11488WAT     H234707   4.786   8.106   9.668
11489WAT      O34708   3.467   4.527   0.788
11489WAT     H134709   3.406   4.590   0.739
11489WAT     H234710   3.544   4.579   0.826
11490WAT      O34711   6.239   6.136   5.524
11490WAT     H134712   6.305   6.096   5.588
11490WAT     H234713   6.151   6.089   5.533
11491WAT      O34714   7.636   5.091   4.297
11491WAT     H134715   7.615   5.186   4.320
11491WAT     H234716   7.567   5.056   4.234
11492WAT      O34717   7.319   1.631   3.329
11492WAT     H134718   7.388   1.639   3.401
11492WAT     H234719   7.232   1.601   3.369
11493WAT      O34720   7.603   4.535   3.848
11493WAT     H134721   7.633   4.445   3.879
11493WAT     H234722   7.504   4.544   3.862
11494WAT      O34723   4.378   7.515   1.726
11494WAT     H134724   4.431   7.546   1.805
11494WAT     H234725   4.403   7.420   1.704
11495WAT      O34726   8.798   4.012   2.588
11495WAT     H134727   8.724   3.951   2.557
11495WAT     H234728   8.824   3.987   2.681
11496WAT      O34729   0.707   9.185   9.190
11496WAT     H134730   0.721   9.133   9.275
11496WAT     H234731   0.720   9.124   9.112
11497WAT      O34732   0.606   2.649   5.557
11497WAT     H134733   0.583   2.721   5.623
11497WAT     H234734   0.537   2.646   5.485
11498WAT      O34735   6.649   3.072   7.227
11498WAT     H134736   6.571   3.022   7.189
11498WAT     H234737   6.728   3.059   7.166
11499WAT      O34738   8.847   8.063   7.481
11499WAT     H134739   8.790   7.996   7.529
11499WAT     H234740   8.792   8.113   7.415
11500WAT      O34741   0.320   8.466   3.644
11500WAT     H134742   0.348   8.388   3.700
11500WAT     H234743   0.253   8.435   3.577
11501WAT      O34744   6.423   2.855   6.678
11501WAT     H134745   6.471   2.942   6.666
11501WAT     H234746   6.331   2.862   6.638
11502WAT      O34747   9.248   7.735   4.178
11502WAT     H134748   9.281   7.767   4.267
11502WAT     H234749   9.173   7.792   4.147
11503WAT      O34750   5.833   6.358   5.757
11503WAT     H134751   5.876   6.296   5.823
11503WAT     H234752   5.852   6.326   5.664
11504WAT      O34753   2.336   7.313   4.760
11504WAT     H134754   2.337   7.401   4.809
11504WAT     H234755   2.243   7.295   4.727
11505WAT      O34756   4.309   5.933   3.071
11505WAT     H134757   4.262   5.990   3.004
11505WAT     H234758   4.385   5.985   3.111
11506WAT      O34759   7.834   6.982   4.214
11506WAT     H134760   7.746   7.027   4.200
11506WAT     H234761   7.874   6.958   4.126
11507WAT      O34762   0.927   3.222   9.524
11507WAT     H134763   0.987   3.250   9.450
11507WAT     H234764   0.881   3.302   9.563
11508WAT      O34765   6.477   5.674   9.642
11508WAT     H134766   6.489   5.611   9.566
11508WAT     H234767   6.528   5.758   9.624
11509WAT      O34768   2.889   3.177   4.163
11509WAT     H134769   2.898   3.275   4.179
11509WAT     H234770   2.806   3.159   4.111
11510WAT      O34771   5.673   4.122   1.289
11510WAT     H134772   5.731   4.199   1.314
11510WAT     H234773   5.577   4.150   1.289
11511WAT      O34774   7.294   8.211   9.603
11511WAT     H134775   7.334   8.175   9.519
11511WAT     H234776   7.263   8.135   9.660
11512WAT      O34777   3.352   4.946   8.138
11512WAT     H134778   3.343   4.863   8.193
11512WAT     H234779   3.406   5.014   8.187
11513WAT      O34780   3.534   9.217   3.510
11513WAT     H134781   3.582   9.247   3.428
11513WAT     H234782   3.461   9.282   3.532
11514WAT      O34783   3.707   6.087   4.976
11514WAT     H134784   3.640   6.014   4.965
11514WAT     H234785   3.789   6.066   4.922
11515WAT      O34786   3.560   0.942   3.138
11515WAT     H134787   3.476   0.981   3.101
11515WAT     H234788   3.586   0.990   3.221
11516WAT      O34789   8.006   3.604   1.440
11516WAT     H134790   8.007   3.558   1.529
11516WAT     H234791   7.987   3.537   1.368
11517WAT      O34792   9.141   9.595   1.735
11517WAT     H134793   9.133   9.613   1.832
11517WAT     H234794   9.238   9.588   1.710
11518WAT      O34795   2.231   8.250   7.377
11518WAT     H134796   2.143   8.292   7.398
11518WAT     H234797   2.276   8.300   7.303
11519WAT      O34798   8.417   1.222   8.816
11519WAT     H134799   8.466   1.293   8.868
11519WAT     H234800   8.451   1.132   8.843
11520WAT      O34801   9.787   7.710   0.574
11520WAT     H134802   9.728   7.708   0.493
11520WAT     H234803   9.791   7.619   0.615
11521WAT      O34804   3.249   3.689   1.209
11521WAT     H134805   3.274   3.731   1.296
11521WAT     H234806   3.256   3.756   1.136
11522WAT      O34807   6.651   1.014   1.383
11522WAT     H134808   6.735   1.001   1.331
11522WAT     H234809   6.673   1.033   1.479
11523WAT      O34810   3.525   4.716   5.343
11523WAT     H134811   3.471   4.747   5.422
11523WAT     H234812   3.621   4.742   5.356
11524WAT      O34813   3.146   1.815   2.194
11524WAT     H134814   3.066   1.830   2.253
11524WAT     H234815   3.179   1.722   2.207
11525WAT      O34816   0.376   4.094   4.470
11525WAT     H134817   0.455   4.064   4.416
11525WAT     H234818   0.327   4.014   4.505
11526WAT      O34819   0.198   1.706   4.704
11526WAT     H134820   0.228   1.657   4.623
11526WAT     H234821   0.205   1.647   4.784
11527WAT      O34822   3.130   8.108   4.682
11527WAT     H134823   3.204   8.107   4.749
11527WAT     H234824   3.075   8.191   4.694
11528WAT      O34825   3.625   2.025   6.926
11528WAT     H134826   3.550   1.965   6.955
11528WAT     H234827   3.589   2.095   6.865
11529WAT      O34828   6.579   7.474   3.559
11529WAT     H134829   6.634   7.411   3.503
11529WAT     H234830   6.554   7.430   3.645
11530WAT      O34831   5.695   2.220   4.894
11530WAT     H134832   5.789   2.230   4.861
11530WAT     H234833   5.667   2.125   4.886
11531WAT      O34834   7.853   6.533   0.273
11531WAT     H134835   7.798   6.573   0.200
11531WAT     H234836   7.943   6.508   0.236
11532WAT      O34837   2.946   7.337   0.137
11532WAT     H134838   2.938   7.324   0.236
11532WAT     H234839   2.970   7.251   0.094
11533WAT      O34840   1.808   3.413   9.181
11533WAT     H134841   1.812   3.356   9.099
11533WAT     H234842   1.733   3.477   9.174
11534WAT      O34843   9.383   6.182   3.459
11534WAT     H134844   9.412   6.152   3.368
11534WAT     H234845   9.453   6.156   3.526
11535WAT      O34846   2.367   3.571   6.504
11535WAT     H134847   2.390   3.585   6.600
11535WAT     H234848   2.283   3.518   6.497
11536WAT      O34849   0.118   7.657   1.526
11536WAT     H134850   0.176   7.603   1.587
11536WAT     H234851   0.129   7.755   1.546
11537WAT      O34852   1.091   8.320   3.461
11537WAT     H134853   1.117   8.412   3.487
11537WAT     H234854   1.104   8.258   3.538
11538WAT      O34855   8.528   3.487   2.165
11538WAT     H134856   8.526   3.564   2.101
11538WAT     H234857   8.619   3.446   2.165
11539WAT      O34858   2.981   9.621   0.273
11539WAT     H134859   3.028   9.708   0.289
11539WAT     H234860   2.997   9.591   0.179
11540WAT      O34861   3.434   0.807   2.700
11540WAT     H134862   3.409   0.891   2.749
11540WAT     H234863   3.510   0.827   2.639
11541WAT      O34864   2.255   5.665   0.537
11541WAT     H134865   2.206   5.736   0.588
11541WAT     H234866   2.353   5.683   0.542
11542WAT      O34867   4.671   9.392   5.448
11542WAT     H134868   4.597   9.352   5.394
11542WAT     H234869   4.736   9.437   5.387
11543WAT      O34870   5.358   6.571   6.792
11543WAT     H134871   5.291   6.529   6.854
11543WAT     H234872   5.392   6.501   6.729
11544WAT      O34873   1.334   6.951   4.850
11544WAT     H134874   1.316   6.893   4.929
11544WAT     H234875   1.396   6.904   4.788
11545WAT      O34876   6.497   9.748   2.667
11545WAT     H134877   6.531   9.756   2.761
11545WAT     H234878   6.571   9.767   2.603
11546WAT      O34879   3.012   5.112   3.944
11546WAT     H134880   3.046   5.123   4.037
11546WAT     H234881   3.084   5.076   3.886
11547WAT      O34882   6.612   8.646   4.502
11547WAT     H134883   6.597   8.548   4.513
11547WAT     H234884   6.536   8.696   4.543
11548WAT      O34885   4.452   1.570   7.384
11548WAT     H134886   4.523   1.604   7.321
11548WAT     H234887   4.447   1.470   7.377
11549WAT      O34888   8.538   9.704   7.759
11549WAT     H134889   8.470   9.742   7.821
11549WAT     H234890   8.606   9.653   7.811
11550WAT      O34891   7.121   5.040   8.088
11550WAT     H134892   7.107   5.040   8.188
11550WAT     H234893   7.178   5.117   8.062
11551WAT      O34894   5.944   0.393   6.728
11551WAT     H134895   5.892   0.478   6.742
11551WAT     H234896   5.901   0.339   6.656
11552WAT      O34897   8.321   4.387   5.771
11552WAT     H134898   8.263   4.335   5.709
11552WAT     H234899   8.304   4.358   5.865
11553WAT      O34900   9.639   7.347   5.927
11553WAT     H134901   9.696   7.414   5.974
11553WAT     H234902   9.604   7.386   5.842
11554WAT      O34903   2.588   5.382   8.175
11554WAT     H134904   2.577   5.480   8.185
11554WAT     H234905   2.622   5.361   8.083
11555WAT      O34906   4.386   4.139   2.067
11555WAT     H134907   4.404   4.238   2.071
11555WAT     H234908   4.404   4.099   2.157
11556WAT      O34909   9.866   7.229   9.198
11556WAT     H134910   9.810   7.148   9.181
11556WAT     H234911   9.852   7.260   9.292
11557WAT      O34912   4.372   7.258   1.663
11557WAT     H134913   4.347   7.203   1.743
11557WAT     H234914   4.446   7.214   1.614
11558WAT      O34915   2.000   2.947   2.844
11558WAT     H134916   1.900   2.947   2.848
11558WAT     H234917   2.034   2.853   2.841
11559WAT      O34918   5.490   0.073   6.301
11559WAT     H134919   5.569   0.118   6.259
11559WAT     H234920   5.521  -0.005   6.354
11560WAT      O34921   9.794   2.882   7.162
11560WAT     H134922   9.872   2.866   7.222
11560WAT     H234923   9.824   2.929   7.079
11561WAT      O34924   9.243   4.331   5.960
11561WAT     H134925   9.282   4.326   6.052
11561WAT     H234926   9.147   4.360   5.967
11562WAT      O34927   4.264   5.287   2.006
11562WAT     H134928   4.341   5.296   1.942
11562WAT     H234929   4.233   5.192   2.008
11563WAT      O34930   7.432   8.474   9.737
11563WAT     H134931   7.333   8.489   9.735
11563WAT     H234932   7.451   8.383   9.771
11564WAT      O34933   0.184   1.581   0.040
11564WAT     H134934   0.102   1.638   0.046
11564WAT     H234935   0.213   1.555   0.132
11565WAT      O34936   3.084   4.428   4.153
11565WAT     H134937   2.987   4.405   4.142
11565WAT     H234938   3.095   4.527   4.145
11566WAT      O34939   0.200   7.138   2.351
11566WAT     H134940   0.132   7.065   2.344
11566WAT     H234941   0.200   7.176   2.443
11567WAT      O34942   0.573   6.696   6.806
11567WAT     H134943   0.515   6.699   6.725
11567WAT     H234944   0.668   6.714   6.781
11568WAT      O34945   8.253   7.132   3.206
11568WAT     H134946   8.230   7.035   3.211
11568WAT     H234947   8.207   7.182   3.279
11569WAT      O34948   7.014   7.144   3.890
11569WAT     H134949   6.936   7.171   3.833
11569WAT     H234950   7.009   7.046   3.910
11570WAT      O34951   2.385   5.214   3.965
11570WAT     H134952   2.347   5.219   4.058
11570WAT     H234953   2.453   5.140   3.960
11571WAT      O34954   4.186   3.215   1.330
11571WAT     H134955   4.285   3.226   1.332
11571WAT     H234956   4.148   3.269   1.254
11572WAT      O34957   5.102   7.967   7.016
11572WAT     H134958   5.122   8.028   7.093
11572WAT     H234959   5.174   7.975   6.948
11573WAT      O34960   1.133   4.299   1.580
11573WAT     H134961   1.090   4.356   1.510
11573WAT     H234962   1.227   4.280   1.554
11574WAT      O34963   8.401   1.479   8.291
11574WAT     H134964   8.359   1.419   8.222
11574WAT     H234965   8.415   1.427   8.375
11575WAT      O34966   0.478   8.966   3.154
11575WAT     H134967   0.390   8.967   3.107
11575WAT     H234968   0.496   9.056   3.194
11576WAT      O34969   1.838   4.689   2.812
11576WAT     H134970   1.759   4.636   2.781
11576WAT     H234971   1.806   4.775   2.852
11577WAT      O34972   9.801   8.691   0.731
11577WAT     H134973   9.745   8.635   0.670
11577WAT     H234974   9.871   8.634   0.774
11578WAT      O34975   6.953   0.837   3.759
11578WAT     H134976   7.013   0.760   3.782
11578WAT     H234977   6.997   0.893   3.689
11579WAT      O34978   3.483   8.594   9.680
11579WAT     H134979   3.455   8.581   9.775
11579WAT     H234980   3.550   8.524   9.655
11580WAT      O34981   5.373   6.628   4.153
11580WAT     H134982   5.418   6.542   4.178
11580WAT     H234983   5.432   6.704   4.177
11581WAT      O34984   4.951   7.652   7.849
11581WAT     H134985   5.007   7.678   7.770
11581WAT     H234986   5.011   7.622   7.924
11582WAT      O34987   8.564   2.858   9.373
11582WAT     H134988   8.599   2.820   9.459
11582WAT     H234989   8.640   2.888   9.316
11583WAT      O34990   2.539   5.860   2.608
11583WAT     H134991   2.544   5.854   2.708
11583WAT     H234992   2.571   5.775   2.567
11584WAT      O34993   9.619   2.153   0.292
11584WAT     H134994   9.710   2.145   0.333
11584WAT     H234995   9.578   2.062   0.285
11585WAT      O34996   0.036   0.667   4.158
11585WAT     H134997   0.005   0.710   4.242
11585WAT     H234998  -0.023   0.694   4.082
11586WAT      O34999   2.054   5.460   1.448
11586WAT     H135000   2.026   5.366   1.466
11586WAT     H235001   1.984   5.523   1.480
11587WAT      O35002   6.932   5.144   2.981
11587WAT     H135003   6.865   5.072   2.963
11587WAT     H235004   6.957   5.189   2.895
11588WAT      O35005   9.620   5.023   2.467
11588WAT     H135006   9.648   4.935   2.504
11588WAT     H235007   9.615   5.090   2.541
11589WAT      O35008   1.860   1.809   8.738
11589WAT     H135009   1.904   1.876   8.798
11589WAT     H235010   1.761   1.824   8.740
11590WAT      O35011   9.436   4.126   0.342
11590WAT     H135012   9.481   4.117   0.253
11590WAT     H235013   9.477   4.063   0.407
11591WAT      O35014   2.385   2.804   2.498
11591WAT     H135015   2.441   2.878   2.460
11591WAT     H235016   2.291   2.835   2.506
11592WAT      O35017   3.343   9.302   0.060
11592WAT     H135018   3.256   9.290   0.108
11592WAT     H235019   3.359   9.399   0.044
11593WAT      O35020   3.732   4.195   9.645
11593WAT     H135021   3.746   4.104   9.608
11593WAT     H235022   3.704   4.257   9.572
11594WAT      O35023   7.486   4.506   6.072
11594WAT     H135024   7.490   4.420   6.123
11594WAT     H235025   7.433   4.573   6.123
11595WAT      O35026   1.792   0.015   5.353
11595WAT     H135027   1.725   0.009   5.279
11595WAT     H235028   1.791  -0.070   5.406
11596WAT      O35029   3.047   7.260   6.760
11596WAT     H135030   2.992   7.192   6.711
11596WAT     H235031   3.038   7.349   6.716
11597WAT      O35032   1.782   5.572   9.631
11597WAT     H135033   1.705   5.635   9.631
11597WAT     H235034   1.867   5.621   9.610
11598WAT      O35035   8.772   2.516   6.608
11598WAT     H135036   8.851   2.459   6.633
11598WAT     H235037   8.703   2.512   6.681
11599WAT      O35038   2.872   5.119   0.753
11599WAT     H135039   2.830   5.192   0.699
11599WAT     H235040   2.802   5.053   0.780
11600WAT      O35041   0.507   1.803   4.181
11600WAT     H135042   0.542   1.711   4.160
11600WAT     H235043   0.407   1.803   4.174
11601WAT      O35044   6.518   4.995   6.340
11601WAT     H135045   6.439   4.937   6.355
11601WAT     H235046   6.520   5.068   6.408
11602WAT      O35047   3.266   1.262   5.070
11602WAT     H135048   3.256   1.324   5.148
11602WAT     H235049   3.289   1.170   5.103
11603WAT      O35050   8.744   4.872   5.099
11603WAT     H135051   8.786   4.962   5.088
11603WAT     H235052   8.783   4.827   5.179
11604WAT      O35053   7.581   6.573   0.929
11604WAT     H135054   7.618   6.650   0.980
11604WAT     H235055   7.632   6.490   0.951
11605WAT      O35056   9.874   7.649   2.320
11605WAT     H135057   9.936   7.704   2.264
11605WAT     H235058   9.898   7.658   2.416
11606WAT      O35059   4.567   8.480   1.376
11606WAT     H135060   4.492   8.429   1.334
11606WAT     H235061   4.608   8.540   1.307
11607WAT      O35062   6.707   8.656   4.786
11607WAT     H135063   6.769   8.693   4.717
11607WAT     H235064   6.738   8.565   4.813
11608WAT      O35065   2.355   6.906   1.758
11608WAT     H135066   2.383   7.002   1.765
11608WAT     H235067   2.402   6.852   1.828
11609WAT      O35068   6.852   6.320   8.298
11609WAT     H135069   6.902   6.391   8.247
11609WAT     H235070   6.893   6.231   8.279
11610WAT      O35071   0.233   2.186   8.892
11610WAT     H135072   0.240   2.179   8.992
11610WAT     H235073   0.324   2.206   8.854
11611WAT      O35074   5.559   8.162   2.702
11611WAT     H135075   5.564   8.253   2.741
11611WAT     H235076   5.586   8.165   2.606
11612WAT      O35077   9.093   7.639   8.406
11612WAT     H135078   9.187   7.609   8.386
11612WAT     H235079   9.029   7.577   8.361
11613WAT      O35080   0.831   0.324   7.716
11613WAT     H135081   0.877   0.266   7.649
11613WAT     H235082   0.777   0.393   7.669
11614WAT      O35083   5.583   0.551   4.725
11614WAT     H135084   5.638   0.469   4.714
11614WAT     H235085   5.619   0.606   4.800
11615WAT      O35086   0.159   8.704   4.729
11615WAT     H135087   0.115   8.770   4.790
11615WAT     H235088   0.213   8.640   4.783
11616WAT      O35089   4.914   5.639   7.199
11616WAT     H135090   4.953   5.643   7.107
11616WAT     H235091   4.937   5.723   7.249
11617WAT      O35092   8.069   1.378   2.951
11617WAT     H135093   8.055   1.429   2.866
11617WAT     H235094   8.067   1.280   2.930
11618WAT      O35095   2.463   2.472   0.699
11618WAT     H135096   2.379   2.420   0.683
11618WAT     H235097   2.454   2.562   0.658
11619WAT      O35098   2.887   3.563   8.451
11619WAT     H135099   2.862   3.655   8.424
11619WAT     H235100   2.896   3.505   8.370
11620WAT      O35101   5.618   9.808   3.780
11620WAT     H135102   5.553   9.734   3.761
11620WAT     H235103   5.699   9.770   3.825
11621WAT      O35104   6.501   4.420   0.425
11621WAT     H135105   6.598   4.396   0.419
11621WAT     H235106   6.468   4.404   0.519
11622WAT      O35107   8.505   7.574   0.490
11622WAT     H135108   8.583   7.560   0.430
11622WAT     H235109   8.466   7.486   0.517
11623WAT      O35110   0.975   9.332   6.940
11623WAT     H135111   0.964   9.419   6.893
11623WAT     H235112   0.936   9.259   6.884
11624WAT      O35113   0.824   9.745   7.460
11624WAT     H135114   0.774   9.688   7.395
11624WAT     H235115   0.764   9.768   7.537
11625WAT      O35116   6.499   9.733   1.442
11625WAT     H135117   6.571   9.706   1.507
11625WAT     H235118   6.410   9.720   1.485
11626WAT      O35119   5.716   8.011   3.406
11626WAT     H135120   5.621   8.036   3.424
11626WAT     H235121   5.718   7.927   3.351
11627WAT      O35122   3.137   2.256   2.293
11627WAT     H135123   3.102   2.219   2.207
11627WAT     H235124   3.107   2.199   2.369
11628WAT      O35125   2.877   3.833   5.556
11628WAT     H135126   2.804   3.885   5.600
11628WAT     H235127   2.843   3.742   5.532
11629WAT      O35128   1.158   6.021   3.514
11629WAT     H135129   1.165   5.942   3.573
11629WAT     H235130   1.064   6.056   3.516
11630WAT      O35131   5.928   0.875   2.291
11630WAT     H135132   5.988   0.794   2.299
11630WAT     H235133   5.834   0.849   2.315
11631WAT      O35134   4.771   1.337   1.388
11631WAT     H135135   4.853   1.357   1.441
11631WAT     H235136   4.750   1.415   1.329
11632WAT      O35137   2.514   0.046   9.870
11632WAT     H135138   2.548  -0.031   9.924
11632WAT     H235139   2.589   0.110   9.854
11633WAT      O35140   4.256   3.132   6.603
11633WAT     H135141   4.177   3.185   6.570
11633WAT     H235142   4.337   3.190   6.603
11634WAT      O35143   1.689   1.024   5.001
11634WAT     H135144   1.627   0.946   4.996
11634WAT     H235145   1.747   1.015   5.082
11635WAT      O35146   9.522   8.798   2.440
11635WAT     H135147   9.566   8.765   2.357
11635WAT     H235148   9.585   8.788   2.517
11636WAT      O35149   7.327   1.062   9.654
11636WAT     H135150   7.282   1.128   9.714
11636WAT     H235151   7.401   1.017   9.705
11637WAT      O35152   6.782   5.239   6.895
11637WAT     H135153   6.735   5.151   6.889
11637WAT     H235154   6.788   5.281   6.805
11638WAT      O35155   3.500   1.468   9.849
11638WAT     H135156   3.468   1.559   9.875
11638WAT     H235157   3.423   1.414   9.816
11639WAT      O35158   0.177   9.459   5.765
11639WAT     H135159   0.077   9.464   5.778
11639WAT     H235160   0.199   9.385   5.703
11640WAT      O35161   9.259   3.287   9.460
11640WAT     H135162   9.257   3.297   9.361
11640WAT     H235163   9.169   3.308   9.498
11641WAT      O35164   9.022   5.889   6.311
11641WAT     H135165   8.973   5.833   6.243
11641WAT     H235166   9.110   5.916   6.274
11642WAT      O35167   6.061   0.285   9.225
11642WAT     H135168   6.071   0.368   9.280
11642WAT     H235169   6.092   0.206   9.278
11643WAT      O35170   6.060   4.344   1.986
11643WAT     H135171   6.143   4.396   2.007
11643WAT     H235172   5.998   4.348   2.064
11644WAT      O35173   9.353   8.298   5.226
11644WAT     H135174   9.415   8.254   5.291
11644WAT     H235175   9.304   8.229   5.174
11645WAT      O35176   1.173   0.267   8.290
11645WAT     H135177   1.267   0.302   8.292
11645WAT     H235178   1.164   0.200   8.216
11646WAT      O35179   5.549   3.006   8.878
11646WAT     H135180   5.597   2.966   8.800
11646WAT     H235181   5.579   2.961   8.962
11647WAT      O35182   2.496   6.619   5.245
11647WAT     H135183   2.403   6.650   5.264
11647WAT     H235184   2.556   6.698   5.229
11648WAT      O35185   6.949   3.400   8.909
11648WAT     H135186   6.961   3.438   9.001
11648WAT     H235187   6.975   3.304   8.908
11649WAT      O35188   5.575   7.478   3.081
11649WAT     H135189   5.619   7.400   3.036
11649WAT     H235190   5.488   7.498   3.037
11650WAT      O35191   7.569   5.552   0.131
11650WAT     H135192   7.487   5.529   0.079
11650WAT     H235193   7.548   5.626   0.196
11651WAT      O35194   6.426   0.651   0.934
11651WAT     H135195   6.356   0.703   0.983
11651WAT     H235196   6.462   0.579   0.993
11652WAT      O35197   1.323   1.277   2.404
11652WAT     H135198   1.390   1.242   2.339
11652WAT     H235199   1.294   1.203   2.464
11653WAT      O35200   5.181   7.094   7.087
11653WAT     H135201   5.252   7.055   7.027
11653WAT     H235202   5.221   7.119   7.175
11654WAT      O35203   4.183   5.725   8.858
11654WAT     H135204   4.210   5.630   8.846
11654WAT     H235205   4.140   5.737   8.947
11655WAT      O35206   9.158   2.754   6.591
11655WAT     H135207   9.147   2.843   6.548
11655WAT     H235208   9.173   2.684   6.520
11656WAT      O35209   1.679   9.669   7.841
11656WAT     H135210   1.778   9.651   7.835
11656WAT     H235211   1.651   9.723   7.762
11657WAT      O35212   0.289   4.266   8.925
11657WAT     H135213   0.215   4.321   8.886
11657WAT     H235214   0.376   4.315   8.916
11658WAT      O35215   7.838   5.470   8.312
11658WAT     H135216   7.870   5.425   8.396
11658WAT     H235217   7.904   5.540   8.285
11659WAT      O35218   5.457   9.697   1.600
11659WAT     H135219   5.502   9.719   1.687
11659WAT     H235220   5.525   9.662   1.536
11660WAT      O35221   2.698   5.771   6.979
11660WAT     H135222   2.678   5.807   6.888
11660WAT     H235223   2.788   5.805   7.009
11661WAT      O35224   0.939   5.106   8.272
11661WAT     H135225   0.987   5.193   8.282
11661WAT     H235226   0.989   5.034   8.320
11662WAT      O35227   5.982   8.569   0.917
11662WAT     H135228   6.012   8.595   1.009
11662WAT     H235229   5.914   8.635   0.885
11663WAT      O35230   8.701   4.138   6.490
11663WAT     H135231   8.681   4.236   6.496
11663WAT     H235232   8.664   4.091   6.570
11664WAT      O35233   9.051   5.542   2.824
11664WAT     H135234   9.085   5.516   2.914
11664WAT     H235235   8.991   5.622   2.833
11665WAT      O35236   2.393   1.972   7.619
11665WAT     H135237   2.385   1.872   7.627
11665WAT     H235238   2.430   1.995   7.529
11666WAT      O35239   0.224   1.421   7.460
11666WAT     H135240   0.265   1.511   7.474
11666WAT     H235241   0.153   1.405   7.528
11667WAT      O35242   3.663   8.998   3.073
11667WAT     H135243   3.621   8.955   3.153
11667WAT     H235244   3.630   9.092   3.064
11668WAT      O35245   1.895   2.339   1.829
11668WAT     H135246   1.821   2.291   1.875
11668WAT     H235247   1.973   2.347   1.890
11669WAT      O35248   4.777   1.412   9.644
11669WAT     H135249   4.742   1.430   9.736
11669WAT     H235250   4.704   1.373   9.588
11670WAT      O35251   2.749   9.054   2.457
11670WAT     H135252   2.690   8.976   2.433
11670WAT     H235253   2.809   9.074   2.380
11671WAT      O35254   4.965   7.346   2.685
11671WAT     H135255   4.960   7.256   2.643
11671WAT     H235256   5.040   7.349   2.751
11672WAT      O35257   3.138   7.870   5.758
11672WAT     H135258   3.091   7.877   5.670
11672WAT     H235259   3.082   7.816   5.821
11673WAT      O35260   9.688   2.414   8.007
11673WAT     H135261   9.663   2.331   8.057
11673WAT     H235262   9.607   2.450   7.959
11674WAT      O35263   8.657   0.732   4.944
11674WAT     H135264   8.623   0.728   4.850
11674WAT     H235265   8.721   0.657   4.960
11675WAT      O35266   0.003   2.362   8.205
11675WAT     H135267  -0.057   2.380   8.126
11675WAT     H235268   0.092   2.405   8.189
11676WAT      O35269   8.447   0.994   8.139
11676WAT     H135270   8.459   0.898   8.162
11676WAT     H235271   8.537   1.035   8.120
11677WAT      O35272   9.590   4.904   5.168
11677WAT     H135273   9.613   4.997   5.197
11677WAT     H235274   9.503   4.905   5.119
11678WAT      O35275   7.917   0.357   6.751
11678WAT     H135276   7.965   0.270   6.762
11678WAT     H235277   7.892   0.393   6.841
11679WAT      O35278   0.161   9.505   2.015
11679WAT     H135279   0.185   9.410   2.036
11679WAT     H235280   0.244   9.559   2.006
11680WAT      O35281   0.123   9.772   2.141
11680WAT     H135282   0.071   9.853   2.111
11680WAT     H235283   0.107   9.697   2.076
11681WAT      O35284   6.186   9.171   5.559
11681WAT     H135285   6.279   9.191   5.529
11681WAT     H235286   6.157   9.241   5.625
11682WAT      O35287   5.658   3.048   1.760
11682WAT     H135288   5.676   2.977   1.828
11682WAT     H235289   5.561   3.049   1.738
11683WAT      O35290   4.546   7.044   9.058
11683WAT     H135291   4.531   6.956   9.012
11683WAT     H235292   4.460   7.095   9.062
11684WAT      O35293   6.564   7.682   6.617
11684WAT     H135294   6.638   7.706   6.680
11684WAT     H235295   6.476   7.688   6.665
11685WAT      O35296   6.049   9.805   6.358
11685WAT     H135297   5.969   9.829   6.413
11685WAT     H235298   6.111   9.749   6.413
11686WAT      O35299   4.532   3.781   1.596
11686WAT     H135300   4.628   3.808   1.588
11686WAT     H235301   4.492   3.826   1.676
11687WAT      O35302   8.425   2.502   3.601
11687WAT     H135303   8.412   2.480   3.698
11687WAT     H235304   8.506   2.559   3.590
11688WAT      O35305   3.983   5.548   3.715
11688WAT     H135306   3.962   5.643   3.693
11688WAT     H235307   3.923   5.517   3.789
11689WAT      O35308   3.200   9.541   1.201
11689WAT     H135309   3.179   9.638   1.215
11689WAT     H235310   3.211   9.497   1.290
11690WAT      O35311   8.801   3.893   2.819
11690WAT     H135312   8.876   3.830   2.798
11690WAT     H235313   8.727   3.843   2.864
11691WAT      O35314   5.946   3.529   2.106
11691WAT     H135315   5.916   3.454   2.049
11691WAT     H235316   6.023   3.500   2.163
11692WAT      O35317   3.563   9.248   3.059
11692WAT     H135318   3.564   9.297   2.972
11692WAT     H235319   3.469   9.228   3.086
11693WAT      O35320   3.721   2.635   6.082
11693WAT     H135321   3.779   2.582   6.020
11693WAT     H235322   3.652   2.576   6.122
11694WAT      O35323   2.191   5.514   2.408
11694WAT     H135324   2.130   5.589   2.380
11694WAT     H235325   2.187   5.441   2.340
11695WAT      O35326   6.678   3.271   3.676
11695WAT     H135327   6.591   3.282   3.626
11695WAT     H235328   6.734   3.353   3.664
11696WAT      O35329   4.677   4.572   3.484
11696WAT     H135330   4.667   4.650   3.422
11696WAT     H235331   4.701   4.491   3.430
11697WAT      O35332   6.595   7.645   3.834
11697WAT     H135333   6.501   7.633   3.865
11697WAT     H235334   6.603   7.732   3.784
11698WAT      O35335   8.066   8.360   1.773
11698WAT     H135336   8.046   8.350   1.870
11698WAT     H235337   7.986   8.399   1.727
11699WAT      O35338   3.243   8.123   6.629
11699WAT     H135339   3.338   8.108   6.600
11699WAT     H235340   3.202   8.036   6.655
11700WAT      O35341   7.748   8.474   5.497
11700WAT     H135342   7.791   8.390   5.466
11700WAT     H235343   7.702   8.459   5.584
11701WAT      O35344   3.698   1.189   5.911
11701WAT     H135345   3.706   1.271   5.855
11701WAT     H235346   3.789   1.152   5.929
11702WAT      O35347   7.181   9.812   1.161
11702WAT     H135348   7.232   9.866   1.094
11702WAT     H235349   7.164   9.721   1.124
11703WAT      O35350   1.919   7.064   1.582
11703WAT     H135351   1.994   7.021   1.633
11703WAT     H235352   1.834   7.015   1.600
11704WAT      O35353   4.301   5.964   6.782
11704WAT     H135354   4.241   6.036   6.749
11704WAT     H235355   4.357   5.930   6.707
11705WAT      O35356   4.690   4.549   7.898
11705WAT     H135357   4.755   4.485   7.938
11705WAT     H235358   4.621   4.573   7.966
11706WAT      O35359   4.650   2.196   0.885
11706WAT     H135360   4.645   2.114   0.943
11706WAT     H235361   4.735   2.245   0.904
11707WAT      O35362   0.261   1.221   5.289
11707WAT     H135363   0.220   1.131   5.283
11707WAT     H235364   0.308   1.243   5.203
11708WAT      O35365   5.948   1.525   1.640
11708WAT     H135366   5.886   1.504   1.716
11708WAT     H235367   5.941   1.622   1.618
11709WAT      O35368   1.331   4.653   4.774
11709WAT     H135369   1.255   4.623   4.716
11709WAT     H235370   1.417   4.632   4.729
11710WAT      O35371   4.778   1.260   9.010
11710WAT     H135372   4.843   1.189   9.036
11710WAT     H235373   4.807   1.303   8.925
11711WAT      O35374   7.274   4.475   5.820
11711WAT     H135375   7.328   4.554   5.849
11711WAT     H235376   7.292   4.456   5.723
11712WAT      O35377   1.120   2.548   8.970
11712WAT     H135378   1.129   2.610   8.891
11712WAT     H235379   1.075   2.464   8.941
11713WAT      O35380   8.105   7.027   8.477
11713WAT     H135381   8.012   6.990   8.475
11713WAT     H235382   8.134   7.037   8.572
11714WAT      O35383   5.831   7.391   8.710
11714WAT     H135384   5.886   7.362   8.789
11714WAT     H235385   5.891   7.404   8.631
11715WAT      O35386   4.269   8.857   3.786
11715WAT     H135387   4.240   8.928   3.722
11715WAT     H235388   4.234   8.768   3.755
11716WAT      O35389   3.494   1.078   4.414
11716WAT     H135390   3.406   1.105   4.453
11716WAT     H235391   3.563   1.147   4.436
11717WAT      O35392   3.471   7.991   9.498
11717WAT     H135393   3.488   8.012   9.401
11717WAT     H235394   3.473   8.075   9.551
11718WAT      O35395   7.562   9.629   6.085
11718WAT     H135396   7.569   9.557   6.016
11718WAT     H235397   7.602   9.597   6.171
11719WAT      O35398   6.592   4.927   3.526
11719WAT     H135399   6.623   4.922   3.621
11719WAT     H235400   6.667   4.960   3.469
11720WAT      O35401   8.049   3.298   7.187
11720WAT     H135402   8.082   3.206   7.166
11720WAT     H235403   8.039   3.350   7.101
11721WAT      O35404   4.948   7.415   3.001
11721WAT     H135405   4.921   7.387   3.093
11721WAT     H235406   4.987   7.336   2.952
11722WAT      O35407   9.754   1.993   2.159
11722WAT     H135408   9.692   1.922   2.192
11722WAT     H235409   9.781   2.052   2.235
11723WAT      O35410   6.648   8.750   5.923
11723WAT     H135411   6.557   8.740   5.882
11723WAT     H235412   6.686   8.660   5.943
11724WAT      O35413   9.468   8.440   4.264
11724WAT     H135414   9.507   8.461   4.354
11724WAT     H235415   9.480   8.343   4.245
11725WAT      O35416   5.158   7.578   6.107
11725WAT     H135417   5.177   7.654   6.169
11725WAT     H235418   5.193   7.493   6.147
11726WAT      O35419   9.076   1.821   2.252
11726WAT     H135420   9.033   1.859   2.333
11726WAT     H235421   9.037   1.731   2.232
11727WAT      O35422   1.850   4.184   3.515
11727WAT     H135423   1.944   4.180   3.480
11727WAT     H235424   1.852   4.183   3.615
11728WAT      O35425   8.939   2.434   2.085
11728WAT     H135426   9.028   2.464   2.050
11728WAT     H235427   8.876   2.512   2.086
11729WAT      O35428   1.243   9.177   9.401
11729WAT     H135429   1.299   9.210   9.324
11729WAT     H235430   1.301   9.123   9.463
11730WAT      O35431   6.021   2.793   9.555
11730WAT     H135432   6.115   2.763   9.537
11730WAT     H235433   5.960   2.713   9.553
11731WAT      O35434   0.378   2.576   8.600
11731WAT     H135435   0.330   2.496   8.565
11731WAT     H235436   0.474   2.573   8.572
11732WAT      O35437   6.754   1.345   7.354
11732WAT     H135438   6.716   1.349   7.262
11732WAT     H235439   6.852   1.360   7.351
11733WAT      O35440   5.257   8.659   6.268
11733WAT     H135441   5.210   8.583   6.224
11733WAT     H235442   5.351   8.665   6.233
11734WAT      O35443   4.747   9.690   6.096
11734WAT     H135444   4.672   9.647   6.045
11734WAT     H235445   4.755   9.647   6.186
11735WAT      O35446   0.461   4.083   7.390
11735WAT     H135447   0.531   4.124   7.332
11735WAT     H235448   0.494   4.080   7.484
11736WAT      O35449   0.768   2.112   0.813
11736WAT     H135450   0.784   2.198   0.861
11736WAT     H235451   0.673   2.108   0.782
11737WAT      O35452   0.388   0.162   0.077
11737WAT     H135453   0.451   0.210   0.139
11737WAT     H235454   0.344   0.088   0.126
11738WAT      O35455   7.684   2.914   4.658
11738WAT     H135456   7.757   2.972   4.693
11738WAT     H235457   7.701   2.894   4.561
11739WAT      O35458   6.588   7.362   3.190
11739WAT     H135459   6.583   7.403   3.099
11739WAT     H235460   6.620   7.267   3.181
11740WAT      O35461   8.791   7.005   1.140
11740WAT     H135462   8.833   7.080   1.089
11740WAT     H235463   8.844   6.921   1.126
11741WAT      O35464   6.506   1.235   2.649
11741WAT     H135465   6.458   1.167   2.593
11741WAT     H235466   6.562   1.294   2.590
11742WAT      O35467   3.270   0.668   1.090
11742WAT     H135468   3.257   0.601   1.164
11742WAT     H235469   3.366   0.672   1.065
11743WAT      O35470   0.689   2.062   1.063
11743WAT     H135471   0.687   2.127   0.987
11743WAT     H235472   0.713   2.110   1.147
11744WAT      O35473   4.414   2.680   9.349
11744WAT     H135474   4.487   2.740   9.316
11744WAT     H235475   4.452   2.589   9.370
11745WAT      O35476   3.767   5.963   4.389
11745WAT     H135477   3.848   6.021   4.377
11745WAT     H235478   3.778   5.880   4.334
11746WAT      O35479   5.842   5.863   3.442
11746WAT     H135480   5.858   5.862   3.344
11746WAT     H235481   5.888   5.942   3.483
11747WAT      O35482   4.214   6.186   5.172
11747WAT     H135483   4.269   6.222   5.247
11747WAT     H235484   4.147   6.121   5.208
11748WAT      O35485   2.561   2.459   3.882
11748WAT     H135486   2.572   2.446   3.980
11748WAT     H235487   2.649   2.446   3.836
11749WAT      O35488   5.039   6.812   2.098
11749WAT     H135489   5.025   6.842   2.004
11749WAT     H235490   4.990   6.726   2.114
11750WAT      O35491   3.254   9.537   5.867
11750WAT     H135492   3.328   9.474   5.843
11750WAT     H235493   3.287   9.606   5.930
11751WAT      O35494   2.025   3.366   3.521
11751WAT     H135495   2.033   3.277   3.567
11751WAT     H235496   2.063   3.359   3.429
11752WAT      O35497   0.490   8.775   3.384
11752WAT     H135498   0.457   8.824   3.303
11752WAT     H235499   0.499   8.678   3.363
11753WAT      O35500   9.584   9.605   6.355
11753WAT     H135501   9.646   9.679   6.382
11753WAT     H235502   9.494   9.620   6.398
11754WAT      O35503   7.530   0.911   7.917
11754WAT     H135504   7.604   0.917   7.984
11754WAT     H235505   7.556   0.962   7.834
11755WAT      O35506   8.977   0.908   6.591
11755WAT     H135507   9.026   0.874   6.671
11755WAT     H235508   9.035   0.973   6.541
11756WAT      O35509   4.275   2.635   8.609
11756WAT     H135510   4.352   2.599   8.556
11756WAT     H235511   4.190   2.617   8.561
11757WAT      O35512   0.057   6.865   3.720
11757WAT     H135513   0.079   6.962   3.728
11757WAT     H235514  -0.042   6.854   3.707
11758WAT      O35515   8.152   7.261   4.939
11758WAT     H135516   8.197   7.291   4.855
11758WAT     H235517   8.188   7.313   5.017
11759WAT      O35518   4.017   4.456   0.005
11759WAT     H135519   4.016   4.438  -0.093
11759WAT     H235520   4.112   4.455   0.038
11760WAT      O35521   2.386   6.529   1.412
11760WAT     H135522   2.394   6.529   1.313
11760WAT     H235523   2.331   6.607   1.442
11761WAT      O35524   3.770   5.501   5.711
11761WAT     H135525   3.848   5.438   5.715
11761WAT     H235526   3.797   5.590   5.748
11762WAT      O35527   2.449   3.780   8.454
11762WAT     H135528   2.492   3.733   8.532
11762WAT     H235529   2.401   3.861   8.487
11763WAT      O35530   4.702   8.558   8.426
11763WAT     H135531   4.694   8.656   8.443
11763WAT     H235532   4.796   8.534   8.404
11764WAT      O35533   1.548   2.501   2.132
11764WAT     H135534   1.643   2.529   2.119
11764WAT     H235535   1.530   2.420   2.077
11765WAT      O35536   0.918   1.065   4.633
11765WAT     H135537   0.961   0.986   4.677
11765WAT     H235538   0.989   1.130   4.604
11766WAT      O35539   8.922   2.468   6.974
11766WAT     H135540   8.832   2.491   6.939
11766WAT     H235541   8.944   2.373   6.950
11767WAT      O35542   6.760   8.388   4.845
11767WAT     H135543   6.828   8.390   4.918
11767WAT     H235544   6.683   8.332   4.873
11768WAT      O35545   8.924   0.281   3.127
11768WAT     H135546   9.023   0.284   3.145
11768WAT     H235547   8.883   0.207   3.180
11769WAT      O35548   8.254   5.856   1.421
11769WAT     H135549   8.346   5.882   1.449
11769WAT     H235550   8.257   5.770   1.370
11770WAT      O35551   2.345   0.226   2.719
11770WAT     H135552   2.248   0.234   2.738
11770WAT     H235553   2.360   0.167   2.641
11771WAT      O35554   5.995   8.154   8.282
11771WAT     H135555   5.929   8.169   8.209
11771WAT     H235556   6.087   8.177   8.250
11772WAT      O35557   2.188   6.992   0.923
11772WAT     H135558   2.220   6.900   0.900
11772WAT     H235559   2.089   6.990   0.937
11773WAT      O35560   2.102   3.773   8.970
11773WAT     H135561   2.133   3.852   8.917
11773WAT     H235562   2.140   3.779   9.063
11774WAT      O35563   7.825   1.600   3.356
11774WAT     H135564   7.866   1.614   3.266
11774WAT     H235565   7.765   1.677   3.377
11775WAT      O35566   8.898   3.879   8.168
11775WAT     H135567   8.803   3.886   8.198
11775WAT     H235568   8.928   3.966   8.131
11776WAT      O35569   7.879   4.378   2.976
11776WAT     H135570   7.810   4.332   2.920
11776WAT     H235571   7.842   4.395   3.067
11777WAT      O35572   1.004   4.757   7.767
11777WAT     H135573   0.966   4.812   7.693
11777WAT     H235574   1.063   4.814   7.824
11778WAT      O35575   3.290   7.296   6.651
11778WAT     H135576   3.263   7.306   6.556
11778WAT     H235577   3.213   7.261   6.704
11779WAT      O35578   1.231   3.239   9.391
11779WAT     H135579   1.161   3.292   9.343
11779WAT     H235580   1.321   3.268   9.360
11780WAT      O35581   9.212   6.088   0.772
11780WAT     H135582   9.124   6.097   0.819
11780WAT     H235583   9.203   6.023   0.697
11781WAT      O35584   0.227   0.847   9.754
11781WAT     H135585   0.176   0.916   9.703
11781WAT     H235586   0.170   0.811   9.828
11782WAT      O35587   4.291   1.970   8.167
11782WAT     H135588   4.239   1.885   8.175
11782WAT     H235589   4.389   1.951   8.175
11783WAT      O35590   6.234   5.643   0.745
11783WAT     H135591   6.233   5.626   0.843
11783WAT     H235592   6.141   5.657   0.712
11784WAT      O35593   1.886   6.699   3.671
11784WAT     H135594   1.925   6.626   3.614
11784WAT     H235595   1.787   6.693   3.668
11785WAT      O35596   9.617   4.778   3.183
11785WAT     H135597   9.657   4.839   3.115
11785WAT     H235598   9.518   4.791   3.185
11786WAT      O35599   7.963   7.042   3.104
11786WAT     H135600   7.994   7.101   3.029
11786WAT     H235601   7.882   7.082   3.147
11787WAT      O35602   0.660   9.264   6.394
11787WAT     H135603   0.586   9.196   6.388
11787WAT     H235604   0.667   9.297   6.488
11788WAT      O35605   1.699   8.601   2.208
11788WAT     H135606   1.726   8.513   2.246
11788WAT     H235607   1.761   8.672   2.241
11789WAT      O35608   8.218   2.345   7.082
11789WAT     H135609   8.246   2.439   7.100
11789WAT     H235610   8.131   2.326   7.127
11790WAT      O35611   6.136   0.749   3.031
11790WAT     H135612   6.138   0.848   3.018
11790WAT     H235613   6.222   0.718   3.070
11791WAT      O35614   5.563   3.820   0.791
11791WAT     H135615   5.544   3.769   0.707
11791WAT     H235616   5.660   3.811   0.813
11792WAT      O35617   7.288   0.242   6.498
11792WAT     H135618   7.211   0.282   6.449
11792WAT     H235619   7.372   0.292   6.476
11793WAT      O35620   3.916   5.584   9.539
11793WAT     H135621   3.841   5.548   9.483
11793WAT     H235622   3.908   5.684   9.544
11794WAT      O35623   6.817   0.174   6.168
11794WAT     H135624   6.887   0.108   6.140
11794WAT     H235625   6.812   0.246   6.100
11795WAT      O35626   6.267   4.131   9.145
11795WAT     H135627   6.308   4.195   9.079
11795WAT     H235628   6.337   4.069   9.179
11796WAT      O35629   2.123   3.033   0.438
11796WAT     H135630   2.060   2.970   0.483
11796WAT     H235631   2.140   3.112   0.498
11797WAT      O35632   0.122   8.204   6.833
11797WAT     H135633   0.062   8.144   6.779
11797WAT     H235634   0.075   8.290   6.851
11798WAT      O35635   8.118   9.613   1.563
11798WAT     H135636   8.162   9.543   1.620
11798WAT     H235637   8.058   9.669   1.619
11799WAT      O35638   4.479   4.142   6.892
11799WAT     H135639   4.467   4.058   6.944
11799WAT     H235640   4.542   4.202   6.941
11800WAT      O35641   2.884   2.440   4.503
11800WAT     H135642   2.955   2.492   4.455
11800WAT     H235643   2.865   2.356   4.452
11801WAT      O35644   4.271   4.602   8.972
11801WAT     H135645   4.356   4.582   8.925
11801WAT     H235646   4.197   4.615   8.905
11802WAT      O35647   8.585   4.277   5.219
11802WAT     H135648   8.684   4.279   5.237
11802WAT     H235649   8.537   4.328   5.290
11803WAT      O35650   8.412   8.417   4.237
11803WAT     H135651   8.450   8.499   4.193
11803WAT     H235652   8.406   8.432   4.336
11804WAT      O35653   7.911   4.353   6.419
11804WAT     H135654   7.912   4.348   6.320
11804WAT     H235655   7.819   4.375   6.451
11805WAT      O35656   0.078   6.892   7.570
11805WAT     H135657   0.068   6.872   7.668
11805WAT     H235658   0.037   6.982   7.551
11806WAT      O35659   7.255   8.933   9.028
11806WAT     H135660   7.336   8.928   8.969
11806WAT     H235661   7.172   8.935   8.971
11807WAT      O35662   8.009   5.717   8.294
11807WAT     H135663   7.968   5.772   8.367
11807WAT     H235664   8.107   5.737   8.288
11808WAT      O35665   0.396   5.071   7.147
11808WAT     H135666   0.413   4.991   7.089
11808WAT     H235667   0.315   5.120   7.114
11809WAT      O35668   1.630   4.547   3.006
11809WAT     H135669   1.682   4.463   3.024
11809WAT     H235670   1.625   4.563   2.907
11810WAT      O35671   5.092   9.213   5.038
11810WAT     H135672   5.081   9.147   4.964
11810WAT     H235673   5.176   9.195   5.088
11811WAT      O35674   8.635   0.310   4.670
11811WAT     H135675   8.671   0.332   4.579
11811WAT     H235676   8.538   0.334   4.674
11812WAT      O35677   0.549   0.913   8.006
11812WAT     H135678   0.599   0.838   7.962
11812WAT     H235679   0.611   0.991   8.016
11813WAT      O35680   5.714   3.529   9.701
11813WAT     H135681   5.615   3.539   9.697
11813WAT     H235682   5.746   3.471   9.626
11814WAT      O35683   0.043   2.760   8.150
11814WAT     H135684   0.004   2.674   8.118
11814WAT     H235685   0.052   2.759   8.249
11815WAT      O35686   2.432   3.748   9.498
11815WAT     H135687   2.335   3.770   9.484
11815WAT     H235688   2.489   3.815   9.451
11816WAT      O35689   7.715   1.037   0.072
11816WAT     H135690   7.654   1.000   0.142
11816WAT     H235691   7.683   1.128   0.044
11817WAT      O35692   6.163   6.412   1.430
11817WAT     H135693   6.169   6.489   1.493
11817WAT     H235694   6.256   6.381   1.406
11818WAT      O35695   9.675   4.996   0.127
11818WAT     H135696   9.749   5.037   0.180
11818WAT     H235697   9.712   4.926   0.066
11819WAT      O35698   4.065   9.694   4.686
11819WAT     H135699   3.967   9.694   4.708
11819WAT     H235700   4.099   9.788   4.684
11820WAT      O35701   8.488   5.064   3.805
11820WAT     H135702   8.533   5.115   3.878
11820WAT     H235703   8.401   5.028   3.838
11821WAT      O35704   6.424   5.458   7.118
11821WAT     H135705   6.466   5.401   7.188
11821WAT     H235706   6.353   5.406   7.070
11822WAT      O35707   0.736   5.317   3.584
11822WAT     H135708   0.744   5.223   3.617
11822WAT     H235709   0.677   5.320   3.504
11823WAT      O35710   6.257   6.833   2.761
11823WAT     H135711   6.245   6.736   2.740
11823WAT     H235712   6.295   6.880   2.682
11824WAT      O35713   7.955   3.368   6.318
11824WAT     H135714   7.921   3.274   6.314
11824WAT     H235715   7.901   3.426   6.257
11825WAT      O35716   8.762   9.713   6.878
11825WAT     H135717   8.804   9.663   6.954
11825WAT     H235718   8.737   9.650   6.805
11826WAT      O35719   4.850   1.392   0.462
11826WAT     H135720   4.924   1.382   0.395
11826WAT     H235721   4.863   1.326   0.536
11827WAT      O35722   8.689   4.113   6.085
11827WAT     H135723   8.745   4.181   6.134
11827WAT     H235724   8.744   4.071   6.013
11828WAT      O35725   1.339   4.954   5.654
11828WAT     H135726   1.390   4.871   5.676
11828WAT     H235727   1.272   4.972   5.726
11829WAT      O35728   3.768   1.108   9.455
11829WAT     H135729   3.728   1.200   9.444
11829WAT     H235730   3.704   1.051   9.506
11830WAT      O35731   0.675   3.681   5.094
11830WAT     H135732   0.682   3.751   5.165
11830WAT     H235733   0.736   3.606   5.115
11831WAT      O35734   9.249   1.339   8.281
11831WAT     H135735   9.309   1.262   8.259
11831WAT     H235736   9.158   1.321   8.245
11832WAT      O35737   4.529   9.728   8.488
11832WAT     H135738   4.438   9.695   8.514
11832WAT     H235739   4.587   9.732   8.570
11833WAT      O35740   6.303   5.697   8.110
11833WAT     H135741   6.373   5.637   8.147
11833WAT     H235742   6.230   5.709   8.177
11834WAT      O35743   6.378   9.409   3.176
11834WAT     H135744   6.414   9.366   3.093
11834WAT     H235745   6.446   9.401   3.249
11835WAT      O35746   2.051   9.410   9.465
11835WAT     H135747   2.005   9.322   9.462
11835WAT     H235748   2.025   9.464   9.385
11836WAT      O35749   0.524   8.326   4.380
11836WAT     H135750   0.463   8.308   4.303
11836WAT     H235751   0.478   8.302   4.465
11837WAT      O35752   0.266   3.118   1.970
11837WAT     H135753   0.318   3.093   1.889
11837WAT     H235754   0.268   3.043   2.036
11838WAT      O35755   0.403   1.700   0.977
11838WAT     H135756   0.345   1.750   1.041
11838WAT     H235757   0.495   1.740   0.978
11839WAT      O35758   6.349   3.218   2.655
11839WAT     H135759   6.384   3.275   2.729
11839WAT     H235760   6.284   3.270   2.600
11840WAT      O35761   2.872   7.736   7.276
11840WAT     H135762   2.951   7.721   7.217
11840WAT     H235763   2.891   7.810   7.340
11841WAT      O35764   6.746   8.306   0.108
11841WAT     H135765   6.654   8.267   0.108
11841WAT     H235766   6.765   8.346   0.197
11842WAT      O35767   7.292   1.603   6.200
11842WAT     H135768   7.381   1.561   6.180
11842WAT     H235769   7.229   1.534   6.234
11843WAT      O35770   4.691   0.798   6.249
11843WAT     H135771   4.694   0.753   6.339
11843WAT     H235772   4.616   0.864   6.248
11844WAT      O35773   1.074   8.138   3.672
11844WAT     H135774   1.098   8.041   3.671
11844WAT     H235775   0.988   8.151   3.721
11845WAT      O35776   5.051   7.220   5.151
11845WAT     H135777   5.134   7.179   5.114
11845WAT     H235778   5.043   7.314   5.119
11846WAT      O35779   0.968   8.296   7.567
11846WAT     H135780   0.954   8.394   7.584
11846WAT     H235781   0.886   8.245   7.593
11847WAT      O35782   8.767   8.371   1.096
11847WAT     H135783   8.832   8.360   1.021
11847WAT     H235784   8.730   8.282   1.122
11848WAT      O35785   2.658   8.373   7.555
11848WAT     H135786   2.679   8.407   7.463
11848WAT     H235787   2.599   8.292   7.548
11849WAT      O35788   0.685   6.755   7.361
11849WAT     H135789   0.601   6.801   7.391
11849WAT     H235790   0.753   6.824   7.335
11850WAT      O35791   7.915   5.722   2.185
11850WAT     H135792   7.975   5.652   2.146
11850WAT     H235793   7.867   5.770   2.112
11851WAT      O35794   1.595   1.331   2.680
11851WAT     H135795   1.506   1.298   2.648
11851WAT     H235796   1.664   1.262   2.663
11852WAT      O35797   4.684   6.170   2.242
11852WAT     H135798   4.591   6.133   2.242
11852WAT     H235799   4.749   6.095   2.234
11853WAT      O35800   0.661   3.028   6.348
11853WAT     H135801   0.639   3.033   6.251
11853WAT     H235802   0.692   2.936   6.371
11854WAT      O35803   0.569   5.984   3.986
11854WAT     H135804   0.650   5.932   4.013
11854WAT     H235805   0.487   5.934   4.011
11855WAT      O35806   7.685   5.644   4.505
11855WAT     H135807   7.681   5.726   4.449
11855WAT     H235808   7.724   5.569   4.452
11856WAT      O35809   7.307   3.658   1.623
11856WAT     H135810   7.324   3.757   1.623
11856WAT     H235811   7.373   3.613   1.563
11857WAT      O35812   4.855   8.383   0.915
11857WAT     H135813   4.950   8.378   0.884
11857WAT     H235814   4.800   8.318   0.862
11858WAT      O35815   8.589   3.545   0.016
11858WAT     H135816   8.535   3.492  -0.049
11858WAT     H235817   8.677   3.570  -0.026
11859WAT      O35818   5.653   0.113   7.549
11859WAT     H135819   5.658   0.202   7.595
11859WAT     H235820   5.632   0.126   7.452
11860WAT      O35821   2.676   6.651   8.673
11860WAT     H135822   2.746   6.712   8.635
11860WAT     H235823   2.700   6.557   8.652
11861WAT      O35824   8.654   9.256   2.293
11861WAT     H135825   8.716   9.228   2.220
11861WAT     H235826   8.560   9.254   2.259
11862WAT      O35827   3.729   1.625   7.757
11862WAT     H135828   3.749   1.544   7.703
11862WAT     H235829   3.788   1.700   7.727
11863WAT      O35830   3.308   7.822   5.393
11863WAT     H135831   3.364   7.778   5.464
11863WAT     H235832   3.354   7.905   5.361
11864WAT      O35833   4.879   6.545   8.402
11864WAT     H135834   4.888   6.507   8.310
11864WAT     H235835   4.876   6.471   8.468
11865WAT      O35836   7.326   1.495   5.460
11865WAT     H135837   7.369   1.437   5.391
11865WAT     H235838   7.374   1.483   5.547
11866WAT      O35839   3.539   6.861   5.743
11866WAT     H135840   3.450   6.852   5.787
11866WAT     H235841   3.556   6.781   5.685
11867WAT      O35842   9.154   0.434   0.758
11867WAT     H135843   9.191   0.499   0.692
11867WAT     H235844   9.081   0.381   0.715
11868WAT      O35845   0.636   9.733   1.825
11868WAT     H135846   0.640   9.758   1.728
11868WAT     H235847   0.644   9.815   1.881
11869WAT      O35848   9.746   2.283   5.651
11869WAT     H135849   9.667   2.227   5.676
11869WAT     H235850   9.714   2.367   5.608
11870WAT      O35851   0.740   6.908   2.310
11870WAT     H135852   0.812   6.929   2.244
11870WAT     H235853   0.678   6.840   2.270
11871WAT      O35854   7.913   8.259   3.089
11871WAT     H135855   7.961   8.175   3.115
11871WAT     H235856   7.970   8.338   3.111
11872WAT      O35857   5.842   6.400   9.087
11872WAT     H135858   5.916   6.336   9.109
11872WAT     H235859   5.846   6.479   9.148
11873WAT      O35860   2.467   3.416   3.599
11873WAT     H135861   2.447   3.319   3.608
11873WAT     H235862   2.381   3.467   3.587
11874WAT      O35863   1.573   9.407   3.664
11874WAT     H135864   1.528   9.318   3.648
11874WAT     H235865   1.560   9.434   3.759
11875WAT      O35866   3.509   7.118   0.685
11875WAT     H135867   3.560   7.143   0.603
11875WAT     H235868   3.411   7.133   0.669
11876WAT      O35869   0.230   5.359   5.033
11876WAT     H135870   0.224   5.328   4.938
11876WAT     H235871   0.252   5.456   5.036
11877WAT      O35872   3.123   4.721   2.350
11877WAT     H135873   3.211   4.736   2.395
11877WAT     H235874   3.124   4.632   2.304
11878WAT      O35875   3.706   6.958   0.492
11878WAT     H135876   3.763   6.942   0.573
11878WAT     H235877   3.764   6.979   0.414
11879WAT      O35878   1.581   2.602   4.062
11879WAT     H135879   1.672   2.643   4.061
11879WAT     H235880   1.542   2.607   4.154
11880WAT      O35881   6.629   7.564   1.277
11880WAT     H135882   6.577   7.594   1.198
11880WAT     H235883   6.707   7.625   1.291
11881WAT      O35884   2.124   4.291   4.156
11881WAT     H135885   2.204   4.299   4.097
11881WAT     H235886   2.154   4.286   4.252
11882WAT      O35887   2.721   7.306   6.428
11882WAT     H135888   2.763   7.258   6.505
11882WAT     H235889   2.645   7.253   6.392
11883WAT      O35890   2.723   0.682   9.399
11883WAT     H135891   2.767   0.769   9.417
11883WAT     H235892   2.731   0.623   9.480
11884WAT      O35893   8.438   3.650   2.373
11884WAT     H135894   8.474   3.597   2.297
11884WAT     H235895   8.348   3.614   2.400
11885WAT      O35896   9.402   5.228   7.210
11885WAT     H135897   9.345   5.310   7.202
11885WAT     H235898   9.353   5.149   7.175
11886WAT      O35899   0.810   9.795   9.048
11886WAT     H135900   0.880   9.738   9.004
11886WAT     H235901   0.854   9.861   9.109
11887WAT      O35902   1.263   7.038   5.152
11887WAT     H135903   1.281   6.940   5.161
11887WAT     H235904   1.187   7.063   5.211
11888WAT      O35905   8.289   1.248   5.443
11888WAT     H135906   8.251   1.277   5.355
11888WAT     H235907   8.221   1.194   5.493
11889WAT      O35908   0.098   2.435   2.207
11889WAT     H135909   0.133   2.364   2.268
11889WAT     H235910  -0.002   2.432   2.206
11890WAT      O35911   6.523   6.695   8.287
11890WAT     H135912   6.517   6.782   8.238
11890WAT     H235913   6.547   6.622   8.223
11891WAT      O35914   4.094   5.438   8.178
11891WAT     H135915   4.140   5.521   8.146
11891WAT     H235916   4.151   5.359   8.158
11892WAT      O35917   5.436   4.861   8.077
11892WAT     H135918   5.436   4.777   8.132
11892WAT     H235919   5.408   4.840   7.984
11893WAT      O35920   4.414   6.738   4.955
11893WAT     H135921   4.485   6.685   4.908
11893WAT     H235922   4.326   6.689   4.947
11894WAT      O35923   5.476   7.304   1.016
11894WAT     H135924   5.529   7.360   0.953
11894WAT     H235925   5.533   7.278   1.095
11895WAT      O35926   7.373   7.752   3.739
11895WAT     H135927   7.332   7.739   3.649
11895WAT     H235928   7.302   7.777   3.805
11896WAT      O35929   9.565   4.557   9.306
11896WAT     H135930   9.555   4.474   9.360
11896WAT     H235931   9.661   4.582   9.300
11897WAT      O35932   7.173   9.716   7.694
11897WAT     H135933   7.267   9.686   7.708
11897WAT     H235934   7.138   9.680   7.608
11898WAT      O35935   4.974   9.070   8.798
11898WAT     H135936   5.039   9.066   8.874
11898WAT     H235937   4.881   9.080   8.834
11899WAT      O35938   1.288   2.304   7.906
11899WAT     H135939   1.265   2.219   7.953
11899WAT     H235940   1.330   2.282   7.817
11900WAT      O35941   3.964   0.425   7.604
11900WAT     H135942   4.005   0.371   7.530
11900WAT     H235943   3.865   0.414   7.602
11901WAT      O35944   9.110   4.642   0.053
11901WAT     H135945   9.116   4.578   0.129
11901WAT     H235946   9.020   4.687   0.054
11902WAT      O35947   7.897   8.690   7.490
11902WAT     H135948   7.939   8.662   7.577
11902WAT     H235949   7.943   8.772   7.456
11903WAT      O35950   6.071   9.409   5.987
11903WAT     H135951   6.030   9.327   6.028
11903WAT     H235952   6.001   9.462   5.940
11904WAT      O35953   0.760   9.497   1.916
11904WAT     H135954   0.726   9.588   1.895
11904WAT     H235955   0.859   9.498   1.923
11905WAT      O35956   2.467   6.780   9.066
11905WAT     H135957   2.562   6.765   9.038
11905WAT     H235958   2.412   6.700   9.041
11906WAT      O35959   9.380   1.920   5.696
11906WAT     H135960   9.407   1.837   5.647
11906WAT     H235961   9.288   1.947   5.666
11907WAT      O35962   7.097   8.126   8.945
11907WAT     H135963   7.020   8.084   8.993
11907WAT     H235964   7.094   8.101   8.848
11908WAT      O35965   5.472   0.588   0.301
11908WAT     H135966   5.438   0.569   0.393
11908WAT     H235967   5.559   0.540   0.288
11909WAT      O35968   2.623   2.217   3.651
11909WAT     H135969   2.608   2.179   3.742
11909WAT     H235970   2.581   2.158   3.582
11910WAT      O35971   9.700   0.982   5.011
11910WAT     H135972   9.683   0.990   4.913
11910WAT     H235973   9.780   0.924   5.028
11911WAT      O35974   2.189   0.789   7.518
11911WAT     H135975   2.201   0.882   7.554
11911WAT     H235976   2.223   0.785   7.424
11912WAT      O35977   4.355   8.299   9.217
11912WAT     H135978   4.362   8.369   9.146
11912WAT     H235979   4.394   8.335   9.302
11913WAT      O35980   7.540   2.432   0.304
11913WAT     H135981   7.496   2.421   0.215
11913WAT     H235982   7.560   2.343   0.343
11914WAT      O35983   4.519   6.461   3.083
11914WAT     H135984   4.447   6.509   3.032
11914WAT     H235985   4.604   6.513   3.078
11915WAT      O35986   7.622   6.523   8.585
11915WAT     H135987   7.662   6.461   8.518
11915WAT     H235988   7.541   6.568   8.546
11916WAT      O35989   9.413   2.199   1.652
11916WAT     H135990   9.488   2.223   1.714
11916WAT     H235991   9.372   2.283   1.616
11917WAT      O35992   6.594   2.118   4.035
11917WAT     H135993   6.684   2.074   4.031
11917WAT     H235994   6.598   2.194   4.100
11918WAT      O35995   5.357   8.883   7.524
11918WAT     H135996   5.385   8.791   7.549
11918WAT     H235997   5.436   8.945   7.531
11919WAT      O35998   6.383   7.825   1.275
11919WAT     H135999   6.356   7.816   1.371
11919WAT     H236000   6.462   7.885   1.267
11920WAT      O36001   6.871   0.083   4.055
11920WAT     H136002   6.915   0.001   4.019
11920WAT     H236003   6.919   0.114   4.137
11921WAT      O36004   5.677   5.579   3.824
11921WAT     H136005   5.720   5.489   3.817
11921WAT     H236006   5.589   5.570   3.871
11922WAT      O36007   0.859   7.451   5.289
11922WAT     H136008   0.901   7.537   5.320
11922WAT     H236009   0.778   7.472   5.234
11923WAT      O36010   7.790   7.619   5.591
11923WAT     H136011   7.802   7.718   5.602
11923WAT     H236012   7.872   7.580   5.549
11924WAT      O36013   2.905   2.206   2.129
11924WAT     H136014   2.948   2.159   2.051
11924WAT     H236015   2.847   2.279   2.095
11925WAT      O36016   1.378   8.950   6.324
11925WAT     H136017   1.440   8.928   6.399
11925WAT     H236018   1.328   9.034   6.345
11926WAT      O36019   1.088   6.358   7.896
11926WAT     H136020   1.011   6.406   7.856
11926WAT     H236021   1.151   6.330   7.823
11927WAT      O36022   8.304   3.097   0.761
11927WAT     H136023   8.398   3.082   0.733
11927WAT     H236024   8.247   3.113   0.680
11928WAT      O36025   1.751   8.717   9.549
11928WAT     H136026   1.723   8.675   9.635
11928WAT     H236027   1.768   8.645   9.481
11929WAT      O36028   3.447   4.323   8.964
11929WAT     H136029   3.423   4.304   8.869
11929WAT     H236030   3.519   4.391   8.968
11930WAT      O36031   3.178   6.598   7.283
11930WAT     H136032   3.146   6.594   7.188
11930WAT     H236033   3.103   6.576   7.344
11931WAT      O36034   7.913   1.524   2.049
11931WAT     H136035   7.871   1.451   1.994
11931WAT     H236036   7.851   1.549   2.123
11932WAT      O36037   3.720   3.305   0.888
11932WAT     H136038   3.716   3.397   0.928
11932WAT     H236039   3.667   3.242   0.945
11933WAT      O36040   5.128   9.047   7.610
11933WAT     H136041   5.038   9.033   7.568
11933WAT     H236042   5.192   8.980   7.576
11934WAT      O36043   8.074   0.413   6.019
11934WAT     H136044   8.091   0.330   6.073
11934WAT     H236045   8.074   0.389   5.921
11935WAT      O36046   3.830   4.924   8.501
11935WAT     H136047   3.789   4.874   8.577
11935WAT     H236048   3.801   5.019   8.504
11936WAT      O36049   5.950   8.357   7.043
11936WAT     H136050   5.924   8.271   7.086
11936WAT     H236051   5.872   8.396   6.994
11937WAT      O36052   1.035   8.744   4.855
11937WAT     H136053   0.946   8.699   4.849
11937WAT     H236054   1.072   8.754   4.763
11938WAT      O36055   4.628   2.471   9.417
11938WAT     H136056   4.542   2.431   9.449
11938WAT     H236057   4.662   2.418   9.339
11939WAT      O36058   8.815   6.801   2.406
11939WAT     H136059   8.876   6.762   2.337
11939WAT     H236060   8.720   6.792   2.376
11940WAT      O36061   8.664   0.886   0.964
11940WAT     H136062   8.607   0.942   1.024
11940WAT     H236063   8.676   0.932   0.876
11941WAT      O36064   5.130   8.118   1.784
11941WAT     H136065   5.058   8.180   1.754
11941WAT     H236066   5.114   8.091   1.879
11942WAT      O36067   2.241   8.000   9.480
11942WAT     H136068   2.218   8.093   9.511
11942WAT     H236069   2.281   8.005   9.388
11943WAT      O36070   1.696   3.339   6.898
11943WAT     H136071   1.608   3.346   6.850
11943WAT     H236072   1.746   3.425   6.890
11944WAT      O36073   2.963   9.260   1.685
11944WAT     H136074   2.869   9.286   1.709
11944WAT     H236075   3.027   9.310   1.744
11945WAT      O36076   4.299   6.421   0.105
11945WAT     H136077   4.310   6.382   0.013
11945WAT     H236078   4.202   6.442   0.120
11946WAT      O36079   5.853   0.564   9.698
11946WAT     H136080   5.944   0.554   9.738
11946WAT     H236081   5.829   0.662   9.695
11947WAT      O36082   3.779   1.728   5.041
11947WAT     H136083   3.734   1.803   4.993
11947WAT     H236084   3.796   1.653   4.976
11948WAT      O36085   8.176   8.444   8.193
11948WAT     H136086   8.166   8.406   8.285
11948WAT     H236087   8.085   8.462   8.155
11949WAT      O36088   7.150   2.336   5.245
11949WAT     H136089   7.214   2.404   5.209
11949WAT     H236090   7.099   2.294   5.169
11950WAT      O36091   8.456   6.205   1.512
11950WAT     H136092   8.510   6.153   1.579
11950WAT     H236093   8.361   6.175   1.516
11951WAT      O36094   2.768   5.833   5.343
11951WAT     H136095   2.772   5.844   5.443
11951WAT     H236096   2.785   5.921   5.299
11952WAT      O36097   0.818   0.183   0.002
11952WAT     H136098   0.869   0.249   0.057
11952WAT     H236099   0.882   0.117  -0.038
11953WAT      O36100   0.593   4.273   4.170
11953WAT     H136101   0.692   4.287   4.164
11953WAT     H236102   0.559   4.244   4.080
11954WAT      O36103   1.156   0.036   9.578
11954WAT     H136104   1.130   0.131   9.560
11954WAT     H236105   1.080  -0.024   9.553
11955WAT      O36106   8.401   7.728   6.738
11955WAT     H136107   8.423   7.789   6.662
11955WAT     H236108   8.441   7.763   6.822
11956WAT      O36109   1.911   1.081   8.527
11956WAT     H136110   1.938   1.077   8.431
11956WAT     H236111   1.975   1.027   8.582
11957WAT      O36112   9.154   5.253   1.855
11957WAT     H136113   9.199   5.334   1.817
11957WAT     H236114   9.073   5.232   1.801
11958WAT      O36115   5.047   6.819   6.210
11958WAT     H136116   5.062   6.741   6.149
11958WAT     H236117   5.117   6.889   6.193
11959WAT      O36118   0.678   9.278   1.777
11959WAT     H136119   0.704   9.359   1.829
11959WAT     H236120   0.603   9.301   1.714
11960WAT      O36121   8.281   4.709   0.812
11960WAT     H136122   8.279   4.807   0.829
11960WAT     H236123   8.225   4.662   0.880
11961WAT      O36124   4.367   6.945   7.151
11961WAT     H136125   4.361   6.912   7.245
11961WAT     H236126   4.290   7.006   7.132
11962WAT      O36127   8.317   7.091   1.163
11962WAT     H136128   8.239   7.090   1.225
11962WAT     H236129   8.393   7.038   1.202
11963WAT      O36130   6.242   6.954   2.144
11963WAT     H136131   6.152   6.938   2.184
11963WAT     H236132   6.310   6.962   2.217
11964WAT      O36133   6.077   2.179   6.112
11964WAT     H136134   6.056   2.085   6.141
11964WAT     H236135   6.174   2.185   6.090
11965WAT      O36136   8.313   9.653   5.374
11965WAT     H136137   8.263   9.587   5.318
11965WAT     H236138   8.258   9.678   5.454
11966WAT      O36139   2.219   1.418   9.565
11966WAT     H136140   2.224   1.387   9.469
11966WAT     H236141   2.226   1.338   9.625
11967WAT      O36142   9.281   5.603   3.954
11967WAT     H136143   9.224   5.673   3.910
11967WAT     H236144   9.241   5.513   3.938
11968WAT      O36145   0.317   8.620   0.336
11968WAT     H136146   0.229   8.662   0.316
11968WAT     H236147   0.368   8.605   0.251
11969WAT      O36148   7.440   9.548   4.594
11969WAT     H136149   7.425   9.629   4.651
11969WAT     H236150   7.537   9.524   4.595
11970WAT      O36151   0.615   3.453   9.353
11970WAT     H136152   0.523   3.412   9.353
11970WAT     H236153   0.615   3.533   9.413
11971WAT      O36154   3.512   0.953   7.183
11971WAT     H136155   3.512   1.010   7.265
11971WAT     H236156   3.599   0.904   7.178
11972WAT      O36157   3.897   9.451   3.754
11972WAT     H136158   3.838   9.407   3.821
11972WAT     H236159   3.860   9.438   3.662
11973WAT      O36160   1.982   0.101   9.274
11973WAT     H136161   2.014   0.196   9.267
11973WAT     H236162   1.920   0.081   9.198
11974WAT      O36163   4.770   5.202   7.611
11974WAT     H136164   4.850   5.167   7.560
11974WAT     H236165   4.755   5.298   7.587
11975WAT      O36166   6.090   0.654   6.984
11975WAT     H136167   6.056   0.564   7.008
11975WAT     H236168   6.138   0.649   6.896
11976WAT      O36169   0.229   9.677   7.549
11976WAT     H136170   0.173   9.700   7.629
11976WAT     H236171   0.169   9.653   7.473
11977WAT      O36172   6.025   6.387   8.263
11977WAT     H136173   5.981   6.475   8.244
11977WAT     H236174   6.110   6.380   8.211
11978WAT      O36175   7.467   3.007   3.307
11978WAT     H136176   7.538   2.944   3.275
11978WAT     H236177   7.431   2.974   3.394
11979WAT      O36178   5.002   7.039   8.239
11979WAT     H136179   5.044   6.951   8.216
11979WAT     H236180   4.923   7.055   8.180
11980WAT      O36181   6.206   3.108   0.551
11980WAT     H136182   6.281   3.086   0.612
11980WAT     H236183   6.119   3.101   0.601
11981WAT      O36184   8.532   4.208   1.863
11981WAT     H136185   8.437   4.208   1.830
11981WAT     H236186   8.587   4.148   1.806
11982WAT      O36187   0.326   1.159   0.697
11982WAT     H136188   0.277   1.166   0.610
11982WAT     H236189   0.382   1.240   0.711
11983WAT      O36190   0.750   1.157   7.933
11983WAT     H136191   0.840   1.201   7.931
11983WAT     H236192   0.685   1.215   7.982
11984WAT      O36193   1.893   3.570   5.478
11984WAT     H136194   1.986   3.606   5.474
11984WAT     H236195   1.843   3.615   5.553
11985WAT      O36196   7.185   3.741   6.806
11985WAT     H136197   7.117   3.809   6.834
11985WAT     H236198   7.157   3.699   6.720
11986WAT      O36199   6.379   8.842   8.514
11986WAT     H136200   6.460   8.812   8.564
11986WAT     H236201   6.401   8.851   8.417
11987WAT      O36202   0.610   3.457   1.448
11987WAT     H136203   0.678   3.430   1.380
11987WAT     H236204   0.654   3.465   1.537
11988WAT      O36205   9.345   8.427   0.922
11988WAT     H136206   9.337   8.341   0.872
11988WAT     H236207   9.421   8.481   0.884
11989WAT      O36208   5.702   5.203   1.851
11989WAT     H136209   5.663   5.111   1.853
11989WAT     H236210   5.647   5.263   1.910
11990WAT      O36211   1.733   2.482   9.057
11990WAT     H136212   1.749   2.500   8.960
11990WAT     H236213   1.808   2.426   9.094
11991WAT      O36214   8.790   0.958   2.382
11991WAT     H136215   8.721   0.918   2.443
11991WAT     H236216   8.801   0.900   2.301
11992WAT      O36217   4.016   6.412   0.940
11992WAT     H136218   3.987   6.381   0.849
11992WAT     H236219   4.027   6.511   0.940
11993WAT      O36220   4.481   7.503   0.641
11993WAT     H136221   4.442   7.526   0.730
11993WAT     H236222   4.538   7.579   0.609
11994WAT      O36223   4.836   3.805   8.092
11994WAT     H136224   4.762   3.788   8.157
11994WAT     H236225   4.868   3.718   8.054
11995WAT      O36226   6.556   4.765   5.705
11995WAT     H136227   6.569   4.864   5.713
11995WAT     H236228   6.539   4.741   5.610
11996WAT      O36229   9.513   9.040   9.528
11996WAT     H136230   9.457   9.120   9.551
11996WAT     H236231   9.609   9.068   9.522
11997WAT      O36232   1.450   7.262   3.769
11997WAT     H136233   1.414   7.354   3.779
11997WAT     H236234   1.538   7.266   3.722
11998WAT      O36235   7.643   7.533   9.703
11998WAT     H136236   7.709   7.593   9.657
11998WAT     H236237   7.674   7.438   9.695
11999WAT      O36238   1.273   9.208   2.867
11999WAT     H136239   1.234   9.166   2.785
11999WAT     H236240   1.271   9.307   2.858
12000WAT      O36241   0.622   2.654   8.090
12000WAT     H136242   0.643   2.564   8.128
12000WAT     H236243   0.549   2.646   8.022
12001WAT      O36244   6.985   1.749   3.311
12001WAT     H136245   7.060   1.782   3.254
12001WAT     H236246   7.014   1.666   3.359
12002WAT      O36247   4.021   9.757   0.408
12002WAT     H136248   4.021   9.852   0.439
12002WAT     H236249   4.103   9.711   0.442
12003WAT      O36250   6.727   7.663   0.876
12003WAT     H136251   6.714   7.689   0.781
12003WAT     H236252   6.690   7.572   0.892
12004WAT      O36253   7.900   9.460   5.159
12004WAT     H136254   7.986   9.510   5.168
12004WAT     H236255   7.918   9.369   5.121
12005WAT      O36256   0.146   3.156   4.236
12005WAT     H136257   0.131   3.096   4.157
12005WAT     H236258   0.059   3.195   4.265
12006WAT      O36259   8.638   7.891   5.802
12006WAT     H136260   8.707   7.914   5.733
12006WAT     H236261   8.674   7.820   5.862
12007WAT      O36262   2.796   1.845   3.192
12007WAT     H136263   2.860   1.917   3.165
12007WAT     H236264   2.812   1.821   3.288
12008WAT      O36265   4.433   2.982   6.483
12008WAT     H136266   4.377   3.026   6.553
12008WAT     H236267   4.384   2.981   6.396
12009WAT      O36268   4.086   7.382   3.691
12009WAT     H136269   4.139   7.297   3.692
12009WAT     H236270   4.064   7.409   3.785
12010WAT      O36271   2.261   5.401   8.435
12010WAT     H136272   2.230   5.348   8.513
12010WAT     H236273   2.349   5.444   8.456
12011WAT      O36274   1.321   9.555   1.533
12011WAT     H136275   1.381   9.622   1.577
12011WAT     H236276   1.226   9.583   1.546
12012WAT      O36277   3.071   3.014   3.698
12012WAT     H136278   3.105   2.920   3.704
12012WAT     H236279   3.127   3.066   3.634
12013WAT      O36280   3.803   6.152   5.229
12013WAT     H136281   3.850   6.239   5.213
12013WAT     H236282   3.751   6.126   5.148
12014WAT      O36283   7.638   3.491   4.867
12014WAT     H136284   7.539   3.496   4.863
12014WAT     H236285   7.666   3.397   4.888
12015WAT      O36286   8.498   1.866   6.990
12015WAT     H136287   8.528   1.899   7.079
12015WAT     H236288   8.533   1.773   6.975
12016WAT      O36289   1.923   6.870   5.330
12016WAT     H136290   1.947   6.828   5.418
12016WAT     H236291   1.959   6.963   5.327
12017WAT      O36292   0.699   6.909   5.422
12017WAT     H136293   0.756   6.853   5.482
12017WAT     H236294   0.682   6.997   5.465
12018WAT      O36295   6.186   7.122   5.367
12018WAT     H136296   6.277   7.083   5.377
12018WAT     H236297   6.124   7.080   5.433
12019WAT      O36298   6.698   4.751   2.327
12019WAT     H136299   6.639   4.673   2.345
12019WAT     H236300   6.665   4.830   2.378
12020WAT      O36301   7.949   1.307   3.798
12020WAT     H136302   8.015   1.256   3.743
12020WAT     H236303   7.857   1.276   3.777
12021WAT      O36304   5.577   6.347   6.953
12021WAT     H136305   5.549   6.269   7.010
12021WAT     H236306   5.614   6.313   6.866
12022WAT      O36307   1.678   5.466   9.197
12022WAT     H136308   1.638   5.556   9.184
12022WAT     H236309   1.664   5.436   9.292
12023WAT      O36310   6.526   0.847   6.678
12023WAT     H136311   6.466   0.918   6.715
12023WAT     H236312   6.470   0.776   6.634
12024WAT      O36313   9.067   4.072   2.575
12024WAT     H136314   8.975   4.038   2.555
12024WAT     H236315   9.122   4.068   2.491
12025WAT      O36316   3.382   3.880   0.342
12025WAT     H136317   3.403   3.823   0.263
12025WAT     H236318   3.435   3.850   0.421
12026WAT      O36319   5.157   7.678   7.667
12026WAT     H136320   5.236   7.705   7.723
12026WAT     H236321   5.188   7.659   7.573
12027WAT      O36322   5.422   6.443   3.109
12027WAT     H136323   5.327   6.469   3.126
12027WAT     H236324   5.427   6.393   3.023
12028WAT      O36325   3.990   9.105   6.286
12028WAT     H136326   4.051   9.074   6.359
12028WAT     H236327   3.989   9.038   6.212
12029WAT      O36328   1.801   9.373   9.041
12029WAT     H136329   1.761   9.461   9.015
12029WAT     H236330   1.758   9.300   8.988
12030WAT      O36331   7.610   8.417   7.613
12030WAT     H136332   7.570   8.326   7.614
12030WAT     H236333   7.613   8.451   7.519
12031WAT      O36334   4.965   1.776   1.318
12031WAT     H136335   4.921   1.713   1.382
12031WAT     H236336   4.970   1.867   1.360
12032WAT      O36337   8.211   6.805   8.749
12032WAT     H136338   8.221   6.904   8.751
12032WAT     H236339   8.156   6.776   8.828
12033WAT      O36340   4.718   1.749   6.143
12033WAT     H136341   4.706   1.760   6.044
12033WAT     H236342   4.760   1.832   6.180
12034WAT      O36343   0.928   5.206   4.703
12034WAT     H136344   0.859   5.142   4.736
12034WAT     H236345   0.883   5.277   4.648
12035WAT      O36346   7.702   8.993   8.951
12035WAT     H136347   7.703   8.947   9.040
12035WAT     H236348   7.704   9.092   8.965
12036WAT      O36349   6.620   3.722   4.805
12036WAT     H136350   6.576   3.633   4.799
12036WAT     H236351   6.572   3.779   4.871
12037WAT      O36352   9.494   1.127   3.151
12037WAT     H136353   9.485   1.223   3.175
12037WAT     H236354   9.431   1.105   3.076
12038WAT      O36355   8.561   0.441   7.660
12038WAT     H136356   8.611   0.462   7.744
12038WAT     H236357   8.619   0.388   7.599
12039WAT      O36358   2.078   8.921   1.453
12039WAT     H136359   2.158   8.948   1.399
12039WAT     H236360   2.060   8.824   1.439
12040WAT      O36361   5.632   6.913   3.413
12040WAT     H136362   5.557   6.856   3.379
12040WAT     H236363   5.608   7.009   3.403
12041WAT      O36364   7.858   3.046   3.045
12041WAT     H136365   7.879   3.014   3.138
12041WAT     H236366   7.775   3.101   3.047
12042WAT      O36367   3.205   5.638   0.106
12042WAT     H136368   3.226   5.660   0.011
12042WAT     H236369   3.145   5.708   0.144
12043WAT      O36370   6.878   6.804   3.668
12043WAT     H136371   6.859   6.743   3.591
12043WAT     H236372   6.956   6.863   3.645
12044WAT      O36373   3.274   8.204   8.982
12044WAT     H136374   3.311   8.253   9.060
12044WAT     H236375   3.322   8.232   8.899
12045WAT      O36376   0.643   0.068   7.182
12045WAT     H136377   0.722   0.128   7.186
12045WAT     H236378   0.628   0.038   7.088
12046WAT      O36379   0.561   4.262   6.110
12046WAT     H136380   0.565   4.250   6.209
12046WAT     H236381   0.619   4.339   6.083
12047WAT      O36382   5.937   7.191   8.005
12047WAT     H136383   6.026   7.212   7.964
12047WAT     H236384   5.887   7.277   8.021
12048WAT      O36385   0.257   5.654   4.761
12048WAT     H136386   0.325   5.692   4.698
12048WAT     H236387   0.239   5.720   4.834
12049WAT      O36388   6.197   7.159   3.002
12049WAT     H136389   6.221   7.256   3.004
12049WAT     H236390   6.270   7.106   3.046
12050WAT      O36391   2.914   2.283   6.053
12050WAT     H136392   3.002   2.312   6.088
12050WAT     H236393   2.900   2.321   5.961
12051WAT      O36394   4.130   3.296   3.037
12051WAT     H136395   4.173   3.385   3.021
12051WAT     H236396   4.033   3.302   3.013
12052WAT      O36397   0.227   4.128   3.932
12052WAT     H136398   0.172   4.053   3.969
12052WAT     H236399   0.195   4.214   3.971
12053WAT      O36400   7.945   0.665   5.009
12053WAT     H136401   8.034   0.638   4.973
12053WAT     H236402   7.910   0.593   5.069
12054WAT      O36403   9.749   2.591   0.835
12054WAT     H136404   9.821   2.637   0.889
12054WAT     H236405   9.667   2.582   0.891
12055WAT      O36406   3.478   9.224   0.262
12055WAT     H136407   3.410   9.257   0.196
12055WAT     H236408   3.503   9.298   0.323
12056WAT      O36409   6.878   1.855   4.829
12056WAT     H136410   6.941   1.825   4.901
12056WAT     H236411   6.825   1.933   4.863
12057WAT      O36412   6.914   5.534   2.471
12057WAT     H136413   7.014   5.531   2.464
12057WAT     H236414   6.875   5.471   2.405
12058WAT      O36415   9.491   0.432   5.966
12058WAT     H136416   9.437   0.475   6.039
12058WAT     H236417   9.491   0.491   5.885
12059WAT      O36418   0.560   8.544   8.448
12059WAT     H136419   0.600   8.510   8.532
12059WAT     H236420   0.627   8.600   8.399
12060WAT      O36421   8.450   8.343   8.529
12060WAT     H136422   8.538   8.329   8.486
12060WAT     H236423   8.424   8.440   8.524
12061WAT      O36424   7.153   0.754   6.806
12061WAT     H136425   7.144   0.849   6.836
12061WAT     H236426   7.179   0.697   6.884
12062WAT      O36427   8.961   6.680   7.986
12062WAT     H136428   8.911   6.739   8.050
12062WAT     H236429   8.924   6.588   7.990
12063WAT      O36430   1.634   6.823   0.123
12063WAT     H136431   1.691   6.746   0.149
12063WAT     H236432   1.565   6.839   0.194
12064WAT      O36433   2.587   7.508   5.799
12064WAT     H136434   2.613   7.411   5.801
12064WAT     H236435   2.503   7.518   5.746
12065WAT      O36436   7.762   9.598   8.847
12065WAT     H136437   7.798   9.638   8.931
12065WAT     H236438   7.837   9.588   8.781
12066WAT      O36439   1.840   2.794   0.309
12066WAT     H136440   1.924   2.764   0.264
12066WAT     H236441   1.770   2.723   0.299
12067WAT      O36442   7.005   5.279   2.728
12067WAT     H136443   7.039   5.220   2.655
12067WAT     H236444   6.930   5.336   2.693
12068WAT      O36445   6.170   6.173   8.906
12068WAT     H136446   6.256   6.215   8.877
12068WAT     H236447   6.129   6.229   8.979
12069WAT      O36448   2.344   1.610   6.362
12069WAT     H136449   2.429   1.661   6.349
12069WAT     H236450   2.282   1.662   6.419
12070WAT      O36451   2.503   4.358   7.887
12070WAT     H136452   2.468   4.344   7.795
12070WAT     H236453   2.449   4.304   7.952
12071WAT      O36454   2.494   1.209   0.038
12071WAT     H136455   2.550   1.292   0.043
12071WAT     H236456   2.551   1.129   0.058
12072WAT      O36457   6.622   3.654   6.492
12072WAT     H136458   6.667   3.649   6.403
12072WAT     H236459   6.560   3.732   6.494
12073WAT      O36460   7.972   0.115   0.714
12073WAT     H136461   7.924   0.099   0.627
12073WAT     H236462   8.015   0.205   0.711
12074WAT      O36463   1.607   9.496   6.845
12074WAT     H136464   1.636   9.405   6.874
12074WAT     H236465   1.599   9.498   6.745
12075WAT      O36466   5.465   8.778   5.926
12075WAT     H136467   5.439   8.815   6.015
12075WAT     H236468   5.504   8.687   5.937
12076WAT      O36469   1.264   3.288   0.752
12076WAT     H136470   1.312   3.327   0.674
12076WAT     H236471   1.165   3.302   0.742
12077WAT      O36472   5.622   4.545   5.352
12077WAT     H136473   5.665   4.462   5.319
12077WAT     H236474   5.641   4.620   5.288
12078WAT      O36475   1.889   4.096   4.357
12078WAT     H136476   1.865   4.009   4.398
12078WAT     H236477   1.987   4.113   4.369
12079WAT      O36478   9.011   1.501   3.725
12079WAT     H136479   9.079   1.428   3.714
12079WAT     H236480   9.045   1.567   3.791
12080WAT      O36481   3.394   0.254   2.739
12080WAT     H136482   3.457   0.266   2.816
12080WAT     H236483   3.302   0.234   2.773
12081WAT      O36484   0.888   2.236   5.349
12081WAT     H136485   0.815   2.292   5.310
12081WAT     H236486   0.896   2.255   5.447
12082WAT      O36487   1.571   7.108   0.489
12082WAT     H136488   1.608   7.038   0.550
12082WAT     H236489   1.646   7.152   0.440
12083WAT      O36490   1.276   5.727   9.649
12083WAT     H136491   1.330   5.656   9.694
12083WAT     H236492   1.304   5.817   9.684
12084WAT      O36493   4.931   2.687   5.239
12084WAT     H136494   5.009   2.737   5.275
12084WAT     H236495   4.847   2.740   5.255
12085WAT      O36496   3.876   9.492   9.630
12085WAT     H136497   3.824   9.556   9.573
12085WAT     H236498   3.814   9.450   9.697
12086WAT      O36499   0.961   9.139   9.578
12086WAT     H136500   0.974   9.041   9.562
12086WAT     H236501   0.985   9.161   9.672
12087WAT      O36502   2.955   9.384   2.331
12087WAT     H136503   2.945   9.475   2.292
12087WAT     H236504   3.018   9.388   2.409
12088WAT      O36505   1.050   3.223   6.566
12088WAT     H136506   0.989   3.244   6.489
12088WAT     H236507   1.000   3.234   6.652
12089WAT      O36508   3.540   1.747   3.060
12089WAT     H136509   3.622   1.764   3.114
12089WAT     H236510   3.487   1.832   3.052
12090WAT      O36511   0.181   5.231   7.610
12090WAT     H136512   0.099   5.281   7.637
12090WAT     H236513   0.174   5.204   7.514
12091WAT      O36514   9.765   9.008   9.195
12091WAT     H136515   9.720   9.083   9.147
12091WAT     H236516   9.846   8.979   9.144
12092WAT      O36517   9.577   4.546   0.584
12092WAT     H136518   9.596   4.484   0.660
12092WAT     H236519   9.621   4.634   0.600
12093WAT      O36520   5.636   4.094   3.781
12093WAT     H136521   5.623   3.996   3.775
12093WAT     H236522   5.619   4.125   3.875
12094WAT      O36523   9.019   0.726   6.797
12094WAT     H136524   8.982   0.792   6.862
12094WAT     H236525   8.976   0.637   6.812
12095WAT      O36526   7.855   0.292   8.382
12095WAT     H136527   7.950   0.280   8.355
12095WAT     H236528   7.850   0.308   8.481
12096WAT      O36529   5.515   6.553   1.478
12096WAT     H136530   5.434   6.515   1.434
12096WAT     H236531   5.488   6.620   1.547
12097WAT      O36532   1.276   3.531   9.093
12097WAT     H136533   1.308   3.443   9.130
12097WAT     H236534   1.223   3.514   9.010
12098WAT      O36535   2.687   7.447   1.437
12098WAT     H136536   2.674   7.355   1.400
12098WAT     H236537   2.665   7.515   1.367
12099WAT      O36538   1.285   2.058   5.912
12099WAT     H136539   1.279   2.122   5.989
12099WAT     H236540   1.193   2.037   5.879
12100WAT      O36541   0.851   2.088   8.292
12100WAT     H136542   0.800   2.006   8.265
12100WAT     H236543   0.795   2.169   8.276
12101WAT      O36544   0.912   1.468   4.208
12101WAT     H136545   0.883   1.532   4.279
12101WAT     H236546   0.970   1.516   4.142
12102WAT      O36547   1.750   3.508   7.724
12102WAT     H136548   1.758   3.457   7.638
12102WAT     H236549   1.830   3.490   7.780
12103WAT      O36550   6.634   2.846   8.871
12103WAT     H136551   6.665   2.921   8.812
12103WAT     H236552   6.538   2.861   8.896
12104WAT      O36553   2.566   5.800   3.733
12104WAT     H136554   2.551   5.811   3.831
12104WAT     H236555   2.479   5.812   3.685
12105WAT      O36556   3.933   8.991   3.760
12105WAT     H136557   3.843   9.023   3.729
12105WAT     H236558   3.949   9.023   3.853
12106WAT      O36559   3.937   3.520   5.441
12106WAT     H136560   3.907   3.573   5.362
12106WAT     H236561   3.953   3.425   5.412
12107WAT      O36562   6.984   8.373   0.436
12107WAT     H136563   6.963   8.413   0.347
12107WAT     H236564   7.082   8.383   0.454
12108WAT      O36565   3.286   5.941   1.261
12108WAT     H136566   3.282   5.843   1.243
12108WAT     H236567   3.201   5.984   1.229
12109WAT      O36568   0.709   8.763   7.976
12109WAT     H136569   0.765   8.681   7.973
12109WAT     H236570   0.702   8.802   7.884
12110WAT      O36571   8.734   1.754   7.703
12110WAT     H136572   8.737   1.657   7.676
12110WAT     H236573   8.640   1.787   7.695
12111WAT      O36574   2.547   2.444   3.521
12111WAT     H136575   2.601   2.365   3.552
12111WAT     H236576   2.577   2.526   3.570
12112WAT      O36577   9.042   6.362   8.242
12112WAT     H136578   8.957   6.412   8.225
12112WAT     H236579   9.043   6.279   8.186
12113WAT      O36580   6.948   3.112   7.773
12113WAT     H136581   7.011   3.065   7.712
12113WAT     H236582   6.894   3.178   7.721
12114WAT      O36583   3.446   3.832   6.772
12114WAT     H136584   3.524   3.780   6.736
12114WAT     H236585   3.361   3.796   6.734
12115WAT      O36586   0.506   6.453   3.950
12115WAT     H136587   0.446   6.374   3.958
12115WAT     H236588   0.489   6.499   3.863
12116WAT      O36589   1.250   0.462   2.954
12116WAT     H136590   1.176   0.413   3.000
12116WAT     H236591   1.338   0.424   2.983
12117WAT      O36592   1.865   1.459   1.187
12117WAT     H136593   1.851   1.554   1.214
12117WAT     H236594   1.776   1.412   1.182
12118WAT      O36595   1.816   2.110   7.862
12118WAT     H136596   1.778   2.098   7.954
12118WAT     H236597   1.769   2.049   7.798
12119WAT      O36598   9.651   7.683   3.109
12119WAT     H136599   9.641   7.782   3.102
12119WAT     H236600   9.572   7.638   3.069
12120WAT      O36601   6.526   3.163   3.880
12120WAT     H136602   6.609   3.176   3.826
12120WAT     H236603   6.550   3.114   3.965
12121WAT      O36604   7.742   5.871   7.950
12121WAT     H136605   7.774   5.778   7.963
12121WAT     H236606   7.816   5.935   7.969
12122WAT      O36607   7.199   3.591   9.294
12122WAT     H136608   7.237   3.639   9.373
12122WAT     H236609   7.161   3.657   9.229
12123WAT      O36610   5.061   0.213   2.157
12123WAT     H136611   5.022   0.302   2.184
12123WAT     H236612   5.154   0.227   2.122
12124WAT      O36613   5.688   2.730   3.999
12124WAT     H136614   5.760   2.768   4.058
12124WAT     H236615   5.647   2.650   4.043
12125WAT      O36616   6.030   2.074   8.398
12125WAT     H136617   6.085   2.153   8.424
12125WAT     H236618   5.970   2.049   8.473
12126WAT      O36619   2.588   3.650   1.721
12126WAT     H136620   2.613   3.633   1.626
12126WAT     H236621   2.489   3.657   1.729
12127WAT      O36622   1.048   5.726   7.137
12127WAT     H136623   1.094   5.704   7.051
12127WAT     H236624   1.077   5.662   7.208
12128WAT      O36625   6.901   0.991   6.982
12128WAT     H136626   6.893   0.972   7.080
12128WAT     H236627   6.822   0.952   6.934
12129WAT      O36628   3.487   1.705   3.520
12129WAT     H136629   3.510   1.647   3.598
12129WAT     H236630   3.474   1.647   3.439
12130WAT      O36631   6.025   0.358   8.092
12130WAT     H136632   6.024   0.258   8.090
12130WAT     H236633   6.029   0.390   8.186
12131WAT      O36634   6.656   7.919   0.962
12131WAT     H136635   6.607   7.976   0.896
12131WAT     H236636   6.653   7.823   0.932
12132WAT      O36637   9.493   7.682   4.491
12132WAT     H136638   9.520   7.699   4.586
12132WAT     H236639   9.572   7.645   4.441
12133WAT      O36640   5.126   3.717   3.674
12133WAT     H136641   5.189   3.751   3.744
12133WAT     H236642   5.035   3.756   3.690
12134WAT      O36643   9.404   1.947   7.738
12134WAT     H136644   9.359   1.969   7.651
12134WAT     H236645   9.461   2.025   7.766
12135WAT      O36646   7.780   9.180   5.857
12135WAT     H136647   7.791   9.085   5.885
12135WAT     H236648   7.862   9.211   5.808
12136WAT      O36649   9.063   5.228   2.123
12136WAT     H136650   9.149   5.240   2.173
12136WAT     H236651   9.080   5.235   2.025
12137WAT      O36652   0.638   4.156   0.011
12137WAT     H136653   0.559   4.094   0.012
12137WAT     H236654   0.612   4.244  -0.029
12138WAT      O36655   6.734   4.814   7.802
12138WAT     H136656   6.785   4.728   7.814
12138WAT     H236657   6.672   4.805   7.724
12139WAT      O36658   9.710   8.700   3.503
12139WAT     H136659   9.791   8.753   3.530
12139WAT     H236660   9.663   8.747   3.428
12140WAT      O36661   4.986   2.893   2.641
12140WAT     H136662   4.903   2.944   2.618
12140WAT     H236663   4.961   2.801   2.670
12141WAT      O36664   6.240   2.713   4.871
12141WAT     H136665   6.337   2.715   4.847
12141WAT     H236666   6.212   2.802   4.907
12142WAT      O36667   2.274   3.634   4.172
12142WAT     H136668   2.337   3.606   4.245
12142WAT     H236669   2.320   3.699   4.112
12143WAT      O36670   7.529   4.274   7.972
12143WAT     H136671   7.532   4.207   7.897
12143WAT     H236672   7.605   4.257   8.034
12144WAT      O36673   9.145   6.762   6.524
12144WAT     H136674   9.173   6.765   6.428
12144WAT     H236675   9.056   6.806   6.535
12145WAT      O36676   3.708   8.727   1.965
12145WAT     H136677   3.736   8.708   2.059
12145WAT     H236678   3.786   8.765   1.915
12146WAT      O36679   4.778   6.586   3.395
12146WAT     H136680   4.833   6.529   3.335
12146WAT     H236681   4.833   6.664   3.425
12147WAT      O36682   9.428   1.486   6.537
12147WAT     H136683   9.359   1.534   6.483
12147WAT     H236684   9.500   1.550   6.564
12148WAT      O36685   6.909   9.384   0.550
12148WAT     H136686   6.906   9.294   0.594
12148WAT     H236687   6.823   9.433   0.569
12149WAT      O36688   1.671   5.743   3.664
12149WAT     H136689   1.584   5.778   3.697
12149WAT     H236690   1.672   5.746   3.564
12150WAT      O36691   4.432   2.013   7.018
12150WAT     H136692   4.347   2.010   7.070
12150WAT     H236693   4.477   2.101   7.030
12151WAT      O36694   5.458   7.945   9.791
12151WAT     H136695   5.497   7.870   9.737
12151WAT     H236696   5.508   7.954   9.878
12152WAT      O36697   8.729   5.976   8.105
12152WAT     H136698   8.822   6.010   8.113
12152WAT     H236699   8.714   5.905   8.174
12153WAT      O36700   7.567   7.386   6.650
12153WAT     H136701   7.501   7.311   6.648
12153WAT     H236702   7.568   7.427   6.741
12154WAT      O36703   3.543   7.088   5.595
12154WAT     H136704   3.543   7.007   5.653
12154WAT     H236705   3.522   7.062   5.501
12155WAT      O36706   4.417   2.926   4.627
12155WAT     H136707   4.404   2.924   4.726
12155WAT     H236708   4.506   2.966   4.606
12156WAT      O36709   7.355   8.565   0.319
12156WAT     H136710   7.400   8.609   0.241
12156WAT     H236711   7.308   8.633   0.374
12157WAT      O36712   6.590   2.222   5.320
12157WAT     H136713   6.582   2.181   5.229
12157WAT     H236714   6.500   2.244   5.355
12158WAT      O36715   8.717   2.736   5.542
12158WAT     H136716   8.759   2.764   5.628
12158WAT     H236717   8.631   2.688   5.561
12159WAT      O36718   7.976   1.805   9.650
12159WAT     H136719   7.967   1.904   9.665
12159WAT     H236720   7.895   1.772   9.601
12160WAT      O36721   4.653   4.450   0.522
12160WAT     H136722   4.564   4.475   0.560
12160WAT     H236723   4.642   4.423   0.426
12161WAT      O36724   5.076   8.114   1.434
12161WAT     H136725   5.091   8.185   1.366
12161WAT     H236726   5.019   8.149   1.508
12162WAT      O36727   0.694   5.594   1.500
12162WAT     H136728   0.609   5.586   1.447
12162WAT     H236729   0.673   5.625   1.593
12163WAT      O36730   9.391   3.993   6.242
12163WAT     H136731   9.417   3.938   6.163
12163WAT     H236732   9.294   4.017   6.236
12164WAT      O36733   3.269   3.941   3.312
12164WAT     H136734   3.176   3.906   3.320
12164WAT     H236735   3.298   3.979   3.400
12165WAT      O36736   1.748   3.704   7.427
12165WAT     H136737   1.668   3.670   7.376
12165WAT     H236738   1.791   3.627   7.475
12166WAT      O36739   3.676   4.752   7.968
12166WAT     H136740   3.588   4.763   7.921
12166WAT     H236741   3.709   4.658   7.957
12167WAT      O36742   9.559   1.533   7.757
12167WAT     H136743   9.634   1.485   7.803
12167WAT     H236744   9.570   1.631   7.772
12168WAT      O36745   7.474   1.799   9.042
12168WAT     H136746   7.558   1.828   8.995
12168WAT     H236747   7.471   1.840   9.133
12169WAT      O36748   8.598   4.584   5.877
12169WAT     H136749   8.635   4.503   5.832
12169WAT     H236750   8.553   4.642   5.809
12170WAT      O36751   3.321   8.181   4.069
12170WAT     H136752   3.412   8.145   4.049
12170WAT     H236753   3.297   8.158   4.164
12171WAT      O36754   7.948   8.224   7.820
12171WAT     H136755   7.893   8.147   7.851
12171WAT     H236756   8.009   8.252   7.894
12172WAT      O36757   5.871   7.653   4.132
12172WAT     H136758   5.841   7.725   4.196
12172WAT     H236759   5.954   7.683   4.085
12173WAT      O36760   7.509   3.921   5.722
12173WAT     H136761   7.490   3.851   5.790
12173WAT     H236762   7.451   4.001   5.739
12174WAT      O36763   4.292   2.700   9.620
12174WAT     H136764   4.340   2.653   9.546
12174WAT     H236765   4.306   2.649   9.706
12175WAT      O36766   6.140   9.282   0.894
12175WAT     H136767   6.109   9.216   0.962
12175WAT     H236768   6.169   9.233   0.811
12176WAT      O36769   8.545   3.111   2.207
12176WAT     H136770   8.457   3.072   2.232
12176WAT     H236771   8.611   3.095   2.281
12177WAT      O36772   5.329   4.580   1.660
12177WAT     H136773   5.289   4.491   1.640
12177WAT     H236774   5.259   4.651   1.651
12178WAT      O36775   5.943   9.067   0.081
12178WAT     H136776   5.869   9.119   0.038
12178WAT     H236777   6.012   9.130   0.117
12179WAT      O36778   5.821   2.344   7.925
12179WAT     H136779   5.778   2.355   8.015
12179WAT     H236780   5.792   2.257   7.885
12180WAT      O36781   8.665   6.900   3.293
12180WAT     H136782   8.738   6.847   3.249
12180WAT     H236783   8.605   6.938   3.223
12181WAT      O36784   8.289   1.238   6.846
12181WAT     H136785   8.333   1.153   6.873
12181WAT     H236786   8.358   1.310   6.839
12182WAT      O36787   7.285   5.011   1.110
12182WAT     H136788   7.189   5.029   1.090
12182WAT     H236789   7.309   5.053   1.198
12183WAT      O36790   0.177   5.496   1.747
12183WAT     H136791   0.254   5.482   1.685
12183WAT     H236792   0.204   5.557   1.821
12184WAT      O36793   4.127   7.309   9.388
12184WAT     H136794   4.052   7.321   9.322
12184WAT     H236795   4.094   7.259   9.468
12185WAT      O36796   0.060   1.156   5.645
12185WAT     H136797   0.070   1.090   5.571
12185WAT     H236798  -0.031   1.147   5.686
12186WAT      O36799   3.753   4.247   7.877
12186WAT     H136800   3.787   4.166   7.831
12186WAT     H236801   3.653   4.248   7.876
12187WAT      O36802   0.808   3.684   1.205
12187WAT     H136803   0.882   3.749   1.187
12187WAT     H236804   0.795   3.676   1.304
12188WAT      O36805   0.861   5.094   8.642
12188WAT     H136806   0.778   5.079   8.696
12188WAT     H236807   0.863   5.188   8.608
12189WAT      O36808   5.228   9.598   9.114
12189WAT     H136809   5.320   9.629   9.139
12189WAT     H236810   5.177   9.674   9.074
12190WAT      O36811   3.845   2.880   5.705
12190WAT     H136812   3.855   2.898   5.802
12190WAT     H236813   3.798   2.957   5.661
12191WAT      O36814   6.610   8.823   3.985
12191WAT     H136815   6.519   8.828   4.025
12191WAT     H236816   6.649   8.733   4.004
12192WAT      O36817   6.272   9.057   4.157
12192WAT     H136818   6.322   9.105   4.230
12192WAT     H236819   6.178   9.041   4.186
12193WAT      O36820   3.816   2.979   0.872
12193WAT     H136821   3.906   3.018   0.855
12193WAT     H236822   3.773   2.954   0.785
12194WAT      O36823   4.682   9.062   9.596
12194WAT     H136824   4.723   9.152   9.579
12194WAT     H236825   4.751   9.000   9.632
12195WAT      O36826   6.127   9.247   0.197
12195WAT     H136827   6.095   9.338   0.223
12195WAT     H236828   6.226   9.249   0.180
12196WAT      O36829   0.320   8.402   1.595
12196WAT     H136830   0.297   8.337   1.523
12196WAT     H236831   0.370   8.479   1.556
12197WAT      O36832   5.020   6.419   6.794
12197WAT     H136833   5.065   6.444   6.708
12197WAT     H236834   5.068   6.341   6.835
12198WAT      O36835   5.945   3.805   4.986
12198WAT     H136836   5.909   3.845   4.902
12198WAT     H236837   5.900   3.717   5.004
12199WAT      O36838   6.239   7.030   8.865
12199WAT     H136839   6.335   7.014   8.844
12199WAT     H236840   6.189   7.054   8.781
12200WAT      O36841   6.223   3.570   0.514
12200WAT     H136842   6.216   3.667   0.538
12200WAT     H236843   6.136   3.525   0.533
12201WAT      O36844   6.431   0.113   2.217
12201WAT     H136845   6.418   0.050   2.140
12201WAT     H236846   6.468   0.200   2.183
12202WAT      O36847   2.133   9.629   2.708
12202WAT     H136848   2.199   9.642   2.633
12202WAT     H236849   2.041   9.651   2.675
12203WAT      O36850   8.289   9.192   6.327
12203WAT     H136851   8.274   9.143   6.414
12203WAT     H236852   8.206   9.242   6.303
12204WAT      O36853   9.467   0.818   7.670
12204WAT     H136854   9.560   0.838   7.699
12204WAT     H236855   9.402   0.852   7.739
12205WAT      O36856   0.639   5.891   3.155
12205WAT     H136857   0.603   5.880   3.062
12205WAT     H236858   0.563   5.904   3.219
12206WAT      O36859   1.093   3.875   6.056
12206WAT     H136860   0.997   3.873   6.025
12206WAT     H236861   1.123   3.783   6.079
12207WAT      O36862   2.024   1.165   4.725
12207WAT     H136863   2.044   1.094   4.658
12207WAT     H236864   2.028   1.255   4.682
12208WAT      O36865   2.907   5.760   2.884
12208WAT     H136866   2.891   5.686   2.949
12208WAT     H236867   2.988   5.812   2.911
12209WAT      O36868   5.415   2.695   4.382
12209WAT     H136869   5.457   2.680   4.471
12209WAT     H236870   5.465   2.645   4.312
12210WAT      O36871   7.424   1.211   2.043
12210WAT     H136872   7.438   1.165   2.131
12210WAT     H236873   7.327   1.233   2.032
12211WAT      O36874   8.311   4.051   7.651
12211WAT     H136875   8.402   4.091   7.662
12211WAT     H236876   8.260   4.062   7.737
12212WAT      O36877   1.477   7.559   7.755
12212WAT     H136878   1.476   7.639   7.696
12212WAT     H236879   1.383   7.525   7.766
12213WAT      O36880   5.792   4.464   8.607
12213WAT     H136881   5.856   4.510   8.545
12213WAT     H236882   5.822   4.479   8.701
12214WAT      O36883   0.967   5.607   3.435
12214WAT     H136884   0.908   5.684   3.410
12214WAT     H236885   0.912   5.536   3.479
12215WAT      O36886   7.151   3.375   2.361
12215WAT     H136887   7.211   3.455   2.361
12215WAT     H236888   7.147   3.337   2.268
12216WAT      O36889   8.135   2.293   9.839
12216WAT     H136890   8.087   2.380   9.848
12216WAT     H236891   8.153   2.256   9.930
12217WAT      O36892   9.428   7.917   0.834
12217WAT     H136893   9.351   7.869   0.793
12217WAT     H236894   9.424   8.014   0.811
12218WAT      O36895   7.791   0.906   1.538
12218WAT     H136896   7.808   0.848   1.459
12218WAT     H236897   7.778   0.849   1.619
12219WAT      O36898   5.909   5.694   5.370
12219WAT     H136899   5.850   5.742   5.435
12219WAT     H236900   5.962   5.760   5.317
12220WAT      O36901   2.620   5.460   1.888
12220WAT     H136902   2.708   5.505   1.870
12220WAT     H236903   2.546   5.520   1.857
12221WAT      O36904   6.796   7.874   7.312
12221WAT     H136905   6.777   7.968   7.339
12221WAT     H236906   6.742   7.812   7.369
12222WAT      O36907   3.665   5.914   9.673
12222WAT     H136908   3.752   5.921   9.623
12222WAT     H236909   3.673   5.962   9.760
12223WAT      O36910   6.231   7.249   8.530
12223WAT     H136911   6.214   7.227   8.434
12223WAT     H236912   6.189   7.179   8.588
12224WAT      O36913   3.830   9.656   7.241
12224WAT     H136914   3.865   9.594   7.171
12224WAT     H236915   3.902   9.720   7.268
12225WAT      O36916   4.968   4.679   0.867
12225WAT     H136917   5.056   4.632   0.873
12225WAT     H236918   4.915   4.641   0.791
12226WAT      O36919   9.124   4.932   9.832
12226WAT     H136920   9.211   4.902   9.871
12226WAT     H236921   9.066   4.969   9.905
12227WAT      O36922   9.080   1.381   8.558
12227WAT     H136923   9.046   1.453   8.498
12227WAT     H236924   9.092   1.296   8.506
12228WAT      O36925   2.673   4.958   0.809
12228WAT     H136926   2.622   4.896   0.868
12228WAT     H236927   2.615   4.988   0.734
12229WAT      O36928   9.473   0.134   5.608
12229WAT     H136929   9.412   0.163   5.534
12229WAT     H236930   9.455   0.038   5.632
12230WAT      O36931   6.927   7.998   9.778
12230WAT     H136932   6.869   7.987   9.697
12230WAT     H236933   6.972   7.911   9.799
12231WAT      O36934   1.979   1.278   0.596
12231WAT     H136935   1.898   1.221   0.585
12231WAT     H236936   1.963   1.346   0.668
12232WAT      O36937   5.607   6.976   6.296
12232WAT     H136938   5.524   6.963   6.351
12232WAT     H236939   5.687   6.978   6.356
12233WAT      O36940   6.369   5.792   1.837
12233WAT     H136941   6.331   5.761   1.749
12233WAT     H236942   6.462   5.757   1.847
12234WAT      O36943   4.575   2.416   7.000
12234WAT     H136944   4.585   2.492   7.065
12234WAT     H236945   4.572   2.453   6.907
12235WAT      O36946   3.363   6.915   7.202
12235WAT     H136947   3.388   6.840   7.141
12235WAT     H236948   3.337   6.878   7.291
12236WAT      O36949   6.825   4.857   5.224
12236WAT     H136950   6.814   4.758   5.229
12236WAT     H236951   6.748   4.896   5.174
12237WAT      O36952   7.551   0.440   3.748
12237WAT     H136953   7.597   0.360   3.789
12237WAT     H236954   7.611   0.481   3.680
12238WAT      O36955   5.802   7.640   7.628
12238WAT     H136956   5.840   7.648   7.536
12238WAT     H236957   5.875   7.648   7.695
12239WAT      O36958   7.912   3.894   7.945
12239WAT     H136959   7.927   3.879   8.043
12239WAT     H236960   7.946   3.815   7.894
12240WAT      O36961   5.904   8.792   5.410
12240WAT     H136962   5.901   8.892   5.408
12240WAT     H236963   5.833   8.759   5.472
12241WAT      O36964   5.181   1.904   4.776
12241WAT     H136965   5.223   1.868   4.693
12241WAT     H236966   5.122   1.982   4.753
12242WAT      O36967   7.817   7.339   0.777
12242WAT     H136968   7.867   7.411   0.825
12242WAT     H236969   7.734   7.377   0.737
12243WAT      O36970   8.459   1.265   9.210
12243WAT     H136971   8.463   1.297   9.304
12243WAT     H236972   8.376   1.301   9.166
12244WAT      O36973   2.552   9.160   8.507
12244WAT     H136974   2.570   9.159   8.408
12244WAT     H236975   2.535   9.067   8.539
12245WAT      O36976   8.243   7.609   3.971
12245WAT     H136977   8.225   7.511   3.976
12245WAT     H236978   8.328   7.625   3.921
12246WAT      O36979   3.360   4.448   9.455
12246WAT     H136980   3.407   4.533   9.480
12246WAT     H236981   3.428   4.379   9.429
12247WAT      O36982   6.595   6.403   2.231
12247WAT     H136983   6.543   6.486   2.211
12247WAT     H236984   6.632   6.365   2.146
12248WAT      O36985   7.367   4.145   4.320
12248WAT     H136986   7.357   4.202   4.401
12248WAT     H236987   7.290   4.160   4.258
12249WAT      O36988   1.488   8.849   9.434
12249WAT     H136989   1.426   8.801   9.372
12249WAT     H236990   1.560   8.786   9.463
12250WAT      O36991   9.288   6.079   2.196
12250WAT     H136992   9.219   6.148   2.216
12250WAT     H236993   9.303   6.022   2.277
12251WAT      O36994   2.960   0.131   7.138
12251WAT     H136995   2.881   0.192   7.132
12251WAT     H236996   3.031   0.174   7.194
12252WAT      O36997   8.583   1.735   8.602
12252WAT     H136998   8.517   1.735   8.526
12252WAT     H236999   8.661   1.677   8.578
12253WAT      O37000   2.162   5.896   0.717
12253WAT     H137001   2.226   5.896   0.793
12253WAT     H237002   2.170   5.982   0.666
12254WAT      O37003   9.338   1.367   6.762
12254WAT     H137004   9.390   1.289   6.796
12254WAT     H237005   9.374   1.396   6.673
12255WAT      O37006   4.956   2.742   9.162
12255WAT     H137007   4.939   2.679   9.237
12255WAT     H237008   4.870   2.786   9.136
12256WAT      O37009   2.583   0.496   0.573
12256WAT     H137010   2.577   0.593   0.595
12256WAT     H237011   2.539   0.443   0.646
12257WAT      O37012   8.024   7.110   5.165
12257WAT     H137013   8.080   7.143   5.088
12257WAT     H237014   8.038   7.012   5.178
12258WAT      O37015   3.605   2.747   0.985
12258WAT     H137016   3.605   2.794   1.073
12258WAT     H237017   3.678   2.679   0.983
12259WAT      O37018   0.434   7.399   9.482
12259WAT     H137019   0.420   7.445   9.395
12259WAT     H237020   0.416   7.462   9.557
12260WAT      O37021   3.918   3.139   3.929
12260WAT     H137022   3.841   3.202   3.912
12260WAT     H237023   3.911   3.062   3.866
12261WAT      O37024   4.214   3.995   5.621
12261WAT     H137025   4.161   3.938   5.683
12261WAT     H237026   4.311   3.986   5.643
12262WAT      O37027   2.220   4.173   9.811
12262WAT     H137028   2.312   4.149   9.778
12262WAT     H237029   2.197   4.265   9.779
12263WAT      O37030   9.624   0.184   8.372
12263WAT     H137031   9.697   0.121   8.396
12263WAT     H237032   9.660   0.257   8.313
12264WAT      O37033   9.711   1.222   0.098
12264WAT     H137034   9.718   1.225  -0.001
12264WAT     H237035   9.786   1.274   0.138
12265WAT      O37036   1.797   0.441   2.096
12265WAT     H137037   1.743   0.477   2.171
12265WAT     H237038   1.744   0.446   2.011
12266WAT      O37039   8.132   8.303   0.242
12266WAT     H137040   8.060   8.354   0.196
12266WAT     H237041   8.091   8.230   0.297
12267WAT      O37042   7.292   6.732   4.606
12267WAT     H137043   7.200   6.692   4.611
12267WAT     H237044   7.345   6.704   4.686
12268WAT      O37045   4.438   9.424   6.640
12268WAT     H137046   4.461   9.359   6.567
12268WAT     H237047   4.345   9.406   6.673
12269WAT      O37048   4.146   4.768   2.084
12269WAT     H137049   4.058   4.723   2.102
12269WAT     H237050   4.214   4.733   2.148
12270WAT      O37051   4.651   0.068   7.135
12270WAT     H137052   4.614  -0.025   7.127
12270WAT     H237053   4.656   0.109   7.044
12271WAT      O37054   1.960   5.670   2.366
12271WAT     H137055   1.895   5.636   2.435
12271WAT     H237056   2.008   5.750   2.403
12272WAT      O37057   0.485   5.325   1.146
12272WAT     H137058   0.578   5.322   1.109
12272WAT     H237059   0.422   5.353   1.074
12273WAT      O37060   4.904   5.937   0.297
12273WAT     H137061   4.945   5.898   0.379
12273WAT     H237062   4.949   5.899   0.216
12274WAT      O37063   1.449   6.929   1.866
12274WAT     H137064   1.442   7.018   1.822
12274WAT     H237065   1.436   6.857   1.798
12275WAT      O37066   5.148   9.566   9.583
12275WAT     H137067   5.112   9.473   9.590
12275WAT     H237068   5.140   9.613   9.671
12276WAT      O37069   6.216   6.057   7.055
12276WAT     H137070   6.309   6.063   7.093
12276WAT     H237071   6.197   5.963   7.029
12277WAT      O37072   1.766   7.704   9.217
12277WAT     H137073   1.855   7.736   9.186
12277WAT     H237074   1.697   7.724   9.147
12278WAT      O37075   8.091   1.675   7.012
12278WAT     H137076   8.136   1.745   6.957
12278WAT     H237077   8.050   1.606   6.951
12279WAT      O37078   0.557   0.410   9.637
12279WAT     H137079   0.634   0.469   9.662
12279WAT     H237080   0.574   0.317   9.669
12280WAT      O37081   1.865   9.228   7.615
12280WAT     H137082   1.834   9.322   7.629
12280WAT     H237083   1.943   9.229   7.552
12281WAT      O37084   5.868   1.642   4.060
12281WAT     H137085   5.779   1.596   4.054
12281WAT     H237086   5.941   1.575   4.045
12282WAT      O37087   7.615   8.999   7.000
12282WAT     H137088   7.685   8.938   6.964
12282WAT     H237089   7.524   8.966   6.974
12283WAT      O37090   5.360   7.878   7.540
12283WAT     H137091   5.365   7.787   7.580
12283WAT     H237092   5.393   7.874   7.445
12284WAT      O37093   1.130   6.355   3.965
12284WAT     H137094   1.187   6.329   3.887
12284WAT     H237095   1.082   6.440   3.944
12285WAT      O37096   8.449   7.502   1.904
12285WAT     H137097   8.373   7.442   1.879
12285WAT     H237098   8.536   7.457   1.881
12286WAT      O37099   3.006   6.187   5.634
12286WAT     H137100   2.983   6.179   5.537
12286WAT     H237101   3.006   6.097   5.677
12287WAT      O37102   3.422   3.584   0.986
12287WAT     H137103   3.330   3.548   0.967
12287WAT     H237104   3.416   3.651   1.060
12288WAT      O37105   4.218   7.484   3.052
12288WAT     H137106   4.146   7.437   3.103
12288WAT     H237107   4.177   7.543   2.983
12289WAT      O37108   0.234   2.226   7.384
12289WAT     H137109   0.177   2.294   7.428
12289WAT     H237110   0.179   2.174   7.317
12290WAT      O37111   6.259   2.514   6.960
12290WAT     H137112   6.307   2.471   7.036
12290WAT     H237113   6.310   2.497   6.875
12291WAT      O37114   0.847   6.748   8.401
12291WAT     H137115   0.922   6.728   8.465
12291WAT     H237116   0.866   6.706   8.313
12292WAT      O37117   5.408   6.807   3.303
12292WAT     H137118   5.437   6.783   3.210
12292WAT     H237119   5.332   6.748   3.330
12293WAT      O37120   8.063   2.765   4.553
12293WAT     H137121   8.036   2.669   4.564
12293WAT     H237122   8.049   2.813   4.639
12294WAT      O37123   2.594   2.980   5.997
12294WAT     H137124   2.582   3.079   6.005
12294WAT     H237125   2.690   2.957   6.013
12295WAT      O37126   6.608   2.133   2.600
12295WAT     H137127   6.669   2.054   2.601
12295WAT     H237128   6.513   2.102   2.607
12296WAT      O37129   6.173   2.824   8.078
12296WAT     H137130   6.202   2.757   8.147
12296WAT     H237131   6.074   2.817   8.064
12297WAT      O37132   8.136   5.277   0.396
12297WAT     H137133   8.230   5.281   0.363
12297WAT     H237134   8.073   5.284   0.319
12298WAT      O37135   8.990   4.053   9.310
12298WAT     H137136   8.950   4.057   9.401
12298WAT     H237137   8.940   3.987   9.254
12299WAT      O37138   0.701   8.528   0.343
12299WAT     H137139   0.700   8.467   0.263
12299WAT     H237140   0.795   8.559   0.360
12300WAT      O37141   7.697   3.331   0.271
12300WAT     H137142   7.694   3.350   0.369
12300WAT     H237143   7.788   3.296   0.247
12301WAT      O37144   9.646   0.158   0.093
12301WAT     H137145   9.643   0.143   0.192
12301WAT     H237146   9.698   0.085   0.049
12302WAT      O37147   2.991   5.661   5.128
12302WAT     H137148   2.923   5.675   5.056
12302WAT     H237149   3.082   5.677   5.091
12303WAT      O37150   8.244   8.930   2.375
12303WAT     H137151   8.340   8.901   2.365
12303WAT     H237152   8.231   8.968   2.467
12304WAT      O37153   3.617   2.001   9.411
12304WAT     H137154   3.690   1.944   9.449
12304WAT     H237155   3.528   1.960   9.432
12305WAT      O37156   3.895   5.926   4.021
12305WAT     H137157   3.969   5.862   4.040
12305WAT     H237158   3.881   5.986   4.100
12306WAT      O37159   2.860   4.624   1.372
12306WAT     H137160   2.919   4.544   1.373
12306WAT     H237161   2.777   4.604   1.321
12307WAT      O37162   2.007   5.545   6.562
12307WAT     H137163   1.915   5.556   6.600
12307WAT     H237164   2.045   5.457   6.593
12308WAT      O37165   0.990   1.421   5.541
12308WAT     H137166   0.994   1.336   5.594
12308WAT     H237167   0.896   1.439   5.514
12309WAT      O37168   4.733   9.231   6.903
12309WAT     H137169   4.653   9.275   6.942
12309WAT     H237170   4.782   9.182   6.975
12310WAT      O37171   1.407   6.576   3.511
12310WAT     H137172   1.475   6.503   3.504
12310WAT     H237173   1.338   6.565   3.439
12311WAT      O37174   1.787   3.762   6.339
12311WAT     H137175   1.842   3.710   6.274
12311WAT     H237176   1.796   3.860   6.320
12312WAT      O37177   3.519   0.449   1.772
12312WAT     H137178   3.559   0.465   1.862
12312WAT     H237179   3.421   0.432   1.782
12313WAT      O37180   5.593   4.968   9.481
12313WAT     H137181   5.643   5.031   9.421
12313WAT     H237182   5.649   4.947   9.560
12314WAT      O37183   3.249   1.412   9.764
12314WAT     H137184   3.195   1.483   9.718
12314WAT     H237185   3.189   1.353   9.818
12315WAT      O37186   2.756   6.895   5.367
12315WAT     H137187   2.799   6.828   5.427
12315WAT     H237188   2.796   6.985   5.384
12316WAT      O37189   2.622   3.261   0.038
12316WAT     H137190   2.719   3.283   0.036
12316WAT     H237191   2.576   3.304  -0.040
12317WAT      O37192   1.402   8.820   5.627
12317WAT     H137193   1.412   8.749   5.696
12317WAT     H237194   1.305   8.831   5.604
12318WAT      O37195   1.285   2.493   1.113
12318WAT     H137196   1.283   2.588   1.082
12318WAT     H237197   1.194   2.453   1.105
12319WAT      O37198   4.745   6.190   1.453
12319WAT     H137199   4.689   6.196   1.370
12319WAT     H237200   4.841   6.204   1.429
12320WAT      O37201   0.299   4.205   0.049
12320WAT     H137202   0.224   4.166   0.101
12320WAT     H237203   0.273   4.296   0.016
12321WAT      O37204   5.296   3.400   6.785
12321WAT     H137205   5.341   3.320   6.747
12321WAT     H237206   5.298   3.395   6.885
12322WAT      O37207   1.963   4.585   3.706
12322WAT     H137208   1.919   4.674   3.692
12322WAT     H237209   1.895   4.520   3.739
12323WAT      O37210   2.289   6.910   7.363
12323WAT     H137211   2.222   6.924   7.436
12323WAT     H237212   2.243   6.871   7.283
12324WAT      O37213   1.262   8.338   1.027
12324WAT     H137214   1.230   8.422   1.071
12324WAT     H237215   1.293   8.358   0.934
12325WAT      O37216   5.893   0.703   0.108
12325WAT     H137217   5.950   0.622   0.120
12325WAT     H237218   5.825   0.707   0.181
12326WAT      O37219   4.157   7.115   5.312
12326WAT     H137220   4.093   7.177   5.358
12326WAT     H237221   4.134   7.020   5.336
12327WAT      O37222   4.380   8.308   1.270
12327WAT     H137223   4.455   8.244   1.288
12327WAT     H237224   4.295   8.269   1.305
12328WAT      O37225   6.326   0.334   8.609
12328WAT     H137226   6.243   0.289   8.577
12328WAT     H237227   6.406   0.278   8.585
12329WAT      O37228   4.823   7.426   8.939
12329WAT     H137229   4.919   7.454   8.936
12329WAT     H237230   4.781   7.456   9.025
12330WAT      O37231   1.908   8.331   8.606
12330WAT     H137232   1.834   8.397   8.593
12330WAT     H237233   1.947   8.306   8.518
12331WAT      O37234   2.587   6.739   5.865
12331WAT     H137235   2.657   6.668   5.865
12331WAT     H237236   2.574   6.774   5.958
12332WAT      O37237   8.636   4.940   2.483
12332WAT     H137238   8.700   4.912   2.411
12332WAT     H237239   8.620   4.864   2.545
12333WAT      O37240   7.202   5.257   2.061
12333WAT     H137241   7.194   5.301   1.971
12333WAT     H237242   7.248   5.319   2.124
12334WAT      O37243   7.943   2.078   9.681
12334WAT     H137244   8.016   2.146   9.692
12334WAT     H237245   7.861   2.123   9.643
12335WAT      O37246   5.191   3.155   5.446
12335WAT     H137247   5.239   3.240   5.425
12335WAT     H237248   5.187   3.099   5.363
12336WAT      O37249   9.841   4.291   7.421
12336WAT     H137250   9.888   4.278   7.508
12336WAT     H237251   9.743   4.302   7.437
12337WAT      O37252   9.177   5.075   6.232
12337WAT     H137253   9.093   5.129   6.242
12337WAT     H237254   9.210   5.048   6.322
12338WAT      O37255   1.871   4.849   4.545
12338WAT     H137256   1.889   4.768   4.599
12338WAT     H237257   1.800   4.829   4.477
12339WAT      O37258   5.521   7.930   1.001
12339WAT     H137259   5.548   7.863   0.932
12339WAT     H237260   5.463   7.886   1.070
12340WAT      O37261   3.250   6.976   0.039
12340WAT     H137262   3.186   7.006   0.110
12340WAT     H237263   3.314   6.910   0.078
12341WAT      O37264   5.581   9.771   1.812
12341WAT     H137265   5.535   9.859   1.801
12341WAT     H237266   5.676   9.786   1.837
12342WAT      O37267   4.231   2.264   6.044
12342WAT     H137268   4.184   2.351   6.056
12342WAT     H237269   4.239   2.218   6.132
12343WAT      O37270   3.127   0.044   0.008
12343WAT     H137271   3.156   0.059   0.102
12343WAT     H237272   3.068  -0.036   0.004
12344WAT      O37273   6.990   3.723   0.405
12344WAT     H137274   6.982   3.635   0.357
12344WAT     H237275   6.910   3.737   0.462
12345WAT      O37276   2.313   4.479   4.359
12345WAT     H137277   2.215   4.499   4.351
12345WAT     H237278   2.361   4.516   4.279
12346WAT      O37279   6.245   6.835   4.441
12346WAT     H137280   6.204   6.758   4.393
12346WAT     H237281   6.300   6.888   4.378
12347WAT      O37282   2.752   1.083   7.893
12347WAT     H137283   2.660   1.042   7.894
12347WAT     H237284   2.748   1.171   7.845
12348WAT      O37285   4.154   3.173   0.157
12348WAT     H137286   4.247   3.137   0.149
12348WAT     H237287   4.104   3.123   0.228
12349WAT      O37288   7.631   7.957   2.558
12349WAT     H137289   7.576   7.875   2.576
12349WAT     H237290   7.676   7.986   2.643
12350WAT      O37291   4.928   5.030   0.617
12350WAT     H137292   5.010   5.069   0.658
12350WAT     H237293   4.935   4.930   0.618
12351WAT      O37294   8.077   1.513   0.236
12351WAT     H137295   8.022   1.499   0.318
12351WAT     H237296   8.171   1.536   0.263
12352WAT      O37297   8.229   2.127   2.239
12352WAT     H137298   8.161   2.200   2.249
12352WAT     H237299   8.238   2.103   2.142
12353WAT      O37300   0.612   2.087   7.135
12353WAT     H137301   0.699   2.048   7.103
12353WAT     H237302   0.586   2.042   7.221
12354WAT      O37303   9.634   4.322   5.708
12354WAT     H137304   9.623   4.239   5.652
12354WAT     H237305   9.728   4.328   5.740
12355WAT      O37306   9.283   5.005   7.127
12355WAT     H137307   9.199   4.951   7.139
12355WAT     H237308   9.295   5.028   7.031
12356WAT      O37309   0.298   5.413   5.632
12356WAT     H137310   0.304   5.342   5.562
12356WAT     H237311   0.233   5.483   5.603
12357WAT      O37312   1.793   5.240   6.338
12357WAT     H137313   1.713   5.242   6.279
12357WAT     H237314   1.867   5.294   6.297
12358WAT      O37315   0.477   7.380   8.516
12358WAT     H137316   0.441   7.444   8.449
12358WAT     H237317   0.458   7.286   8.487
12359WAT      O37318   7.944   9.143   2.251
12359WAT     H137319   7.940   9.130   2.350
12359WAT     H237320   8.038   9.162   2.224
12360WAT      O37321   2.421   8.902   1.746
12360WAT     H137322   2.339   8.953   1.721
12360WAT     H237323   2.396   8.821   1.799
12361WAT      O37324   7.573   3.351   4.566
12361WAT     H137325   7.484   3.394   4.584
12361WAT     H237326   7.635   3.419   4.527
12362WAT      O37327   9.865   7.566   3.693
12362WAT     H137328   9.791   7.523   3.746
12362WAT     H237329   9.834   7.654   3.658
12363WAT      O37330   7.167   1.928   5.328
12363WAT     H137331   7.159   1.843   5.379
12363WAT     H237332   7.170   2.006   5.391
12364WAT      O37333   8.793   0.367   4.446
12364WAT     H137334   8.861   0.428   4.406
12364WAT     H237335   8.795   0.279   4.398
12365WAT      O37336   6.223   4.772   9.206
12365WAT     H137337   6.252   4.728   9.121
12365WAT     H237338   6.140   4.727   9.240
12366WAT      O37339   7.934   2.153   2.065
12366WAT     H137340   8.030   2.128   2.050
12366WAT     H237341   7.875   2.079   2.031
12367WAT      O37342   1.855   8.865   7.285
12367WAT     H137343   1.807   8.785   7.247
12367WAT     H237344   1.818   8.948   7.243
12368WAT      O37345   4.702   6.807   4.595
12368WAT     H137346   4.677   6.896   4.635
12368WAT     H237347   4.630   6.777   4.533
12369WAT      O37348   7.326   2.030   6.594
12369WAT     H137349   7.335   1.995   6.688
12369WAT     H237350   7.233   2.012   6.561
12370WAT      O37351   2.127   3.499   0.624
12370WAT     H137352   2.069   3.558   0.568
12370WAT     H237353   2.209   3.549   0.652
12371WAT      O37354   0.047   5.060   1.189
12371WAT     H137355   0.034   4.975   1.239
12371WAT     H237356   0.039   5.138   1.251
12372WAT      O37357   5.331   7.600   2.749
12372WAT     H137358   5.368   7.576   2.838
12372WAT     H237359   5.304   7.516   2.701
12373WAT      O37360   2.819   2.346   0.298
12373WAT     H137361   2.786   2.428   0.252
12373WAT     H237362   2.845   2.369   0.392
12374WAT      O37363   2.970   2.915   7.256
12374WAT     H137364   3.027   2.834   7.273
12374WAT     H237365   2.977   2.941   7.160
12375WAT      O37366   6.067   7.346   9.195
12375WAT     H137367   5.987   7.342   9.255
12375WAT     H237368   6.093   7.254   9.167
12376WAT      O37369   4.974   2.620   4.537
12376WAT     H137370   4.882   2.653   4.561
12376WAT     H237371   4.994   2.642   4.442
12377WAT      O37372   5.752   5.064   2.535
12377WAT     H137373   5.675   5.087   2.595
12377WAT     H237374   5.729   5.090   2.441
12378WAT      O37375   7.430   5.592   3.215
12378WAT     H137376   7.490   5.650   3.270
12378WAT     H237377   7.345   5.642   3.195
12379WAT      O37378   0.417   6.027   4.336
12379WAT     H137379   0.340   6.089   4.322
12379WAT     H237380   0.410   5.951   4.272
12380WAT      O37381   1.452   5.687   5.234
12380WAT     H137382   1.396   5.625   5.180
12380WAT     H237383   1.436   5.672   5.331
12381WAT      O37384   8.102   7.064   1.325
12381WAT     H137385   8.056   7.152   1.321
12381WAT     H237386   8.053   6.998   1.268
12382WAT      O37387   7.647   3.670   5.239
12382WAT     H137388   7.603   3.726   5.308
12382WAT     H237389   7.702   3.599   5.283
12383WAT      O37390   1.769   6.743   6.574
12383WAT     H137391   1.683   6.762   6.621
12383WAT     H237392   1.834   6.703   6.638
12384WAT      O37393   2.121   0.293   4.275
12384WAT     H137394   2.209   0.340   4.264
12384WAT     H237395   2.047   0.360   4.271
12385WAT      O37396   1.222   3.885   1.606
12385WAT     H137397   1.216   3.796   1.651
12385WAT     H237398   1.312   3.925   1.625
12386WAT      O37399   2.092   3.819   7.751
12386WAT     H137400   2.000   3.857   7.757
12386WAT     H237401   2.154   3.887   7.712
12387WAT      O37402   5.891   9.346   9.491
12387WAT     H137403   5.942   9.393   9.562
12387WAT     H237404   5.921   9.378   9.401
12388WAT      O37405   5.157   6.510   7.007
12388WAT     H137406   5.103   6.468   6.934
12388WAT     H237407   5.106   6.587   7.046
12389WAT      O37408   5.605   1.653   7.179
12389WAT     H137409   5.640   1.737   7.137
12389WAT     H237410   5.676   1.583   7.180
12390WAT      O37411   4.056   0.947   6.828
12390WAT     H137412   4.067   0.883   6.753
12390WAT     H237413   4.081   0.903   6.914
12391WAT      O37414   5.201   7.093   1.145
12391WAT     H137415   5.232   7.138   1.228
12391WAT     H237416   5.213   7.155   1.067
12392WAT      O37417   1.882   5.506   4.794
12392WAT     H137418   1.960   5.522   4.855
12392WAT     H237419   1.799   5.543   4.836
12393WAT      O37420   4.044   1.993   0.375
12393WAT     H137421   4.032   2.093   0.377
12393WAT     H237422   3.954   1.949   0.368
12394WAT      O37423   3.134   6.422   9.379
12394WAT     H137424   3.149   6.326   9.358
12394WAT     H237425   3.168   6.442   9.471
12395WAT      O37426   3.134   5.420   2.797
12395WAT     H137427   3.150   5.447   2.892
12395WAT     H237428   3.081   5.491   2.751
12396WAT      O37429   8.744   0.338   6.971
12396WAT     H137430   8.740   0.405   7.045
12396WAT     H237431   8.658   0.286   6.969
12397WAT      O37432   0.348   2.402   5.049
12397WAT     H137433   0.294   2.464   5.105
12397WAT     H237434   0.298   2.383   4.964
12398WAT      O37435   6.938   7.734   8.830
12398WAT     H137436   7.033   7.757   8.854
12398WAT     H237437   6.894   7.691   8.909
12399WAT      O37438   2.694   2.105   8.583
12399WAT     H137439   2.730   2.030   8.638
12399WAT     H237440   2.698   2.190   8.635
12400WAT      O37441   1.657   0.155   3.356
12400WAT     H137442   1.589   0.206   3.409
12400WAT     H237443   1.742   0.149   3.407
12401WAT      O37444   5.201   3.045   2.091
12401WAT     H137445   5.192   2.960   2.040
12401WAT     H237446   5.111   3.074   2.125
12402WAT      O37447   3.999   8.726   0.119
12402WAT     H137448   3.919   8.774   0.083
12402WAT     H237449   3.991   8.719   0.219
12403WAT      O37450   4.703   4.914   2.170
12403WAT     H137451   4.683   4.862   2.087
12403WAT     H237452   4.750   4.856   2.236
12404WAT      O37453   3.828   0.356   1.412
12404WAT     H137454   3.741   0.388   1.449
12404WAT     H237455   3.812   0.310   1.325
12405WAT      O37456   8.062   8.676   2.057
12405WAT     H137457   8.123   8.678   2.136
12405WAT     H237458   8.115   8.666   1.973
12406WAT      O37459   3.639   3.805   9.292
12406WAT     H137460   3.640   3.745   9.212
12406WAT     H237461   3.727   3.798   9.339
12407WAT      O37462   7.310   8.300   3.460
12407WAT     H137463   7.252   8.380   3.474
12407WAT     H237464   7.254   8.218   3.461
12408WAT      O37465   7.497   8.379   0.918
12408WAT     H137466   7.466   8.353   0.826
12408WAT     H237467   7.591   8.347   0.931
12409WAT      O37468   0.490   1.562   0.092
12409WAT     H137469   0.513   1.471   0.059
12409WAT     H237470   0.402   1.591   0.054
12410WAT      O37471   0.576   4.113   7.059
12410WAT     H137472   0.628   4.031   7.081
12410WAT     H237473   0.485   4.088   7.027
12411WAT      O37474   6.258   0.084   9.346
12411WAT     H137475   6.346   0.131   9.345
12411WAT     H237476   6.256   0.016   9.272
12412WAT      O37477   5.583   9.052   6.750
12412WAT     H137478   5.492   9.087   6.772
12412WAT     H237479   5.625   9.013   6.832
12413WAT      O37480   6.671   2.125   9.552
12413WAT     H137481   6.706   2.218   9.557
12413WAT     H237482   6.748   2.061   9.543
12414WAT      O37483   5.396   0.664   7.865
12414WAT     H137484   5.476   0.659   7.806
12414WAT     H237485   5.394   0.753   7.911
12415WAT      O37486   7.249   1.002   6.346
12415WAT     H137487   7.168   1.055   6.321
12415WAT     H237488   7.224   0.907   6.359
12416WAT      O37489   0.415   8.596   1.440
12416WAT     H137490   0.386   8.665   1.374
12416WAT     H237491   0.490   8.632   1.496
12417WAT      O37492   9.705   4.948   8.490
12417WAT     H137493   9.671   4.975   8.401
12417WAT     H237494   9.677   5.016   8.559
12418WAT      O37495   8.928   4.386   1.187
12418WAT     H137496   8.951   4.291   1.165
12418WAT     H237497   9.003   4.427   1.239
12419WAT      O37498   9.787   4.531   7.984
12419WAT     H137499   9.717   4.532   8.056
12419WAT     H237500   9.747   4.498   7.899
12420WAT      O37501   2.694   9.233   1.488
12420WAT     H137502   2.772   9.283   1.451
12420WAT     H237503   2.698   9.234   1.588
12421WAT      O37504   9.735   6.007   3.324
12421WAT     H137505   9.731   5.908   3.339
12421WAT     H237506   9.776   6.051   3.404
12422WAT      O37507   4.040   0.023   8.502
12422WAT     H137508   4.006  -0.017   8.586
12422WAT     H237509   3.963   0.044   8.441
12423WAT      O37510   0.585   0.709   4.518
12423WAT     H137511   0.614   0.640   4.452
12423WAT     H237512   0.595   0.800   4.477
12424WAT      O37513   8.591   6.233   4.423
12424WAT     H137514   8.535   6.192   4.351
12424WAT     H237515   8.576   6.332   4.424
12425WAT      O37516   8.058   8.311   2.042
12425WAT     H137517   8.138   8.371   2.041
12425WAT     H237518   8.088   8.216   2.042
12426WAT      O37519   8.289   9.320   9.880
12426WAT     H137520   8.386   9.298   9.874
12426WAT     H237521   8.246   9.308   9.790
12427WAT      O37522   5.016   6.156   0.019
12427WAT     H137523   4.991   6.106  -0.064
12427WAT     H237524   5.066   6.239  -0.005
12428WAT      O37525   4.454   6.360   3.334
12428WAT     H137526   4.382   6.406   3.386
12428WAT     H237527   4.461   6.401   3.243
12429WAT      O37528   1.844   6.093   1.204
12429WAT     H137529   1.866   6.081   1.300
12429WAT     H237530   1.928   6.086   1.150
12430WAT      O37531   8.951   2.934   7.037
12430WAT     H137532   9.005   2.911   7.118
12430WAT     H237533   8.978   2.875   6.961
12431WAT      O37534   0.334   1.287   5.548
12431WAT     H137535   0.279   1.307   5.467
12431WAT     H237536   0.276   1.297   5.630
12432WAT      O37537   2.808   5.881   0.926
12432WAT     H137538   2.868   5.861   1.003
12432WAT     H237539   2.713   5.870   0.955
12433WAT      O37540   2.799   0.403   0.206
12433WAT     H137541   2.707   0.373   0.231
12433WAT     H237542   2.850   0.326   0.168
12434WAT      O37543   7.109   4.882   5.329
12434WAT     H137544   7.026   4.886   5.386
12434WAT     H237545   7.170   4.957   5.353
12435WAT      O37546   8.427   2.717   4.172
12435WAT     H137547   8.485   2.653   4.222
12435WAT     H237548   8.453   2.811   4.195
12436WAT      O37549   4.197   1.821   8.852
12436WAT     H137550   4.144   1.740   8.877
12436WAT     H237551   4.294   1.797   8.848
12437WAT      O37552   5.798   8.546   0.624
12437WAT     H137553   5.788   8.605   0.704
12437WAT     H237554   5.868   8.477   0.641
12438WAT      O37555   4.592   3.557   0.004
12438WAT     H137556   4.547   3.482   0.053
12438WAT     H237557   4.654   3.520  -0.065
12439WAT      O37558   3.935   2.283   9.118
12439WAT     H137559   3.962   2.254   9.026
12439WAT     H237560   3.897   2.205   9.168
12440WAT      O37561   5.901   3.343   3.750
12440WAT     H137562   5.948   3.289   3.679
12440WAT     H237563   5.828   3.396   3.708
12441WAT      O37564   0.527   5.997   9.662
12441WAT     H137565   0.615   6.035   9.689
12441WAT     H237566   0.479   5.964   9.743
12442WAT      O37567   5.945   6.547   0.458
12442WAT     H137568   5.944   6.457   0.501
12442WAT     H237569   5.863   6.598   0.485
12443WAT      O37570   0.207   8.017   5.857
12443WAT     H137571   0.237   8.004   5.951
12443WAT     H237572   0.114   7.981   5.846
12444WAT      O37573   1.054   6.144   7.275
12444WAT     H137574   1.106   6.092   7.208
12444WAT     H237575   0.986   6.084   7.319
12445WAT      O37576   6.859   6.111   1.246
12445WAT     H137577   6.865   6.198   1.295
12445WAT     H237578   6.893   6.037   1.305
12446WAT      O37579   8.671   6.253   0.126
12446WAT     H137580   8.576   6.282   0.116
12446WAT     H237581   8.689   6.233   0.223
12447WAT      O37582   5.150   5.194   2.384
12447WAT     H137583   5.197   5.110   2.361
12447WAT     H237584   5.051   5.177   2.389
12448WAT      O37585   2.715   7.188   2.123
12448WAT     H137586   2.737   7.133   2.204
12448WAT     H237587   2.764   7.152   2.044
12449WAT      O37588   4.070   2.384   4.558
12449WAT     H137589   4.035   2.478   4.554
12449WAT     H237590   3.995   2.322   4.580
12450WAT      O37591   4.063   4.583   5.217
12450WAT     H137592   4.057   4.542   5.126
12450WAT     H237593   4.156   4.569   5.253
12451WAT      O37594   0.690   1.146   0.187
12451WAT     H137595   0.670   1.074   0.255
12451WAT     H237596   0.725   1.227   0.234
12452WAT      O37597   8.257   0.081   2.955
12452WAT     H137598   8.180   0.024   2.985
12452WAT     H237599   8.226   0.176   2.945
12453WAT      O37600   7.269   7.555   5.761
12453WAT     H137601   7.349   7.506   5.726
12453WAT     H237602   7.187   7.502   5.741
12454WAT      O37603   0.203   5.775   7.378
12454WAT     H137604   0.274   5.796   7.310
12454WAT     H237605   0.130   5.842   7.373
12455WAT      O37606   2.357   4.867   1.390
12455WAT     H137607   2.308   4.798   1.337
12455WAT     H237608   2.416   4.821   1.457
12456WAT      O37609   2.127   8.670   0.512
12456WAT     H137610   2.028   8.686   0.516
12456WAT     H237611   2.166   8.722   0.436
12457WAT      O37612   3.268   8.541   7.354
12457WAT     H137613   3.346   8.603   7.342
12457WAT     H237614   3.249   8.495   7.267
12458WAT      O37615   9.368   9.312   7.661
12458WAT     H137616   9.367   9.372   7.741
12458WAT     H237617   9.463   9.285   7.641
12459WAT      O37618   1.840   1.894   4.276
12459WAT     H137619   1.845   1.796   4.297
12459WAT     H237620   1.862   1.946   4.359
12460WAT      O37621   1.889   4.078   5.306
12460WAT     H137622   1.988   4.066   5.315
12460WAT     H237623   1.862   4.164   5.348
12461WAT      O37624   4.042   2.223   8.878
12461WAT     H137625   4.109   2.163   8.922
12461WAT     H237626   4.088   2.301   8.836
12462WAT      O37627   9.585   6.513   8.357
12462WAT     H137628   9.578   6.428   8.409
12462WAT     H237629   9.539   6.587   8.407
12463WAT      O37630   6.099   0.260   7.579
12463WAT     H137631   6.144   0.269   7.668
12463WAT     H237632   6.088   0.350   7.538
12464WAT      O37633   8.902   0.095   6.843
12464WAT     H137634   8.847   0.164   6.891
12464WAT     H237635   8.862   0.005   6.856
12465WAT      O37636   0.805   9.631   4.316
12465WAT     H137637   0.749   9.673   4.388
12465WAT     H237638   0.812   9.694   4.239
12466WAT      O37639   7.236   6.442   5.531
12466WAT     H137640   7.225   6.376   5.605
12466WAT     H237641   7.327   6.483   5.535
12467WAT      O37642   0.880   2.207   7.374
12467WAT     H137643   0.917   2.119   7.346
12467WAT     H237644   0.875   2.268   7.295
12468WAT      O37645   0.657   7.631   9.336
12468WAT     H137646   0.704   7.649   9.250
12468WAT     H237647   0.583   7.566   9.321
12469WAT      O37648   9.355   2.408   8.568
12469WAT     H137649   9.372   2.396   8.470
12469WAT     H237650   9.287   2.341   8.598
12470WAT      O37651   1.316   3.536   3.293
12470WAT     H137652   1.352   3.455   3.247
12470WAT     H237653   1.224   3.556   3.260
12471WAT      O37654   5.624   8.895   9.720
12471WAT     H137655   5.618   8.799   9.745
12471WAT     H237656   5.713   8.913   9.678
12472WAT      O37657   9.620   5.999   0.416
12472WAT     H137658   9.692   6.067   0.405
12472WAT     H237659   9.540   6.025   0.362
12473WAT      O37660   4.931   5.540   6.460
12473WAT     H137661   4.931   5.639   6.464
12473WAT     H237662   4.970   5.502   6.544
12474WAT      O37663   6.694   3.286   6.210
12474WAT     H137664   6.783   3.259   6.247
12474WAT     H237665   6.680   3.243   6.121
12475WAT      O37666   1.910   2.575   8.394
12475WAT     H137667   1.843   2.640   8.361
12475WAT     H237668   1.870   2.523   8.470
12476WAT      O37669   7.702   2.397   6.570
12476WAT     H137670   7.730   2.307   6.537
12476WAT     H237671   7.782   2.456   6.578
12477WAT      O37672   1.451   5.207   6.960
12477WAT     H137673   1.472   5.110   6.950
12477WAT     H237674   1.498   5.259   6.890
12478WAT      O37675   3.472   7.433   3.624
12478WAT     H137676   3.467   7.376   3.542
12478WAT     H237677   3.385   7.479   3.638
12479WAT      O37678   8.661   8.840   4.292
12479WAT     H137679   8.601   8.799   4.360
12479WAT     H237680   8.684   8.771   4.223
12480WAT      O37681   7.486   2.407   9.066
12480WAT     H137682   7.497   2.504   9.088
12480WAT     H237683   7.396   2.376   9.098
12481WAT      O37684   5.259   6.988   9.565
12481WAT     H137685   5.299   7.065   9.516
12481WAT     H237686   5.179   7.019   9.617
12482WAT      O37687   7.883   5.903   8.494
12482WAT     H137688   7.968   5.955   8.495
12482WAT     H237689   7.820   5.943   8.428
12483WAT      O37690   2.697   2.213   3.293
12483WAT     H137691   2.699   2.178   3.199
12483WAT     H237692   2.756   2.293   3.301
12484WAT      O37693   0.041   8.234   0.201
12484WAT     H137694  -0.038   8.196   0.154
12484WAT     H237695   0.124   8.216   0.147
12485WAT      O37696   4.725   2.892   3.185
12485WAT     H137697   4.720   2.987   3.217
12485WAT     H237698   4.764   2.890   3.093
12486WAT      O37699   7.475   6.566   0.554
12486WAT     H137700   7.414   6.577   0.476
12486WAT     H237701   7.565   6.606   0.533
12487WAT      O37702   1.237   2.497   8.072
12487WAT     H137703   1.257   2.422   8.009
12487WAT     H237704   1.142   2.488   8.104
12488WAT      O37705   9.842   7.249   8.468
12488WAT     H137706   9.889   7.164   8.443
12488WAT     H237707   9.754   7.252   8.421
12489WAT      O37708   7.533   6.060   6.478
12489WAT     H137709   7.590   6.129   6.433
12489WAT     H237710   7.483   6.102   6.553
12490WAT      O37711   8.186   7.984   4.389
12490WAT     H137712   8.209   7.891   4.417
12490WAT     H237713   8.254   8.017   4.324
12491WAT      O37714   1.605   4.270   6.089
12491WAT     H137715   1.673   4.202   6.062
12491WAT     H237716   1.553   4.235   6.168
12492WAT      O37717   2.240   6.056   7.667
12492WAT     H137718   2.314   6.063   7.734
12492WAT     H237719   2.199   6.146   7.653
12493WAT      O37720   7.552   5.901   8.840
12493WAT     H137721   7.561   5.986   8.893
12493WAT     H237722   7.571   5.823   8.900
12494WAT      O37723   5.036   0.622   0.502
12494WAT     H137724   5.009   0.674   0.420
12494WAT     H237725   4.997   0.530   0.497
12495WAT      O37726   0.343   0.834   5.839
12495WAT     H137727   0.309   0.928   5.828
12495WAT     H237728   0.429   0.836   5.890
12496WAT      O37729   6.128   0.216   8.951
12496WAT     H137730   6.075   0.244   9.031
12496WAT     H237731   6.067   0.200   8.874
12497WAT      O37732   3.391   9.558   0.613
12497WAT     H137733   3.458   9.536   0.684
12497WAT     H237734   3.336   9.637   0.642
12498WAT      O37735   6.259   6.207   4.443
12498WAT     H137736   6.175   6.231   4.492
12498WAT     H237737   6.242   6.212   4.345
12499WAT      O37738   7.944   0.388   2.643
12499WAT     H137739   7.956   0.435   2.731
12499WAT     H237740   8.007   0.311   2.637
12500WAT      O37741   9.509   7.011   1.325
12500WAT     H137742   9.534   6.977   1.235
12500WAT     H237743   9.535   6.944   1.395
12501WAT      O37744   9.061   9.554   1.223
12501WAT     H137745   9.136   9.536   1.159
12501WAT     H237746   8.976   9.517   1.186
12502WAT      O37747   2.929   4.760   8.044
12502WAT     H137748   2.902   4.732   8.136
12502WAT     H237749   2.938   4.680   7.986
12503WAT      O37750   8.518   5.117   1.508
12503WAT     H137751   8.480   5.209   1.507
12503WAT     H237752   8.464   5.058   1.448
12504WAT      O37753   5.784   6.025   5.233
12504WAT     H137754   5.813   5.943   5.184
12504WAT     H237755   5.685   6.035   5.227
12505WAT      O37756   0.864   5.292   5.725
12505WAT     H137757   0.860   5.384   5.764
12505WAT     H237758   0.847   5.224   5.796
12506WAT      O37759   7.301   0.125   3.854
12506WAT     H137760   7.242   0.077   3.789
12506WAT     H237761   7.358   0.058   3.902
12507WAT      O37762   0.031   4.957   2.535
12507WAT     H137763  -0.046   4.898   2.561
12507WAT     H237764   0.093   4.907   2.476
12508WAT      O37765   3.120   4.563   5.471
12508WAT     H137766   3.042   4.603   5.423
12508WAT     H237767   3.182   4.635   5.500
12509WAT      O37768   8.803   0.649   9.242
12509WAT     H137769   8.843   0.563   9.211
12509WAT     H237770   8.748   0.632   9.324
12510WAT      O37771   3.173   7.452   7.725
12510WAT     H137772   3.089   7.490   7.764
12510WAT     H237773   3.244   7.523   7.723
12511WAT      O37774   1.370   6.653   8.990
12511WAT     H137775   1.388   6.556   9.000
12511WAT     H237776   1.372   6.678   8.894
12512WAT      O37777   1.470   3.035   6.635
12512WAT     H137778   1.457   3.128   6.600
12512WAT     H237779   1.431   2.969   6.570
12513WAT      O37780   2.086   6.257   5.434
12513WAT     H137781   2.127   6.243   5.345
12513WAT     H237782   2.150   6.306   5.494
12514WAT      O37783   2.198   9.797   6.329
12514WAT     H137784   2.203   9.699   6.347
12514WAT     H237785   2.146   9.841   6.402
12515WAT      O37786   7.740   0.076   9.357
12515WAT     H137787   7.766   0.141   9.428
12515WAT     H237788   7.672   0.012   9.394
12516WAT      O37789   6.943   5.608   4.769
12516WAT     H137790   6.893   5.693   4.750
12516WAT     H237791   6.931   5.545   4.692
12517WAT      O37792   3.213   8.841   8.616
12517WAT     H137793   3.186   8.899   8.693
12517WAT     H237794   3.137   8.781   8.592
12518WAT      O37795   5.221   1.756   1.457
12518WAT     H137796   5.127   1.740   1.427
12518WAT     H237797   5.257   1.674   1.501
12519WAT      O37798   0.740   8.699   6.208
12519WAT     H137799   0.671   8.771   6.209
12519WAT     H237800   0.792   8.703   6.123
12520WAT      O37801   3.679   9.464   0.136
12520WAT     H137802   3.661   9.462   0.234
12520WAT     H237803   3.701   9.558   0.108
12521WAT      O37804   5.363   6.135   8.451
12521WAT     H137805   5.457   6.134   8.418
12521WAT     H237806   5.336   6.230   8.471
12522WAT      O37807   1.412   1.130   9.498
12522WAT     H137808   1.404   1.230   9.498
12522WAT     H237809   1.417   1.097   9.593
12523WAT      O37810   5.353   5.946   1.898
12523WAT     H137811   5.278   5.915   1.956
12523WAT     H237812   5.424   5.989   1.955
12524WAT      O37813   8.180   0.674   0.622
12524WAT     H137814   8.272   0.713   0.634
12524WAT     H237815   8.178   0.581   0.658
12525WAT      O37816   5.341   9.257   4.053
12525WAT     H137817   5.427   9.219   4.087
12525WAT     H237818   5.279   9.273   4.130
12526WAT      O37819   6.749   4.423   3.656
12526WAT     H137820   6.767   4.327   3.639
12526WAT     H237821   6.790   4.450   3.744
12527WAT      O37822   8.225   1.917   8.523
12527WAT     H137823   8.162   1.863   8.578
12527WAT     H237824   8.201   1.908   8.426
12528WAT      O37825   3.517   7.569   0.999
12528WAT     H137826   3.457   7.492   0.980
12528WAT     H237827   3.586   7.542   1.067
12529WAT      O37828   5.531   0.040   0.764
12529WAT     H137829   5.472  -0.017   0.822
12529WAT     H237830   5.613  -0.012   0.738
12530WAT      O37831   7.569   7.587   8.249
12530WAT     H137832   7.492   7.645   8.274
12530WAT     H237833   7.630   7.637   8.187
12531WAT      O37834   4.204   5.920   1.636
12531WAT     H137835   4.302   5.935   1.650
12531WAT     H237836   4.169   5.857   1.705
12532WAT      O37837   4.648   5.163   3.973
12532WAT     H137838   4.550   5.148   3.987
12532WAT     H237839   4.678   5.239   4.030
12533WAT      O37840   1.785   7.282   5.666
12533WAT     H137841   1.823   7.191   5.651
12533WAT     H237842   1.701   7.292   5.613
12534WAT      O37843   3.671   3.270   2.690
12534WAT     H137844   3.686   3.229   2.600
12534WAT     H237845   3.749   3.250   2.749
12535WAT      O37846   1.053   6.285   5.632
12535WAT     H137847   1.042   6.284   5.533
12535WAT     H237848   0.967   6.311   5.675
12536WAT      O37849   7.949   9.669   0.647
12536WAT     H137850   7.991   9.586   0.683
12536WAT     H237851   8.020   9.735   0.621
12537WAT      O37852   3.131   3.488   9.807
12537WAT     H137853   3.187   3.482   9.890
12537WAT     H237854   3.042   3.447   9.824
12538WAT      O37855   7.573   8.706   0.791
12538WAT     H137856   7.592   8.684   0.887
12538WAT     H237857   7.547   8.803   0.784
12539WAT      O37858   7.071   6.022   4.196
12539WAT     H137859   7.037   5.957   4.265
12539WAT     H237860   7.144   6.077   4.237
12540WAT      O37861   6.770   1.000   9.541
12540WAT     H137862   6.857   0.997   9.491
12540WAT     H237863   6.724   0.912   9.533
12541WAT      O37864   4.462   9.244   5.335
12541WAT     H137865   4.480   9.174   5.265
12541WAT     H237866   4.423   9.200   5.416
12542WAT      O37867   7.651   5.151   5.518
12542WAT     H137868   7.650   5.171   5.616
12542WAT     H237869   7.698   5.225   5.469
12543WAT      O37870   4.211   3.714   0.450
12543WAT     H137871   4.184   3.677   0.539
12543WAT     H237872   4.129   3.734   0.396
12544WAT      O37873   4.134   2.134   0.857
12544WAT     H137874   4.221   2.183   0.866
12544WAT     H237875   4.125   2.070   0.933
12545WAT      O37876   5.736   7.282   3.777
12545WAT     H137877   5.649   7.327   3.756
12545WAT     H237878   5.724   7.220   3.853
12546WAT      O37879   7.896   1.654   8.288
12546WAT     H137880   7.847   1.626   8.370
12546WAT     H237881   7.862   1.743   8.258
12547WAT      O37882   8.229   7.550   7.056
12547WAT     H137883   8.223   7.534   6.958
12547WAT     H237884   8.169   7.627   7.081
12548WAT      O37885   2.860   7.658   0.828
12548WAT     H137886   2.883   7.712   0.747
12548WAT     H237887   2.825   7.718   0.899
12549WAT      O37888   9.284   9.461   7.428
12549WAT     H137889   9.291   9.411   7.514
12549WAT     H237890   9.316   9.555   7.440
12550WAT      O37891   3.927   8.531   9.768
12550WAT     H137892   3.905   8.615   9.719
12550WAT     H237893   3.987   8.474   9.712
12551WAT      O37894   0.215   1.512   0.300
12551WAT     H137895   0.219   1.584   0.370
12551WAT     H237896   0.283   1.442   0.322
12552WAT      O37897   5.529   2.631   8.065
12552WAT     H137898   5.586   2.684   8.127
12552WAT     H237899   5.437   2.670   8.063
12553WAT      O37900   6.680   7.749   0.618
12553WAT     H137901   6.648   7.670   0.566
12553WAT     H237902   6.605   7.816   0.626
12554WAT      O37903   8.242   1.072   1.076
12554WAT     H137904   8.213   1.006   1.006
12554WAT     H237905   8.166   1.088   1.139
12555WAT      O37906   3.031   5.923   8.642
12555WAT     H137907   3.097   5.879   8.580
12555WAT     H237908   3.044   6.022   8.640
12556WAT      O37909   4.847   3.950   4.951
12556WAT     H137910   4.841   3.869   5.009
12556WAT     H237911   4.798   3.933   4.865
12557WAT      O37912   5.927   3.344   7.343
12557WAT     H137913   6.026   3.362   7.343
12557WAT     H237914   5.906   3.272   7.409
12558WAT      O37915   7.663   6.104   3.988
12558WAT     H137916   7.629   6.189   4.028
12558WAT     H237917   7.643   6.028   4.050
12559WAT      O37918   7.386   5.335   9.600
12559WAT     H137919   7.396   5.329   9.699
12559WAT     H237920   7.363   5.429   9.574
12560WAT      O37921   7.010   4.441   3.441
12560WAT     H137922   6.994   4.393   3.355
12560WAT     H237923   6.932   4.428   3.502
12561WAT      O37924   3.487   2.476   6.424
12561WAT     H137925   3.495   2.458   6.326
12561WAT     H237926   3.538   2.558   6.447
12562WAT      O37927   3.017   0.925   2.544
12562WAT     H137928   3.039   0.875   2.628
12562WAT     H237929   3.093   0.987   2.521
12563WAT      O37930   5.861   0.383   4.375
12563WAT     H137931   5.811   0.296   4.370
12563WAT     H237932   5.835   0.440   4.297
12564WAT      O37933   9.600   3.077   2.605
12564WAT     H137934   9.666   3.135   2.653
12564WAT     H237935   9.643   3.039   2.523
12565WAT      O37936   7.061   8.634   5.876
12565WAT     H137937   7.077   8.719   5.826
12565WAT     H237938   7.026   8.564   5.813
12566WAT      O37939   3.324   0.129   9.692
12566WAT     H137940   3.260   0.076   9.747
12566WAT     H237941   3.274   0.199   9.640
12567WAT      O37942   2.308   0.472   4.252
12567WAT     H137943   2.356   0.508   4.332
12567WAT     H237944   2.358   0.498   4.169
12568WAT      O37945   9.616   5.168   5.213
12568WAT     H137946   9.690   5.221   5.171
12568WAT     H237947   9.536   5.227   5.227
12569WAT      O37948   4.667   4.733   3.044
12569WAT     H137949   4.689   4.636   3.033
12569WAT     H237950   4.675   4.758   3.141
12570WAT      O37951   2.707   5.984   8.477
12570WAT     H137952   2.802   6.009   8.456
12570WAT     H237953   2.645   6.038   8.421
12571WAT      O37954   7.356   5.672   5.712
12571WAT     H137955   7.287   5.604   5.688
12571WAT     H237956   7.329   5.717   5.798
12572WAT      O37957   4.400   2.249   7.153
12572WAT     H137958   4.460   2.316   7.109
12572WAT     H237959   4.337   2.297   7.215
12573WAT      O37960   9.225   9.034   2.210
12573WAT     H137961   9.283   9.104   2.252
12573WAT     H237962   9.281   8.955   2.184
12574WAT      O37963   7.374   9.526   3.424
12574WAT     H137964   7.292   9.520   3.367
12574WAT     H237965   7.433   9.447   3.406
12575WAT      O37966   0.187   4.997   6.473
12575WAT     H137967   0.267   4.938   6.486
12575WAT     H237968   0.204   5.061   6.398
12576WAT      O37969   6.617   7.522   8.731
12576WAT     H137970   6.600   7.495   8.636
12576WAT     H237971   6.569   7.460   8.793
12577WAT      O37972   6.171   5.809   4.625
12577WAT     H137973   6.179   5.718   4.585
12577WAT     H237974   6.210   5.877   4.563
12578WAT      O37975   2.252   1.546   9.288
12578WAT     H137976   2.310   1.617   9.327
12578WAT     H237977   2.167   1.539   9.341
12579WAT      O37978   4.051   2.163   1.445
12579WAT     H137979   4.145   2.154   1.410
12579WAT     H237980   4.015   2.253   1.418
12580WAT      O37981   5.171   6.427   7.900
12580WAT     H137982   5.149   6.496   7.969
12580WAT     H237983   5.112   6.439   7.821
12581WAT      O37984   2.972   3.519   5.941
12581WAT     H137985   2.965   3.543   5.844
12581WAT     H237986   3.062   3.478   5.959
12582WAT      O37987   2.573   4.482   8.466
12582WAT     H137988   2.621   4.551   8.520
12582WAT     H237989   2.601   4.391   8.495
12583WAT      O37990   2.278   3.592   5.899
12583WAT     H137991   2.282   3.650   5.818
12583WAT     H237992   2.213   3.517   5.883
12584WAT      O37993   7.199   5.601   3.641
12584WAT     H137994   7.153   5.639   3.560
12584WAT     H237995   7.296   5.622   3.637
12585WAT      O37996   3.015   3.159   6.892
12585WAT     H137997   3.009   3.064   6.923
12585WAT     H237998   3.104   3.196   6.917
12586WAT      O37999   0.153   9.286   2.934
12586WAT     H138000   0.235   9.231   2.918
12586WAT     H238001   0.090   9.236   2.993
12587WAT      O38002   5.739   0.479   8.327
12587WAT     H138003   5.807   0.406   8.319
12587WAT     H238004   5.778   0.565   8.293
12588WAT      O38005   3.089   3.071   9.280
12588WAT     H138006   3.083   3.071   9.380
12588WAT     H238007   3.147   3.147   9.251
12589WAT      O38008   0.488   6.999   2.639
12589WAT     H138009   0.475   6.911   2.684
12589WAT     H238010   0.576   7.037   2.666
12590WAT      O38011   5.533   6.056   4.442
12590WAT     H138012   5.458   6.121   4.431
12590WAT     H238013   5.498   5.971   4.480
12591WAT      O38014   2.102   6.472   9.834
12591WAT     H138015   2.067   6.382   9.856
12591WAT     H238016   2.034   6.523   9.781
12592WAT      O38017   1.000   1.431   0.185
12592WAT     H138018   1.057   1.382   0.251
12592WAT     H238019   1.035   1.523   0.173
12593WAT      O38020   4.397   2.715   7.930
12593WAT     H138021   4.341   2.751   8.004
12593WAT     H238022   4.342   2.654   7.873
12594WAT      O38023   8.024   5.562   5.036
12594WAT     H138024   8.007   5.481   4.979
12594WAT     H238025   8.058   5.636   4.978
12595WAT      O38026   9.539   8.760   0.337
12595WAT     H138027   9.582   8.846   0.310
12595WAT     H238028   9.440   8.768   0.326
12596WAT      O38029   3.992   9.380   0.940
12596WAT     H138030   4.056   9.320   0.892
12596WAT     H238031   3.899   9.365   0.907
12597WAT      O38032   4.897   3.014   0.757
12597WAT     H138033   4.885   3.022   0.856
12597WAT     H238034   4.814   2.977   0.716
12598WAT      O38035   4.021   3.304   7.365
12598WAT     H138036   4.103   3.362   7.368
12598WAT     H238037   4.000   3.280   7.270
12599WAT      O38038   7.110   1.420   4.528
12599WAT     H138039   7.072   1.334   4.492
12599WAT     H238040   7.075   1.435   4.620
12600WAT      O38041   2.788   4.060   9.761
12600WAT     H138042   2.693   4.088   9.747
12600WAT     H238043   2.810   4.067   9.858
12601WAT      O38044   3.206   5.999   0.856
12601WAT     H138045   3.240   6.077   0.909
12601WAT     H238046   3.222   6.016   0.759
12602WAT      O38047   3.252   1.626   4.204
12602WAT     H138048   3.297   1.705   4.246
12602WAT     H238049   3.185   1.588   4.267
12603WAT      O38050   1.428   6.927   1.200
12603WAT     H138051   1.389   6.839   1.227
12603WAT     H238052   1.392   6.953   1.110
12604WAT      O38053   5.221   0.769   5.306
12604WAT     H138054   5.123   0.789   5.294
12604WAT     H238055   5.237   0.742   5.401
12605WAT      O38056   8.504   2.094   4.058
12605WAT     H138057   8.435   2.058   4.121
12605WAT     H238058   8.516   2.029   3.982
12606WAT      O38059   5.786   3.343   5.371
12606WAT     H138060   5.865   3.347   5.310
12606WAT     H238061   5.702   3.336   5.316
12607WAT      O38062   4.882   3.733   9.132
12607WAT     H138063   4.788   3.735   9.099
12607WAT     H238064   4.884   3.757   9.229
12608WAT      O38065   6.455   3.883   8.194
12608WAT     H138066   6.460   3.982   8.205
12608WAT     H238067   6.450   3.840   8.284
12609WAT      O38068   4.314   6.741   0.957
12609WAT     H138069   4.400   6.701   0.988
12609WAT     H238070   4.301   6.830   1.000
12610WAT      O38071   6.564   5.382   3.439
12610WAT     H138072   6.559   5.416   3.533
12610WAT     H238073   6.625   5.440   3.385
12611WAT      O38074   9.836   2.574   3.801
12611WAT     H138075   9.916   2.558   3.743
12611WAT     H238076   9.760   2.517   3.770
12612WAT      O38077   2.847   7.780   1.546
12612WAT     H138078   2.885   7.858   1.495
12612WAT     H238079   2.748   7.784   1.544
12613WAT      O38080   7.471   8.207   5.103
12613WAT     H138081   7.458   8.109   5.121
12613WAT     H238082   7.462   8.258   5.189
12614WAT      O38083   9.600   0.405   0.657
12614WAT     H138084   9.680   0.398   0.716
12614WAT     H238085   9.525   0.352   0.697
12615WAT      O38086   0.195   3.789   8.514
12615WAT     H138087   0.229   3.796   8.421
12615WAT     H238088   0.096   3.774   8.513
12616WAT      O38089   6.524   6.388   6.767
12616WAT     H138090   6.542   6.289   6.768
12616WAT     H238091   6.569   6.429   6.688
12617WAT      O38092   4.455   0.270   5.038
12617WAT     H138093   4.473   0.181   4.997
12617WAT     H238094   4.376   0.264   5.098
12618WAT      O38095   8.222   7.386   8.851
12618WAT     H138096   8.233   7.485   8.848
12618WAT     H238097   8.256   7.351   8.939
12619WAT      O38098   3.485   2.202   6.774
12619WAT     H138099   3.543   2.283   6.761
12619WAT     H238100   3.392   2.231   6.798
12620WAT      O38101   1.605   4.582   8.999
12620WAT     H138102   1.532   4.536   8.948
12620WAT     H238103   1.693   4.547   8.967
12621WAT      O38104   8.196   3.818   7.131
12621WAT     H138105   8.223   3.914   7.139
12621WAT     H238106   8.115   3.802   7.187
12622WAT      O38107   0.609   3.144   1.958
12622WAT     H138108   0.565   3.196   1.885
12622WAT     H238109   0.663   3.070   1.917
12623WAT      O38110   7.201   6.514   6.374
12623WAT     H138111   7.289   6.501   6.329
12623WAT     H238112   7.153   6.591   6.333
12624WAT      O38113   2.778   5.652   2.474
12624WAT     H138114   2.802   5.739   2.433
12624WAT     H238115   2.727   5.596   2.408
12625WAT      O38116   8.907   6.420   0.788
12625WAT     H138117   8.910   6.320   0.783
12625WAT     H238118   8.822   6.453   0.745
12626WAT      O38119   1.355   2.142   2.250
12626WAT     H138120   1.430   2.202   2.278
12626WAT     H238121   1.339   2.073   2.320
12627WAT      O38122   4.170   2.424   9.209
12627WAT     H138123   4.159   2.483   9.289
12627WAT     H238124   4.081   2.386   9.183
12628WAT      O38125   1.226   5.000   8.411
12628WAT     H138126   1.152   4.939   8.439
12628WAT     H238127   1.308   4.946   8.391
12629WAT      O38128   4.765   8.642   0.609
12629WAT     H138129   4.848   8.689   0.637
12629WAT     H238130   4.697   8.649   0.682
12630WAT      O38131   7.383   1.025   4.794
12630WAT     H138132   7.470   1.000   4.752
12630WAT     H238133   7.365   0.965   4.872
12631WAT      O38134   9.602   0.769   6.546
12631WAT     H138135   9.609   0.790   6.449
12631WAT     H238136   9.528   0.823   6.587
12632WAT      O38137   0.509   1.238   3.306
12632WAT     H138138   0.583   1.254   3.241
12632WAT     H238139   0.422   1.231   3.256
12633WAT      O38140   7.114   1.026   4.596
12633WAT     H138141   7.085   0.942   4.551
12633WAT     H238142   7.202   1.055   4.558
12634WAT      O38143   1.857   9.331   0.309
12634WAT     H138144   1.889   9.237   0.297
12634WAT     H238145   1.775   9.346   0.254
12635WAT      O38146   2.746   9.800   1.610
12635WAT     H138147   2.668   9.743   1.634
12635WAT     H238148   2.773   9.782   1.515
12636WAT      O38149   9.189   3.310   7.537
12636WAT     H138150   9.106   3.356   7.567
12636WAT     H238151   9.269   3.354   7.577
12637WAT      O38152   4.453   5.711   9.585
12637WAT     H138153   4.362   5.695   9.546
12637WAT     H238154   4.520   5.654   9.537
12638WAT      O38155   7.829   8.581   4.205
12638WAT     H138156   7.755   8.520   4.232
12638WAT     H238157   7.915   8.530   4.204
12639WAT      O38158   6.550   1.820   2.905
12639WAT     H138159   6.488   1.785   2.975
12639WAT     H238160   6.644   1.793   2.926
12640WAT      O38161   4.052   9.575   1.268
12640WAT     H138162   4.065   9.521   1.185
12640WAT     H238163   4.065   9.517   1.348
12641WAT      O38164   9.671   7.920   0.890
12641WAT     H138165   9.574   7.908   0.868
12641WAT     H238166   9.680   7.958   0.983
12642WAT      O38167   4.142   5.765   6.335
12642WAT     H138168   4.236   5.737   6.314
12642WAT     H238169   4.078   5.697   6.300
12643WAT      O38170   8.696   8.094   4.977
12643WAT     H138171   8.657   8.135   4.895
12643WAT     H238172   8.790   8.066   4.960
12644WAT      O38173   7.299   5.135   8.739
12644WAT     H138174   7.199   5.134   8.730
12644WAT     H238175   7.324   5.188   8.820
12645WAT      O38176   6.762   8.205   0.420
12645WAT     H138177   6.678   8.246   0.456
12645WAT     H238178   6.837   8.271   0.430
12646WAT      O38179   8.682   6.021   7.471
12646WAT     H138180   8.641   5.955   7.533
12646WAT     H238181   8.672   6.113   7.509
12647WAT      O38182   8.203   9.535   2.115
12647WAT     H138183   8.239   9.594   2.043
12647WAT     H238184   8.183   9.589   2.197
12648WAT      O38185   9.765   2.055   9.048
12648WAT     H138186   9.847   2.053   9.106
12648WAT     H238187   9.737   2.149   9.033
12649WAT      O38188   9.851   3.027   0.280
12649WAT     H138189   9.782   2.974   0.330
12649WAT     H238190   9.806   3.087   0.214
12650WAT      O38191   1.072   4.921   2.677
12650WAT     H138192   1.002   4.982   2.638
12650WAT     H238193   1.108   4.961   2.761
12651WAT      O38194   4.202   4.672   9.214
12651WAT     H138195   4.228   4.652   9.120
12651WAT     H238196   4.160   4.591   9.256
12652WAT      O38197   6.574   9.003   7.138
12652WAT     H138198   6.649   8.966   7.192
12652WAT     H238199   6.588   9.101   7.124
12653WAT      O38200   0.675   8.956   2.817
12653WAT     H138201   0.634   9.039   2.779
12653WAT     H238202   0.686   8.966   2.916
12654WAT      O38203   4.283   8.031   1.552
12654WAT     H138204   4.210   7.976   1.593
12654WAT     H238205   4.246   8.117   1.518
12655WAT      O38206   4.734   0.892   2.106
12655WAT     H138207   4.715   0.954   2.182
12655WAT     H238208   4.832   0.892   2.086
12656WAT      O38209   9.066   7.100   7.016
12656WAT     H138210   8.978   7.121   7.060
12656WAT     H238211   9.106   7.020   7.060
12657WAT      O38212   8.151   4.262   9.182
12657WAT     H138213   8.205   4.318   9.246
12657WAT     H238214   8.055   4.263   9.210
12658WAT      O38215   8.508   0.943   8.672
12658WAT     H138216   8.431   0.880   8.660
12658WAT     H238217   8.579   0.922   8.606
12659WAT      O38218   5.360   3.601   3.465
12659WAT     H138219   5.317   3.606   3.555
12659WAT     H238220   5.396   3.509   3.449
12660WAT      O38221   2.356   5.784   7.658
12660WAT     H138222   2.330   5.878   7.634
12660WAT     H238223   2.409   5.785   7.743
12661WAT      O38224   9.232   7.177   4.674
12661WAT     H138225   9.324   7.180   4.636
12661WAT     H238226   9.238   7.163   4.773
12662WAT      O38227   8.859   6.034   7.754
12662WAT     H138228   8.910   6.000   7.675
12662WAT     H238229   8.777   5.977   7.768
12663WAT      O38230   0.218   8.333   5.898
12663WAT     H138231   0.180   8.291   5.815
12663WAT     H238232   0.157   8.406   5.930
12664WAT      O38233   1.587   2.149   5.817
12664WAT     H138234   1.566   2.210   5.740
12664WAT     H238235   1.513   2.152   5.884
12665WAT      O38236   1.552   4.401   1.968
12665WAT     H138237   1.514   4.314   1.937
12665WAT     H238238   1.624   4.384   2.036
12666WAT      O38239   8.626   5.878   6.287
12666WAT     H138240   8.602   5.789   6.326
12666WAT     H238241   8.620   5.874   6.188
12667WAT      O38242   9.769   8.088   7.388
12667WAT     H138243   9.704   8.020   7.353
12667WAT     H238244   9.784   8.158   7.319
12668WAT      O38245   1.413   3.612   6.567
12668WAT     H138246   1.416   3.599   6.468
12668WAT     H238247   1.467   3.692   6.592
12669WAT      O38248   2.908   9.501   7.964
12669WAT     H138249   2.927   9.459   7.876
12669WAT     H238250   2.875   9.432   8.028
12670WAT      O38251   5.484   1.214   8.016
12670WAT     H138252   5.528   1.303   8.031
12670WAT     H238253   5.386   1.221   8.038
12671WAT      O38254   2.349   9.303   9.224
12671WAT     H138255   2.368   9.399   9.242
12671WAT     H238256   2.338   9.254   9.311
12672WAT      O38257   1.233   2.415   5.550
12672WAT     H138258   1.249   2.336   5.490
12672WAT     H238259   1.201   2.383   5.639
12673WAT      O38260   5.639   1.581   5.876
12673WAT     H138261   5.638   1.534   5.964
12673WAT     H238262   5.547   1.586   5.839
12674WAT      O38263   3.616   6.524   4.924
12674WAT     H138264   3.683   6.458   4.890
12674WAT     H238265   3.544   6.476   4.974
12675WAT      O38266   3.000   6.299   3.880
12675WAT     H138267   2.922   6.260   3.928
12675WAT     H238268   3.079   6.300   3.940
12676WAT      O38269   9.187   2.198   8.649
12676WAT     H138270   9.203   2.101   8.633
12676WAT     H238271   9.130   2.209   8.731
12677WAT      O38272   1.885   2.115   7.193
12677WAT     H138273   1.825   2.179   7.146
12677WAT     H238274   1.902   2.036   7.135
12678WAT      O38275   2.096   3.099   9.274
12678WAT     H138276   2.049   3.172   9.324
12678WAT     H238277   2.106   3.019   9.333
12679WAT      O38278   6.132   8.236   5.175
12679WAT     H138279   6.225   8.231   5.139
12679WAT     H238280   6.067   8.213   5.103
12680WAT      O38281   2.896   0.275   4.596
12680WAT     H138282   2.890   0.197   4.534
12680WAT     H238283   2.948   0.249   4.678
12681WAT      O38284   4.148   3.321   2.406
12681WAT     H138285   4.226   3.259   2.415
12681WAT     H238286   4.090   3.291   2.331
12682WAT      O38287   0.230   5.984   6.401
12682WAT     H138288   0.242   5.891   6.435
12682WAT     H238289   0.318   6.017   6.366
12683WAT      O38290   9.660   0.206   7.753
12683WAT     H138291   9.702   0.248   7.673
12683WAT     H238292   9.567   0.240   7.764
12684WAT      O38293   6.060   5.683   2.191
12684WAT     H138294   5.976   5.706   2.240
12684WAT     H238295   6.066   5.736   2.107
12685WAT      O38296   2.613   5.391   2.690
12685WAT     H138297   2.561   5.393   2.604
12685WAT     H238298   2.711   5.387   2.669
12686WAT      O38299   7.804   5.123   6.052
12686WAT     H138300   7.857   5.055   6.104
12686WAT     H238301   7.847   5.139   5.963
12687WAT      O38302   4.784   0.526   6.514
12687WAT     H138303   4.879   0.525   6.546
12687WAT     H238304   4.776   0.469   6.432
12688WAT      O38305   2.729   3.598   1.501
12688WAT     H138306   2.756   3.662   1.429
12688WAT     H238307   2.810   3.551   1.536
12689WAT      O38308   8.498   9.328   1.830
12689WAT     H138309   8.450   9.263   1.889
12689WAT     H238310   8.461   9.323   1.738
12690WAT      O38311   6.382   5.706   0.295
12690WAT     H138312   6.427   5.724   0.208
12690WAT     H238313   6.413   5.771   0.364
12691WAT      O38314   1.024   5.254   2.709
12691WAT     H138315   1.080   5.204   2.776
12691WAT     H238316   0.939   5.283   2.752
12692WAT      O38317   0.229   6.560   7.761
12692WAT     H138318   0.143   6.585   7.805
12692WAT     H238319   0.214   6.483   7.698
12693WAT      O38320   2.927   0.532   3.910
12693WAT     H138321   2.982   0.615   3.922
12693WAT     H238322   2.944   0.470   3.986
12694WAT      O38323   2.135   7.567   0.250
12694WAT     H138324   2.145   7.542   0.153
12694WAT     H238325   2.218   7.542   0.300
12695WAT      O38326   1.634   1.158   3.832
12695WAT     H138327   1.554   1.122   3.783
12695WAT     H238328   1.641   1.114   3.921
12696WAT      O38329   7.109   9.307   1.555
12696WAT     H138330   7.059   9.384   1.515
12696WAT     H238331   7.071   9.286   1.645
12697WAT      O38332   4.484   9.283   0.557
12697WAT     H138333   4.515   9.191   0.535
12697WAT     H238334   4.478   9.293   0.657
12698WAT      O38335   8.501   6.373   1.304
12698WAT     H138336   8.524   6.463   1.341
12698WAT     H238337   8.481   6.310   1.379
12699WAT      O38338   4.015   1.044   2.400
12699WAT     H138339   4.056   0.991   2.325
12699WAT     H238340   3.916   1.037   2.396
12700WAT      O38341   9.309   5.811   9.455
12700WAT     H138342   9.277   5.752   9.380
12700WAT     H238343   9.234   5.870   9.485
12701WAT      O38344   1.575   3.937   8.429
12701WAT     H138345   1.589   3.913   8.333
12701WAT     H238346   1.664   3.941   8.475
12702WAT      O38347   3.088   6.650   6.837
12702WAT     H138348   3.056   6.719   6.772
12702WAT     H238349   3.169   6.604   6.800
12703WAT      O38350   7.657   2.492   7.821
12703WAT     H138351   7.612   2.487   7.910
12703WAT     H238352   7.756   2.496   7.834
12704WAT      O38353   4.957   3.836   8.779
12704WAT     H138354   4.880   3.888   8.815
12704WAT     H238355   5.030   3.833   8.847
12705WAT      O38356   4.669   5.408   1.247
12705WAT     H138357   4.620   5.374   1.167
12705WAT     H238358   4.766   5.417   1.225
12706WAT      O38359   2.811   4.414   4.550
12706WAT     H138360   2.740   4.344   4.555
12706WAT     H238361   2.793   4.474   4.472
12707WAT      O38362   4.227   3.350   7.620
12707WAT     H138363   4.305   3.296   7.651
12707WAT     H238364   4.231   3.359   7.520
12708WAT      O38365   9.224   2.150   2.297
12708WAT     H138366   9.139   2.201   2.306
12708WAT     H238367   9.215   2.084   2.222
12709WAT      O38368   3.172   0.004   8.207
12709WAT     H138369   3.148   0.090   8.162
12709WAT     H238370   3.140   0.005   8.302
12710WAT      O38371   6.915   5.858   1.348
12710WAT     H138372   6.877   5.769   1.323
12710WAT     H238373   7.015   5.855   1.337
12711WAT      O38374   0.687   3.345   0.276
12711WAT     H138375   0.650   3.267   0.226
12711WAT     H238376   0.658   3.430   0.231
12712WAT      O38377   5.269   8.605   5.446
12712WAT     H138378   5.259   8.671   5.520
12712WAT     H238379   5.361   8.612   5.407
12713WAT      O38380   4.491   2.693   6.334
12713WAT     H138381   4.454   2.730   6.249
12713WAT     H238382   4.584   2.729   6.349
12714WAT      O38383   7.750   3.885   9.077
12714WAT     H138384   7.703   3.803   9.109
12714WAT     H238385   7.736   3.959   9.143
12715WAT      O38386   1.223   4.495   0.926
12715WAT     H138387   1.293   4.440   0.879
12715WAT     H238388   1.241   4.592   0.909
12716WAT      O38389   5.441   4.002   2.973
12716WAT     H138390   5.355   3.971   3.015
12716WAT     H238391   5.432   3.998   2.873
12717WAT      O38392   8.643   9.363   4.891
12717WAT     H138393   8.655   9.451   4.846
12717WAT     H238394   8.730   9.314   4.892
12718WAT      O38395   2.232   3.487   1.547
12718WAT     H138396   2.287   3.409   1.579
12718WAT     H238397   2.289   3.547   1.490
12719WAT      O38398   7.091   9.728   8.785
12719WAT     H138399   7.142   9.809   8.812
12719WAT     H238400   7.153   9.650   8.779
12720WAT      O38401   2.051   4.998   3.121
12720WAT     H138402   2.098   5.062   3.182
12720WAT     H238403   2.047   5.037   3.029
12721WAT      O38404   5.339   0.434   1.020
12721WAT     H138405   5.382   0.511   1.068
12721WAT     H238406   5.399   0.403   0.947
12722WAT      O38407   5.387   9.265   1.008
12722WAT     H138408   5.422   9.192   0.950
12722WAT     H238409   5.290   9.250   1.028
12723WAT      O38410   8.963   6.133   0.526
12723WAT     H138411   9.033   6.203   0.539
12723WAT     H238412   8.939   6.093   0.615
12724WAT      O38413   8.195   9.161   8.759
12724WAT     H138414   8.255   9.215   8.818
12724WAT     H238415   8.104   9.157   8.800
12725WAT      O38416   0.733   0.782   2.390
12725WAT     H138417   0.728   0.857   2.456
12725WAT     H238418   0.778   0.814   2.306
12726WAT      O38419   7.397   6.016   4.614
12726WAT     H138420   7.445   5.965   4.685
12726WAT     H238421   7.300   5.989   4.614
12727WAT      O38422   6.721   0.268   8.091
12727WAT     H138423   6.729   0.224   8.002
12727WAT     H238424   6.667   0.351   8.082
12728WAT      O38425   4.244   8.704   6.764
12728WAT     H138426   4.176   8.650   6.715
12728WAT     H238427   4.201   8.786   6.801
12729WAT      O38428   5.546   1.540   6.555
12729WAT     H138429   5.544   1.518   6.457
12729WAT     H238430   5.553   1.639   6.567
12730WAT      O38431   7.108   1.649   4.027
12730WAT     H138432   7.029   1.695   3.987
12730WAT     H238433   7.096   1.640   4.126
12731WAT      O38434   9.036   9.512   7.359
12731WAT     H138435   9.125   9.473   7.385
12731WAT     H238436   8.963   9.453   7.393
12732WAT      O38437   2.966   5.884   1.401
12732WAT     H138438   3.020   5.816   1.352
12732WAT     H238439   3.024   5.931   1.467
12733WAT      O38440   9.375   7.610   5.084
12733WAT     H138441   9.410   7.519   5.106
12733WAT     H238442   9.289   7.602   5.034
12734WAT      O38443   4.914   0.980   4.505
12734WAT     H138444   4.991   0.928   4.469
12734WAT     H238445   4.938   1.018   4.594
12735WAT      O38446   9.300   9.122   7.504
12735WAT     H138447   9.329   9.158   7.415
12735WAT     H238448   9.310   9.193   7.574
12736WAT      O38449   8.715   2.263   8.500
12736WAT     H138450   8.776   2.250   8.421
12736WAT     H238451   8.620   2.270   8.468
12737WAT      O38452   8.060   4.910   2.852
12737WAT     H138453   8.056   4.847   2.774
12737WAT     H238454   8.153   4.947   2.860
12738WAT      O38455   8.460   6.992   4.375
12738WAT     H138456   8.538   6.952   4.326
12738WAT     H238457   8.430   7.075   4.327
12739WAT      O38458   1.692   8.386   5.796
12739WAT     H138459   1.773   8.346   5.753
12739WAT     H238460   1.614   8.325   5.785
12740WAT      O38461   4.421   9.218   1.372
12740WAT     H138462   4.473   9.192   1.291
12740WAT     H238463   4.363   9.142   1.399
12741WAT      O38464   4.544   8.321   0.981
12741WAT     H138465   4.599   8.258   0.928
12741WAT     H238466   4.450   8.287   0.987
12742WAT      O38467   9.736   0.284   4.532
12742WAT     H138468   9.741   0.359   4.466
12742WAT     H238469   9.778   0.311   4.618
12743WAT      O38470   0.959   8.625   0.400
12743WAT     H138471   0.941   8.650   0.495
12743WAT     H238472   1.045   8.668   0.370
12744WAT      O38473   0.712   8.990   4.042
12744WAT     H138474   0.789   9.024   3.988
12744WAT     H238475   0.686   9.059   4.110
12745WAT      O38476   1.298   9.007   1.039
12745WAT     H138477   1.385   8.984   0.996
12745WAT     H238478   1.312   9.028   1.136
12746WAT      O38479   3.068   1.986   6.274
12746WAT     H138480   3.097   1.890   6.271
12746WAT     H238481   2.981   1.996   6.226
12747WAT      O38482   7.921   4.714   4.535
12747WAT     H138483   7.882   4.664   4.612
12747WAT     H238484   8.018   4.690   4.525
12748WAT      O38485   9.383   6.998   7.313
12748WAT     H138486   9.404   7.058   7.237
12748WAT     H238487   9.444   6.919   7.311
12749WAT      O38488   4.947   6.078   0.619
12749WAT     H138489   5.045   6.097   0.621
12749WAT     H238490   4.932   5.980   0.633
12750WAT      O38491   8.929   9.236   5.932
12750WAT     H138492   9.020   9.271   5.914
12750WAT     H238493   8.934   9.137   5.951
12751WAT      O38494   3.682   5.960   1.038
12751WAT     H138495   3.722   5.876   1.074
12751WAT     H238496   3.587   5.944   1.013
12752WAT      O38497   9.376   0.149   1.586
12752WAT     H138498   9.456   0.100   1.622
12752WAT     H238499   9.405   0.206   1.508
12753WAT      O38500   2.150   0.503   7.053
12753WAT     H138501   2.198   0.466   6.974
12753WAT     H238502   2.195   0.474   7.137
12754WAT      O38503   9.696   1.370   4.750
12754WAT     H138504   9.606   1.334   4.730
12754WAT     H238505   9.706   1.383   4.849
12755WAT      O38506   4.499   6.034   1.792
12755WAT     H138507   4.549   5.965   1.739
12755WAT     H238508   4.439   5.988   1.857
12756WAT      O38509   0.536   0.732   2.070
12756WAT     H138510   0.628   0.703   2.096
12756WAT     H238511   0.502   0.673   1.997
12757WAT      O38512   3.879   6.685   7.532
12757WAT     H138513   3.804   6.701   7.596
12757WAT     H238514   3.843   6.654   7.444
12758WAT      O38515   5.955   8.658   3.483
12758WAT     H138516   5.862   8.662   3.519
12758WAT     H238517   5.971   8.569   3.441
12759WAT      O38518   7.984   8.255   4.934
12759WAT     H138519   8.044   8.276   5.011
12759WAT     H238520   7.933   8.337   4.908
12760WAT      O38521   5.906   7.365   4.618
12760WAT     H138522   5.929   7.324   4.706
12760WAT     H238523   5.989   7.369   4.561
12761WAT      O38524   0.924   7.275   8.441
12761WAT     H138525   1.008   7.319   8.473
12761WAT     H238526   0.906   7.303   8.346
12762WAT      O38527   9.068   0.507   8.515
12762WAT     H138528   9.069   0.418   8.469
12762WAT     H238529   9.160   0.544   8.518
12763WAT      O38530   0.704   3.942   8.602
12763WAT     H138531   0.701   4.024   8.659
12763WAT     H238532   0.640   3.952   8.526
12764WAT      O38533   2.653   1.470   5.980
12764WAT     H138534   2.649   1.371   5.975
12764WAT     H238535   2.663   1.498   6.076
12765WAT      O38536   7.286   5.025   1.914
12765WAT     H138537   7.229   5.084   1.971
12765WAT     H238538   7.347   4.971   1.972
12766WAT      O38539   1.170   6.584   2.517
12766WAT     H138540   1.150   6.594   2.420
12766WAT     H238541   1.268   6.565   2.529
12767WAT      O38542   6.796   9.681   7.079
12767WAT     H138543   6.748   9.692   6.992
12767WAT     H238544   6.840   9.767   7.104
12768WAT      O38545   1.880   2.416   3.004
12768WAT     H138546   1.942   2.344   3.034
12768WAT     H238547   1.895   2.498   3.060
12769WAT      O38548   1.054   3.592   7.860
12769WAT     H138549   1.149   3.558   7.859
12769WAT     H238550   1.021   3.599   7.766
12770WAT      O38551   0.728   6.839   8.059
12770WAT     H138552   0.695   6.818   7.967
12770WAT     H238553   0.757   6.755   8.104
12771WAT      O38554   6.826   1.994   4.566
12771WAT     H138555   6.854   1.945   4.649
12771WAT     H238556   6.773   1.932   4.508
12772WAT      O38557   6.506   1.371   1.905
12772WAT     H138558   6.586   1.413   1.862
12772WAT     H238559   6.479   1.290   1.852
12773WAT      O38560   7.377   2.123   9.373
12773WAT     H138561   7.346   2.030   9.354
12773WAT     H238562   7.343   2.153   9.462
12774WAT      O38563   0.015   1.462   2.058
12774WAT     H138564   0.080   1.535   2.035
12774WAT     H238565   0.060   1.395   2.117
12775WAT      O38566   3.905   2.700   9.224
12775WAT     H138567   3.992   2.695   9.272
12775WAT     H238568   3.831   2.675   9.286
12776WAT      O38569   0.105   4.546   8.953
12776WAT     H138570   0.121   4.618   8.886
12776WAT     H238571   0.172   4.553   9.027
12777WAT      O38572   5.017   7.494   7.110
12777WAT     H138573   4.973   7.574   7.151
12777WAT     H238574   5.113   7.490   7.137
12778WAT      O38575   9.589   5.026   6.192
12778WAT     H138576   9.538   5.107   6.220
12778WAT     H238577   9.547   4.945   6.233
12779WAT      O38578   8.102   2.597   2.140
12779WAT     H138579   8.037   2.535   2.096
12779WAT     H238580   8.157   2.642   2.070
12780WAT      O38581   2.090   3.135   3.652
12780WAT     H138582   2.060   3.169   3.741
12780WAT     H238583   2.189   3.143   3.644
12781WAT      O38584   7.477   6.764   6.829
12781WAT     H138585   7.396   6.805   6.785
12781WAT     H238586   7.480   6.792   6.925
12782WAT      O38587   6.981   4.922   0.755
12782WAT     H138588   6.948   4.828   0.752
12782WAT     H238589   6.914   4.979   0.803
12783WAT      O38590   9.883   3.565   2.422
12783WAT     H138591   9.818   3.622   2.472
12783WAT     H238592   9.976   3.590   2.449
12784WAT      O38593   1.426   4.339   8.427
12784WAT     H138594   1.452   4.363   8.334
12784WAT     H238595   1.496   4.372   8.491
12785WAT      O38596   1.869   2.649   3.244
12785WAT     H138597   1.837   2.661   3.338
12785WAT     H238598   1.791   2.627   3.185
12786WAT      O38599   9.315   1.006   1.591
12786WAT     H138600   9.338   1.073   1.520
12786WAT     H238601   9.312   0.914   1.551
12787WAT      O38602   8.633   2.472   1.722
12787WAT     H138603   8.616   2.469   1.623
12787WAT     H238604   8.731   2.469   1.739
12788WAT      O38605   5.313   4.433   9.322
12788WAT     H138606   5.215   4.417   9.336
12788WAT     H238607   5.332   4.531   9.328
12789WAT      O38608   6.209   9.765   1.224
12789WAT     H138609   6.306   9.753   1.207
12789WAT     H238610   6.173   9.685   1.273
12790WAT      O38611   9.287   0.683   2.805
12790WAT     H138612   9.208   0.653   2.752
12790WAT     H238613   9.357   0.719   2.743
12791WAT      O38614   1.103   1.971   8.252
12791WAT     H138615   1.044   2.050   8.271
12791WAT     H238616   1.198   1.996   8.270
12792WAT      O38617   2.677   9.332   7.088
12792WAT     H138618   2.770   9.314   7.120
12792WAT     H238619   2.679   9.397   7.012
12793WAT      O38620   4.949   0.049   0.472
12793WAT     H138621   4.995   0.003   0.396
12793WAT     H238622   4.851   0.029   0.468
12794WAT      O38623   9.753   9.691   8.132
12794WAT     H138624   9.711   9.769   8.085
12794WAT     H238625   9.818   9.725   8.200
12795WAT      O38626   0.954   7.903   4.501
12795WAT     H138627   1.043   7.916   4.544
12795WAT     H238628   0.939   7.976   4.433
12796WAT      O38629   4.596   0.159   2.500
12796WAT     H138630   4.507   0.186   2.536
12796WAT     H238631   4.636   0.089   2.560
12797WAT      O38632   9.836   6.565   0.550
12797WAT     H138633   9.926   6.569   0.506
12797WAT     H238634   9.765   6.551   0.480
12798WAT      O38635   4.453   5.064   6.676
12798WAT     H138636   4.490   5.146   6.718
12798WAT     H238637   4.527   5.000   6.655
12799WAT      O38638   3.779   8.328   5.969
12799WAT     H138639   3.846   8.403   5.968
12799WAT     H238640   3.771   8.292   6.062
12800WAT      O38641   0.053   7.568   6.468
12800WAT     H138642   0.033   7.482   6.515
12800WAT     H238643   0.150   7.574   6.447
12801WAT      O38644   2.033   9.840   7.147
12801WAT     H138645   2.002   9.933   7.166
12801WAT     H238646   1.976   9.800   7.075
12802WAT      O38647   6.904   2.011   7.454
12802WAT     H138648   6.935   1.941   7.519
12802WAT     H238649   6.804   2.016   7.457
12803WAT      O38650   3.665   4.630   1.525
12803WAT     H138651   3.657   4.548   1.582
12803WAT     H238652   3.753   4.674   1.541
12804WAT      O38653   8.418   9.743   4.299
12804WAT     H138654   8.420   9.723   4.396
12804WAT     H238655   8.347   9.812   4.281
12805WAT      O38656   4.570   5.395   9.792
12805WAT     H138657   4.568   5.311   9.846
12805WAT     H238658   4.634   5.460   9.833
12806WAT      O38659   0.263   8.883   7.028
12806WAT     H138660   0.232   8.789   7.013
12806WAT     H238661   0.214   8.945   6.967
12807WAT      O38662   8.995   3.102   1.430
12807WAT     H138663   8.912   3.140   1.471
12807WAT     H238664   9.075   3.152   1.464
12808WAT      O38665   1.270   6.615   5.904
12808WAT     H138666   1.228   6.694   5.860
12808WAT     H238667   1.201   6.567   5.959
12809WAT      O38668   5.963   1.056   1.195
12809WAT     H138669   5.979   1.072   1.292
12809WAT     H238670   5.947   0.959   1.179
12810WAT      O38671   3.956   5.922   2.124
12810WAT     H138672   3.858   5.941   2.129
12810WAT     H238673   4.007   5.995   2.168
12811WAT      O38674   2.181   8.809   8.031
12811WAT     H138675   2.187   8.849   8.122
12811WAT     H238676   2.116   8.733   8.032
12812WAT      O38677   7.265   1.913   7.606
12812WAT     H138678   7.301   1.940   7.517
12812WAT     H238679   7.339   1.877   7.663
12813WAT      O38680   4.061   5.995   1.032
12813WAT     H138681   4.159   6.003   1.051
12813WAT     H238682   4.040   6.040   0.945
12814WAT      O38683   8.361   2.871   7.697
12814WAT     H138684   8.330   2.799   7.636
12814WAT     H238685   8.284   2.931   7.720
12815WAT      O38686   5.828   9.666   5.152
12815WAT     H138687   5.847   9.762   5.174
12815WAT     H238688   5.915   9.619   5.133
12816WAT      O38689   8.787   0.123   4.302
12816WAT     H138690   8.749   0.035   4.332
12816WAT     H238691   8.741   0.152   4.218
12817WAT      O38692   3.560   2.389   5.279
12817WAT     H138693   3.640   2.347   5.322
12817WAT     H238694   3.587   2.434   5.194
12818WAT      O38695   6.318   0.294   3.532
12818WAT     H138696   6.275   0.222   3.588
12818WAT     H238697   6.305   0.272   3.435
12819WAT      O38698   1.217   8.960   3.590
12819WAT     H138699   1.211   8.896   3.666
12819WAT     H238700   1.197   9.052   3.622
12820WAT      O38701   7.934   6.893   2.732
12820WAT     H138702   8.033   6.884   2.741
12820WAT     H238703   7.890   6.874   2.819
12821WAT      O38704   0.488   4.510   2.841
12821WAT     H138705   0.399   4.544   2.811
12821WAT     H238706   0.557   4.535   2.773
12822WAT      O38707   3.631   1.295   2.941
12822WAT     H138708   3.603   1.272   3.035
12822WAT     H238709   3.709   1.238   2.915
12823WAT      O38710   6.291   0.275   4.949
12823WAT     H138711   6.378   0.324   4.938
12823WAT     H238712   6.267   0.270   5.046
12824WAT      O38713   8.895   7.701   4.177
12824WAT     H138714   8.931   7.786   4.139
12824WAT     H238715   8.861   7.717   4.270
12825WAT      O38716   7.722   0.396   4.151
12825WAT     H138717   7.700   0.489   4.180
12825WAT     H238718   7.693   0.331   4.221
12826WAT      O38719   2.837   0.925   3.729
12826WAT     H138720   2.796   0.835   3.744
12826WAT     H238721   2.895   0.922   3.648
12827WAT      O38722   1.597   5.788   9.617
12827WAT     H138723   1.531   5.860   9.596
12827WAT     H238724   1.596   5.769   9.715
12828WAT      O38725   5.454   4.667   3.083
12828WAT     H138726   5.469   4.568   3.091
12828WAT     H238727   5.381   4.685   3.017
12829WAT      O38728   1.118   2.295   5.795
12829WAT     H138729   1.106   2.323   5.890
12829WAT     H238730   1.110   2.196   5.787
12830WAT      O38731   0.646   4.072   0.642
12830WAT     H138732   0.635   4.078   0.543
12830WAT     H238733   0.724   4.129   0.670
12831WAT      O38734   1.559   9.833   5.200
12831WAT     H138735   1.561   9.738   5.168
12831WAT     H238736   1.566   9.895   5.121
12832WAT      O38737   1.026   4.987   7.109
12832WAT     H138738   1.108   5.044   7.104
12832WAT     H238739   1.052   4.895   7.139
12833WAT      O38740   1.352   0.738   3.356
12833WAT     H138741   1.287   0.683   3.409
12833WAT     H238742   1.393   0.681   3.286
12834WAT      O38743   0.053   0.205   8.939
12834WAT     H138744   0.044   0.305   8.945
12834WAT     H238745   0.034   0.164   9.028
12835WAT      O38746   4.462   1.321   7.295
12835WAT     H138747   4.447   1.222   7.291
12835WAT     H238748   4.510   1.350   7.212
12836WAT      O38749   6.794   5.567   7.655
12836WAT     H138750   6.758   5.619   7.577
12836WAT     H238751   6.880   5.609   7.685
12837WAT      O38752   1.429   6.641   1.273
12837WAT     H138753   1.409   6.606   1.181
12837WAT     H238754   1.500   6.584   1.315
12838WAT      O38755   4.655   4.820   0.020
12838WAT     H138756   4.648   4.726  -0.013
12838WAT     H238757   4.587   4.836   0.091
12839WAT      O38758   0.503   0.258   1.587
12839WAT     H138759   0.496   0.347   1.542
12839WAT     H238760   0.473   0.267   1.682
12840WAT      O38761   3.852   4.067   5.482
12840WAT     H138762   3.815   4.068   5.575
12840WAT     H238763   3.827   4.152   5.435
12841WAT      O38764   1.657   6.031   2.983
12841WAT     H138765   1.735   6.021   3.044
12841WAT     H238766   1.663   5.965   2.908
12842WAT      O38767   9.239   0.895   4.647
12842WAT     H138768   9.264   0.857   4.558
12842WAT     H238769   9.204   0.823   4.706
12843WAT      O38770   8.164   7.360   4.001
12843WAT     H138771   8.094   7.360   3.929
12843WAT     H238772   8.136   7.297   4.073
12844WAT      O38773   0.139   7.429   3.040
12844WAT     H138774   0.178   7.341   3.068
12844WAT     H238775   0.182   7.503   3.092
12845WAT      O38776   2.867   6.146   0.138
12845WAT     H138777   2.925   6.225   0.157
12845WAT     H238778   2.783   6.153   0.192
12846WAT      O38779   8.426   4.840   9.557
12846WAT     H138780   8.490   4.788   9.613
12846WAT     H238781   8.449   4.829   9.460
12847WAT      O38782   8.892   6.027   9.812
12847WAT     H138783   8.876   6.121   9.784
12847WAT     H238784   8.813   5.994   9.865
12848WAT      O38785   7.388   0.288   2.270
12848WAT     H138786   7.328   0.324   2.341
12848WAT     H238787   7.345   0.208   2.228
12849WAT      O38788   3.632   0.591   5.541
12849WAT     H138789   3.590   0.534   5.470
12849WAT     H238790   3.573   0.669   5.561
12850WAT      O38791   2.728   0.488   9.623
12850WAT     H138792   2.828   0.501   9.621
12850WAT     H238793   2.694   0.506   9.715
12851WAT      O38794   0.842   3.648   5.774
12851WAT     H138795   0.913   3.589   5.736
12851WAT     H238796   0.879   3.740   5.788
12852WAT      O38797   1.209   9.432   6.312
12852WAT     H138798   1.190   9.461   6.406
12852WAT     H238799   1.123   9.426   6.261
12853WAT      O38800   8.511   6.288   7.514
12853WAT     H138801   8.536   6.294   7.417
12853WAT     H238802   8.532   6.375   7.559
12854WAT      O38803   5.908   1.624   0.683
12854WAT     H138804   5.893   1.534   0.724
12854WAT     H238805   5.964   1.615   0.601
12855WAT      O38806   1.215   5.287   4.369
12855WAT     H138807   1.230   5.235   4.453
12855WAT     H238808   1.144   5.242   4.315
12856WAT      O38809   1.461   7.895   0.778
12856WAT     H138810   1.423   7.827   0.841
12856WAT     H238811   1.394   7.969   0.764
12857WAT      O38812   5.344   4.091   7.925
12857WAT     H138813   5.410   4.152   7.968
12857WAT     H238814   5.309   4.027   7.994
12858WAT      O38815   3.944   8.808   1.829
12858WAT     H138816   4.006   8.840   1.900
12858WAT     H238817   3.995   8.754   1.762
12859WAT      O38818   0.552   2.549   4.960
12859WAT     H138819   0.476   2.488   4.982
12859WAT     H238820   0.594   2.583   5.044
12860WAT      O38821   7.560   2.381   7.604
12860WAT     H138822   7.567   2.288   7.639
12860WAT     H238823   7.600   2.445   7.669
12861WAT      O38824   8.400   1.616   0.714
12861WAT     H138825   8.416   1.585   0.807
12861WAT     H238826   8.467   1.686   0.689
12862WAT      O38827   8.049   4.496   5.956
12862WAT     H138828   8.127   4.435   5.941
12862WAT     H238829   7.997   4.505   5.871
12863WAT      O38830   0.356   8.506   4.759
12863WAT     H138831   0.435   8.536   4.813
12863WAT     H238832   0.381   8.424   4.707
12864WAT      O38833   2.006   7.164   4.294
12864WAT     H138834   1.956   7.237   4.342
12864WAT     H238835   2.082   7.134   4.350
12865WAT      O38836   9.759   6.992   8.023
12865WAT     H138837   9.801   6.939   8.096
12865WAT     H238838   9.754   6.937   7.939
12866WAT      O38839   7.632   3.708   1.311
12866WAT     H138840   7.564   3.743   1.246
12866WAT     H238841   7.717   3.760   1.301
12867WAT      O38842   2.907   8.981   4.740
12867WAT     H138843   2.872   9.063   4.696
12867WAT     H238844   3.006   8.992   4.756
12868WAT      O38845   5.943   7.181   0.824
12868WAT     H138846   6.011   7.115   0.793
12868WAT     H238847   5.960   7.270   0.781
12869WAT      O38848   4.472   3.483   4.690
12869WAT     H138849   4.375   3.484   4.716
12869WAT     H238850   4.483   3.518   4.598
12870WAT      O38851   1.465   7.025   3.225
12870WAT     H138852   1.497   6.931   3.235
12870WAT     H238853   1.421   7.054   3.310
12871WAT      O38854   1.721   3.802   5.992
12871WAT     H138855   1.706   3.862   6.071
12871WAT     H238856   1.733   3.859   5.910
12872WAT      O38857   1.371   9.050   9.605
12872WAT     H138858   1.438   8.995   9.555
12872WAT     H238859   1.416   9.130   9.645
12873WAT      O38860   1.389   6.499   6.935
12873WAT     H138861   1.379   6.402   6.954
12873WAT     H238862   1.320   6.551   6.986
12874WAT      O38863   5.828   3.969   5.942
12874WAT     H138864   5.784   3.882   5.964
12874WAT     H238865   5.874   4.004   6.024
12875WAT      O38866   2.133   4.443   9.751
12875WAT     H138867   2.151   4.439   9.653
12875WAT     H238868   2.184   4.519   9.792
12876WAT      O38869   2.736   4.090   3.947
12876WAT     H138870   2.677   4.137   4.013
12876WAT     H238871   2.814   4.148   3.925
12877WAT      O38872   1.516   8.408   9.274
12877WAT     H138873   1.540   8.462   9.193
12877WAT     H238874   1.438   8.450   9.320
12878WAT      O38875   9.268   1.214   2.446
12878WAT     H138876   9.225   1.155   2.377
12878WAT     H238877   9.245   1.309   2.427
12879WAT      O38878   8.286   5.869   6.782
12879WAT     H138879   8.205   5.922   6.760
12879WAT     H238880   8.260   5.777   6.813
12880WAT      O38881   6.383   5.918   7.324
12880WAT     H138882   6.346   5.825   7.329
12880WAT     H238883   6.408   5.949   7.415
12881WAT      O38884   4.479   9.142   4.135
12881WAT     H138885   4.480   9.069   4.204
12881WAT     H238886   4.415   9.118   4.062
12882WAT      O38887   4.346   0.012   2.832
12882WAT     H138888   4.275  -0.025   2.892
12882WAT     H238889   4.435   0.001   2.875
12883WAT      O38890   6.987   5.807   8.203
12883WAT     H138891   7.076   5.763   8.207
12883WAT     H238892   6.999   5.906   8.210
12884WAT      O38893   1.277   6.235   2.605
12884WAT     H138894   1.326   6.180   2.674
12884WAT     H238895   1.214   6.176   2.554
12885WAT      O38896   5.380   1.790   6.861
12885WAT     H138897   5.480   1.799   6.864
12885WAT     H238898   5.354   1.699   6.893
12886WAT      O38899   2.129   5.867   5.908
12886WAT     H138900   2.221   5.900   5.888
12886WAT     H238901   2.062   5.933   5.874
12887WAT      O38902   1.614   0.178   1.822
12887WAT     H138903   1.640   0.161   1.727
12887WAT     H238904   1.603   0.091   1.870
12888WAT      O38905   3.036   4.487   8.837
12888WAT     H138906   3.049   4.521   8.744
12888WAT     H238907   2.981   4.403   8.834
12889WAT      O38908   6.534   0.421   1.722
12889WAT     H138909   6.550   0.444   1.626
12889WAT     H238910   6.436   0.434   1.743
12890WAT      O38911   8.273   3.806   7.417
12890WAT     H138912   8.208   3.881   7.419
12890WAT     H238913   8.317   3.801   7.327
12891WAT      O38914   2.388   3.192   5.833
12891WAT     H138915   2.357   3.170   5.926
12891WAT     H238916   2.487   3.210   5.834
12892WAT      O38917   4.305   8.408   6.548
12892WAT     H138918   4.230   8.473   6.561
12892WAT     H238919   4.325   8.400   6.450
12893WAT      O38920   1.561   7.749   9.055
12893WAT     H138921   1.503   7.797   9.121
12893WAT     H238922   1.511   7.671   9.017
12894WAT      O38923   4.716   2.802   1.011
12894WAT     H138924   4.643   2.814   1.079
12894WAT     H238925   4.691   2.729   0.947
12895WAT      O38926   1.473   2.293   0.665
12895WAT     H138927   1.443   2.314   0.572
12895WAT     H238928   1.556   2.237   0.661
12896WAT      O38929   0.384   5.800   4.143
12896WAT     H138930   0.285   5.785   4.142
12896WAT     H238931   0.429   5.725   4.191
12897WAT      O38932   6.293   0.767   2.041
12897WAT     H138933   6.361   0.707   1.999
12897WAT     H238934   6.206   0.758   1.993
12898WAT      O38935   3.235   5.979   5.711
12898WAT     H138936   3.211   5.962   5.615
12898WAT     H238937   3.312   6.044   5.715
12899WAT      O38938   2.834   4.315   1.518
12899WAT     H138939   2.825   4.361   1.606
12899WAT     H238940   2.763   4.348   1.456
12900WAT      O38941   9.336   3.185   4.482
12900WAT     H138942   9.281   3.165   4.563
12900WAT     H238943   9.433   3.189   4.507
12901WAT      O38944   6.285   4.863   7.177
12901WAT     H138945   6.273   4.821   7.087
12901WAT     H238946   6.204   4.847   7.232
12902WAT      O38947   9.523   2.697   2.908
12902WAT     H138948   9.494   2.759   2.835
12902WAT     H238949   9.462   2.706   2.987
12903WAT      O38950   7.233   7.738   8.908
12903WAT     H138951   7.216   7.779   8.997
12903WAT     H238952   7.319   7.687   8.910
12904WAT      O38953   2.512   4.773   8.324
12904WAT     H138954   2.462   4.779   8.410
12904WAT     H238955   2.448   4.756   8.249
12905WAT      O38956   3.730   9.279   4.723
12905WAT     H138957   3.690   9.217   4.791
12905WAT     H238958   3.694   9.371   4.738
12906WAT      O38959   7.164   5.679   4.490
12906WAT     H138960   7.253   5.687   4.535
12906WAT     H238961   7.140   5.582   4.481
12907WAT      O38962   4.443   3.220   1.341
12907WAT     H138963   4.501   3.296   1.369
12907WAT     H238964   4.489   3.169   1.269
12908WAT      O38965   7.952   6.885   3.604
12908WAT     H138966   7.910   6.887   3.513
12908WAT     H238967   7.969   6.790   3.631
12909WAT      O38968   4.994   8.370   4.231
12909WAT     H138969   4.910   8.344   4.279
12909WAT     H238970   5.023   8.461   4.262
12910WAT      O38971   8.409   8.140   1.170
12910WAT     H138972   8.375   8.121   1.262
12910WAT     H238973   8.440   8.235   1.166
12911WAT      O38974   1.618   2.123   3.451
12911WAT     H138975   1.593   2.219   3.435
12911WAT     H238976   1.669   2.089   3.373
12912WAT      O38977   1.574   3.615   3.269
12912WAT     H138978   1.494   3.558   3.249
12912WAT     H238979   1.621   3.636   3.183
12913WAT      O38980   1.265   7.070   8.386
12913WAT     H138981   1.236   7.165   8.376
12913WAT     H238982   1.227   7.032   8.471
12914WAT      O38983   3.387   4.439   2.158
12914WAT     H138984   3.454   4.510   2.179
12914WAT     H238985   3.382   4.373   2.233
12915WAT      O38986   3.705   4.321   6.376
12915WAT     H138987   3.793   4.297   6.416
12915WAT     H238988   3.638   4.250   6.395
12916WAT      O38989   7.032   4.264   1.914
12916WAT     H138990   7.067   4.180   1.873
12916WAT     H238991   7.108   4.314   1.957
12917WAT      O38992   9.850   3.191   5.430
12917WAT     H138993   9.832   3.174   5.527
12917WAT     H238994   9.780   3.145   5.375
12918WAT      O38995   3.115   6.372   5.920
12918WAT     H138996   3.070   6.404   5.837
12918WAT     H238997   3.107   6.272   5.926
12919WAT      O38998   4.463   0.036   0.178
12919WAT     H138999   4.435   0.046   0.274
12919WAT     H239000   4.562   0.030   0.172
12920WAT      O39001   9.862   5.096   3.425
12920WAT     H139002   9.899   5.016   3.474
12920WAT     H239003   9.772   5.073   3.389
12921WAT      O39004   2.456   1.580   8.793
12921WAT     H139005   2.364   1.608   8.821
12921WAT     H239006   2.515   1.573   8.874
12922WAT      O39007   7.841   4.896   2.422
12922WAT     H139008   7.791   4.815   2.391
12922WAT     H239009   7.936   4.871   2.440
12923WAT      O39010   1.590   7.969   7.087
12923WAT     H139011   1.667   7.914   7.118
12923WAT     H239012   1.507   7.913   7.087
12924WAT      O39013   1.441   9.557   7.051
12924WAT     H139014   1.516   9.528   6.991
12924WAT     H239015   1.376   9.612   6.999
12925WAT      O39016   8.157   3.734   1.620
12925WAT     H139017   8.148   3.661   1.687
12925WAT     H239018   8.095   3.717   1.543
12926WAT      O39019   5.386   1.998   6.366
12926WAT     H139020   5.386   1.901   6.389
12926WAT     H239021   5.480   2.032   6.365
12927WAT      O39022   2.504   1.258   4.563
12927WAT     H139023   2.419   1.310   4.566
12927WAT     H239024   2.524   1.220   4.654
12928WAT      O39025   0.787   6.502   7.482
12928WAT     H139026   0.732   6.434   7.433
12928WAT     H239027   0.783   6.589   7.432
12929WAT      O39028   8.668   2.636   3.622
12929WAT     H139029   8.684   2.666   3.528
12929WAT     H239030   8.755   2.618   3.667
12930WAT      O39031   8.757   5.950   2.195
12930WAT     H139032   8.688   6.022   2.199
12930WAT     H239033   8.838   5.979   2.245
12931WAT      O39034   2.895   4.975   0.516
12931WAT     H139035   2.876   5.029   0.434
12931WAT     H239036   2.884   5.033   0.597
12932WAT      O39037   2.704   1.730   2.738
12932WAT     H139038   2.614   1.745   2.778
12932WAT     H239039   2.757   1.669   2.797
12933WAT      O39040   9.720   2.418   2.202
12933WAT     H139041   9.651   2.429   2.275
12933WAT     H239042   9.673   2.400   2.116
12934WAT      O39043   3.485   5.860   9.450
12934WAT     H139044   3.539   5.876   9.533
12934WAT     H239045   3.540   5.882   9.369
12935WAT      O39046   0.804   2.386   2.141
12935WAT     H139047   0.891   2.432   2.123
12935WAT     H239048   0.771   2.343   2.057
12936WAT      O39049   5.345   1.820   0.715
12936WAT     H139050   5.303   1.775   0.794
12936WAT     H239051   5.274   1.848   0.650
12937WAT      O39052   0.226   1.755   3.130
12937WAT     H139053   0.308   1.767   3.074
12937WAT     H239054   0.167   1.836   3.120
12938WAT      O39055   1.998   4.638   4.685
12938WAT     H139056   1.918   4.630   4.746
12938WAT     H239057   2.077   4.668   4.737
12939WAT      O39058   9.325   9.108   8.733
12939WAT     H139059   9.318   9.208   8.738
12939WAT     H239060   9.420   9.082   8.718
12940WAT      O39061   6.479   5.153   2.665
12940WAT     H139062   6.488   5.174   2.762
12940WAT     H239063   6.532   5.070   2.644
12941WAT      O39064   5.661   5.710   7.315
12941WAT     H139065   5.716   5.687   7.395
12941WAT     H239066   5.616   5.798   7.331
12942WAT      O39067   4.140   2.770   1.315
12942WAT     H139068   4.205   2.795   1.387
12942WAT     H239069   4.050   2.807   1.336
12943WAT      O39070   8.808   8.852   5.984
12943WAT     H139071   8.875   8.896   5.924
12943WAT     H239072   8.739   8.918   6.011
12944WAT      O39073   0.315   3.224   3.564
12944WAT     H139074   0.355   3.273   3.487
12944WAT     H239075   0.355   3.259   3.649
12945WAT      O39076   6.084   7.392   2.431
12945WAT     H139077   6.154   7.440   2.378
12945WAT     H239078   6.080   7.296   2.403
12946WAT      O39079   8.079   2.071   3.062
12946WAT     H139080   7.992   2.090   3.017
12946WAT     H239081   8.074   1.982   3.108
12947WAT      O39082   9.336   5.854   5.711
12947WAT     H139083   9.428   5.886   5.731
12947WAT     H239084   9.271   5.902   5.769
12948WAT      O39085   8.522   2.386   5.121
12948WAT     H139086   8.581   2.457   5.082
12948WAT     H239087   8.557   2.296   5.096
12949WAT      O39088   5.673   2.887   3.226
12949WAT     H139089   5.658   2.902   3.128
12949WAT     H239090   5.766   2.916   3.250
12950WAT      O39091   7.465   3.518   9.643
12950WAT     H139092   7.432   3.449   9.707
12950WAT     H239093   7.526   3.581   9.690
12951WAT      O39094   9.877   4.605   2.505
12951WAT     H139095   9.847   4.631   2.413
12951WAT     H239096   9.968   4.566   2.501
12952WAT      O39097   2.433   6.979   6.704
12952WAT     H139098   2.385   6.917   6.642
12952WAT     H239099   2.531   6.971   6.689
12953WAT      O39100   5.734   7.778   5.942
12953WAT     H139101   5.715   7.775   5.844
12953WAT     H239102   5.827   7.746   5.959
12954WAT      O39103   8.870   2.585   9.071
12954WAT     H139104   8.771   2.600   9.077
12954WAT     H239105   8.915   2.620   9.153
12955WAT      O39106   5.452   8.972   2.448
12955WAT     H139107   5.544   8.975   2.408
12955WAT     H239108   5.459   8.941   2.543
12956WAT      O39109   8.860   9.470   2.897
12956WAT     H139110   8.824   9.393   2.843
12956WAT     H239111   8.850   9.449   2.994
12957WAT      O39112   5.870   9.090   8.744
12957WAT     H139113   5.922   9.119   8.664
12957WAT     H239114   5.928   9.094   8.825
12958WAT      O39115   5.343   5.965   6.917
12958WAT     H139116   5.408   5.944   6.844
12958WAT     H239117   5.311   5.880   6.958
12959WAT      O39118   2.423   5.350   2.090
12959WAT     H139119   2.402   5.261   2.047
12959WAT     H239120   2.469   5.409   2.024
12960WAT      O39121   2.317   9.837   4.230
12960WAT     H139122   2.381   9.911   4.212
12960WAT     H239123   2.316   9.816   4.328
12961WAT      O39124   9.382   8.788   2.919
12961WAT     H139125   9.475   8.817   2.940
12961WAT     H239126   9.356   8.822   2.829
12962WAT      O39127   3.547   7.734   6.892
12962WAT     H139128   3.454   7.701   6.905
12962WAT     H239129   3.594   7.678   6.823
12963WAT      O39130   2.934   8.362   0.160
12963WAT     H139131   3.010   8.375   0.224
12963WAT     H239132   2.931   8.267   0.130
12964WAT      O39133   2.281   5.019   2.459
12964WAT     H139134   2.267   5.094   2.525
12964WAT     H239135   2.199   5.008   2.403
12965WAT      O39136   3.391   3.697   0.081
12965WAT     H139137   3.356   3.783   0.045
12965WAT     H239138   3.457   3.658   0.016
12966WAT      O39139   0.060   2.382   0.898
12966WAT     H139140   0.001   2.380   0.979
12966WAT     H239141   0.047   2.469   0.851
12967WAT      O39142   7.029   4.973   7.526
12967WAT     H139143   7.095   4.908   7.564
12967WAT     H239144   6.989   4.935   7.443
12968WAT      O39145   5.570   9.075   2.031
12968WAT     H139146   5.563   9.174   2.041
12968WAT     H239147   5.622   9.053   1.948
12969WAT      O39148   6.030   6.090   1.911
12969WAT     H139149   6.061   6.062   2.002
12969WAT     H239150   6.093   6.052   1.842
12970WAT      O39151   7.844   7.692   9.593
12970WAT     H139152   7.929   7.732   9.626
12970WAT     H239153   7.827   7.723   9.499
12971WAT      O39154   6.224   4.842   0.891
12971WAT     H139155   6.165   4.777   0.843
12971WAT     H239156   6.270   4.901   0.824
12972WAT      O39157   8.576   4.640   6.289
12972WAT     H139158   8.675   4.629   6.283
12972WAT     H239159   8.547   4.630   6.385
12973WAT      O39160   0.983   3.280   3.441
12973WAT     H139161   0.996   3.371   3.480
12973WAT     H239162   0.978   3.286   3.342
12974WAT      O39163   1.108   6.002   9.355
12974WAT     H139164   1.026   6.028   9.406
12974WAT     H239165   1.131   5.907   9.375
12975WAT      O39166   1.418   3.159   1.757
12975WAT     H139167   1.475   3.186   1.679
12975WAT     H239168   1.391   3.063   1.747
12976WAT      O39169   6.756   1.720   6.425
12976WAT     H139170   6.721   1.814   6.419
12976WAT     H239171   6.822   1.713   6.499
12977WAT      O39172   0.321   3.293   7.061
12977WAT     H139173   0.380   3.367   7.094
12977WAT     H239174   0.274   3.322   6.978
12978WAT      O39175   4.029   6.694   9.118
12978WAT     H139176   4.068   6.766   9.176
12978WAT     H239177   4.044   6.605   9.161
12979WAT      O39178   0.465   7.120   8.194
12979WAT     H139179   0.433   7.127   8.099
12979WAT     H239180   0.490   7.025   8.213
12980WAT      O39181   3.023   8.939   2.453
12980WAT     H139182   2.967   9.012   2.493
12980WAT     H239183   3.063   8.884   2.526
12981WAT      O39184   1.771   5.247   6.619
12981WAT     H139185   1.723   5.326   6.658
12981WAT     H239186   1.763   5.250   6.519
12982WAT      O39187   5.349   6.052   9.007
12982WAT     H139188   5.400   6.085   9.088
12982WAT     H239189   5.412   6.045   8.930
12983WAT      O39190   6.556   9.682   7.569
12983WAT     H139191   6.621   9.645   7.504
12983WAT     H239192   6.516   9.766   7.532
12984WAT      O39193   4.782   8.166   7.144
12984WAT     H139194   4.726   8.231   7.193
12984WAT     H239195   4.870   8.154   7.191
12985WAT      O39196   6.260   5.041   8.180
12985WAT     H139197   6.307   4.963   8.140
12985WAT     H239198   6.271   5.039   8.280
12986WAT      O39199   9.042   7.440   5.232
12986WAT     H139200   8.962   7.394   5.270
12986WAT     H239201   9.056   7.410   5.138
12987WAT      O39202   0.775   8.328   1.765
12987WAT     H139203   0.851   8.393   1.773
12987WAT     H239204   0.715   8.336   1.844
12988WAT      O39205   6.826   7.811   4.083
12988WAT     H139206   6.876   7.779   4.002
12988WAT     H239207   6.884   7.801   4.164
12989WAT      O39208   6.078   6.288   9.153
12989WAT     H139209   6.061   6.310   9.249
12989WAT     H239210   6.177   6.278   9.139
12990WAT      O39211   6.931   8.468   7.741
12990WAT     H139212   6.917   8.504   7.649
12990WAT     H239213   6.918   8.542   7.807
12991WAT      O39214   3.487   1.126   9.092
12991WAT     H139215   3.580   1.102   9.064
12991WAT     H239216   3.431   1.143   9.011
12992WAT      O39217   5.269   7.318   5.879
12992WAT     H139218   5.204   7.349   5.809
12992WAT     H239219   5.229   7.331   5.969
12993WAT      O39220   7.863   7.677   6.500
12993WAT     H139221   7.893   7.677   6.404
12993WAT     H239222   7.880   7.587   6.540
12994WAT      O39223   2.547   4.373   5.730
12994WAT     H139224   2.595   4.398   5.646
12994WAT     H239225   2.612   4.366   5.805
12995WAT      O39226   4.403   1.609   6.189
12995WAT     H139227   4.484   1.550   6.193
12995WAT     H239228   4.404   1.660   6.103
12996WAT      O39229   3.528   8.719   5.442
12996WAT     H139230   3.510   8.812   5.409
12996WAT     H239231   3.576   8.667   5.370
12997WAT      O39232   9.756   8.803   6.559
12997WAT     H139233   9.696   8.754   6.623
12997WAT     H239234   9.704   8.827   6.477
12998WAT      O39235   4.624   1.130   1.251
12998WAT     H139236   4.629   1.066   1.327
12998WAT     H239237   4.680   1.210   1.271
12999WAT      O39238   5.620   9.321   6.633
12999WAT     H139239   5.616   9.226   6.664
12999WAT     H239240   5.546   9.373   6.675
13000WAT      O39241   3.650   4.514   8.965
13000WAT     H139242   3.664   4.610   8.940
13000WAT     H239243   3.702   4.455   8.904
13001WAT      O39244   0.409   9.076   0.261
13001WAT     H139245   0.446   9.141   0.195
13001WAT     H239246   0.474   9.065   0.336
13002WAT      O39247   2.916   0.333   1.231
13002WAT     H139248   2.921   0.421   1.184
13002WAT     H239249   2.999   0.280   1.213
13003WAT      O39250   5.421   3.083   9.296
13003WAT     H139251   5.342   3.053   9.242
13003WAT     H239252   5.415   3.182   9.312
13004WAT      O39253   3.124   1.044   1.575
13004WAT     H139254   3.142   0.946   1.587
13004WAT     H239255   3.029   1.058   1.547
13005WAT      O39256   7.973   4.287   0.205
13005WAT     H139257   7.996   4.367   0.260
13005WAT     H239258   7.983   4.308   0.108
13006WAT      O39259   4.887   8.551   9.381
13006WAT     H139260   4.951   8.520   9.452
13006WAT     H239261   4.898   8.494   9.300
13007WAT      O39262   9.872   5.031   7.872
13007WAT     H139263   9.868   4.951   7.931
13007WAT     H239264   9.949   5.022   7.808
13008WAT      O39265   1.762   2.949   6.604
13008WAT     H139266   1.755   3.047   6.588
13008WAT     H239267   1.675   2.915   6.640
13009WAT      O39268   0.883   4.541   4.726
13009WAT     H139269   0.825   4.479   4.674
13009WAT     H239270   0.871   4.523   4.824
13010WAT      O39271   9.029   4.630   7.678
13010WAT     H139272   8.968   4.598   7.606
13010WAT     H239273   9.120   4.590   7.666
13011WAT      O39274   1.084   9.289   5.256
13011WAT     H139275   1.097   9.276   5.158
13011WAT     H239276   1.173   9.293   5.302
13012WAT      O39277   0.781   7.922   4.898
13012WAT     H139278   0.743   7.884   4.813
13012WAT     H239279   0.793   7.848   4.964
13013WAT      O39280   4.402   8.697   8.821
13013WAT     H139281   4.455   8.619   8.788
13013WAT     H239282   4.373   8.753   8.744
13014WAT      O39283   3.349   5.664   2.884
13014WAT     H139284   3.373   5.580   2.933
13014WAT     H239285   3.416   5.680   2.812
13015WAT      O39286   8.417   5.997   8.047
13015WAT     H139287   8.479   6.066   8.010
13015WAT     H239288   8.410   5.920   7.983
13016WAT      O39289   9.724   5.967   9.731
13016WAT     H139290   9.653   5.909   9.769
13016WAT     H239291   9.720   5.963   9.631
13017WAT      O39292   3.250   2.255   4.397
13017WAT     H139293   3.157   2.250   4.359
13017WAT     H239294   3.295   2.167   4.384
13018WAT      O39295   2.616   7.277   6.108
13018WAT     H139296   2.581   7.234   6.192
13018WAT     H239297   2.675   7.354   6.132
13019WAT      O39298   7.504   7.217   5.091
13019WAT     H139299   7.499   7.269   5.006
13019WAT     H239300   7.599   7.190   5.108
13020WAT      O39301   3.305   1.084   5.277
13020WAT     H139302   3.348   1.160   5.326
13020WAT     H239303   3.213   1.068   5.313
13021WAT      O39304   5.482   3.510   6.046
13021WAT     H139305   5.408   3.494   5.980
13021WAT     H239306   5.554   3.564   6.002
13022WAT      O39307   6.779   8.902   5.732
13022WAT     H139308   6.722   8.842   5.787
13022WAT     H239309   6.723   8.975   5.693
13023WAT      O39310   4.538   2.179   5.524
13023WAT     H139311   4.597   2.176   5.443
13023WAT     H239312   4.491   2.091   5.534
13024WAT      O39313   5.653   2.379   5.106
13024WAT     H139314   5.681   2.334   5.021
13024WAT     H239315   5.598   2.460   5.085
13025WAT      O39316   6.873   4.755   8.252
13025WAT     H139317   6.915   4.838   8.288
13025WAT     H239318   6.809   4.779   8.179
13026WAT      O39319   8.509   8.883   3.902
13026WAT     H139320   8.603   8.916   3.911
13026WAT     H239321   8.452   8.925   3.972
13027WAT      O39322   8.655   9.217   9.027
13027WAT     H139323   8.615   9.137   8.983
13027WAT     H239324   8.731   9.189   9.086
13028WAT      O39325   9.853   5.462   2.213
13028WAT     H139326   9.918   5.478   2.287
13028WAT     H239327   9.771   5.418   2.249
13029WAT      O39328   8.248   2.962   6.262
13029WAT     H139329   8.164   3.005   6.295
13029WAT     H239330   8.325   2.989   6.320
13030WAT      O39331   5.944   5.615   4.032
13030WAT     H139332   6.002   5.556   3.976
13030WAT     H239333   6.000   5.687   4.074
13031WAT      O39334   2.344   7.995   9.212
13031WAT     H139335   2.361   7.992   9.113
13031WAT     H239336   2.428   7.969   9.261
13032WAT      O39337   4.551   8.993   9.358
13032WAT     H139338   4.611   8.980   9.279
13032WAT     H239339   4.607   9.007   9.440
13033WAT      O39340   1.002   2.475   9.432
13033WAT     H139341   0.939   2.526   9.490
13033WAT     H239342   1.055   2.540   9.377
13034WAT      O39343   8.273   3.514   4.538
13034WAT     H139344   8.301   3.592   4.595
13034WAT     H239345   8.211   3.546   4.466
13035WAT      O39346   4.921   2.512   3.073
13035WAT     H139347   5.005   2.464   3.095
13035WAT     H239348   4.904   2.584   3.141
13036WAT      O39349   2.150   0.294   9.121
13036WAT     H139350   2.149   0.357   9.199
13036WAT     H239351   2.081   0.322   9.055
13037WAT      O39352   6.734   1.766   6.733
13037WAT     H139353   6.680   1.836   6.687
13037WAT     H239354   6.674   1.710   6.790
13038WAT      O39355   6.628   4.937   1.074
13038WAT     H139356   6.532   4.913   1.084
13038WAT     H239357   6.651   5.010   1.138
13039WAT      O39358   9.031   4.321   9.625
13039WAT     H139359   9.119   4.297   9.668
13039WAT     H239360   9.019   4.420   9.628
13040WAT      O39361   5.713   3.226   5.780
13040WAT     H139362   5.696   3.322   5.801
13040WAT     H239363   5.632   3.172   5.803
13041WAT      O39364   4.855   7.821   5.862
13041WAT     H139365   4.812   7.833   5.952
13041WAT     H239366   4.947   7.784   5.874
13042WAT      O39367   0.417   5.764   4.581
13042WAT     H139368   0.357   5.717   4.516
13042WAT     H239369   0.382   5.856   4.599
13043WAT      O39370   6.512   3.568   3.607
13043WAT     H139371   6.606   3.533   3.610
13043WAT     H239372   6.449   3.492   3.591
13044WAT      O39373   4.421   8.381   9.689
13044WAT     H139374   4.478   8.304   9.718
13044WAT     H239375   4.434   8.457   9.752
13045WAT      O39376   6.111   8.062   6.115
13045WAT     H139377   6.022   8.055   6.070
13045WAT     H239378   6.130   7.978   6.165
13046WAT      O39379   6.289   6.956   1.526
13046WAT     H139380   6.228   6.948   1.447
13046WAT     H239381   6.346   6.874   1.533
13047WAT      O39382   4.029   7.761   9.822
13047WAT     H139383   4.033   7.772   9.921
13047WAT     H239384   3.946   7.805   9.786
13048WAT      O39385   6.327   0.873   7.649
13048WAT     H139386   6.262   0.949   7.658
13048WAT     H239387   6.279   0.790   7.622
13049WAT      O39388   1.364   0.418   5.966
13049WAT     H139389   1.330   0.444   6.057
13049WAT     H239390   1.341   0.322   5.949
13050WAT      O39391   5.554   6.444   7.883
13050WAT     H139392   5.483   6.487   7.828
13050WAT     H239393   5.621   6.512   7.912
13051WAT      O39394   2.647   0.371   3.625
13051WAT     H139395   2.609   0.315   3.551
13051WAT     H239396   2.650   0.316   3.709
13052WAT      O39397   6.023   0.307   3.740
13052WAT     H139398   5.987   0.293   3.832
13052WAT     H239399   6.092   0.238   3.720
13053WAT      O39400   2.434   4.469   3.592
13053WAT     H139401   2.482   4.391   3.633
13053WAT     H239402   2.441   4.463   3.492
13054WAT      O39403   1.090   5.967   6.750
13054WAT     H139404   1.002   5.951   6.795
13054WAT     H239405   1.163   5.931   6.808
13055WAT      O39406   8.390   1.552   2.081
13055WAT     H139407   8.396   1.556   1.981
13055WAT     H239408   8.299   1.583   2.110
13056WAT      O39409   3.080   3.022   9.551
13056WAT     H139410   3.055   2.928   9.576
13056WAT     H239411   3.171   3.043   9.587
13057WAT      O39412   5.869   1.582   2.078
13057WAT     H139413   5.920   1.568   2.163
13057WAT     H239414   5.774   1.554   2.091
13058WAT      O39415   7.036   8.247   3.340
13058WAT     H139416   7.054   8.281   3.247
13058WAT     H239417   6.961   8.298   3.380
13059WAT      O39418   5.440   9.168   5.006
13059WAT     H139419   5.408   9.096   5.068
13059WAT     H239420   5.398   9.155   4.916
13060WAT      O39421   3.840   9.042   1.714
13060WAT     H139422   3.771   9.064   1.783
13060WAT     H239423   3.885   8.957   1.738
13061WAT      O39424   6.532   1.452   6.713
13061WAT     H139425   6.494   1.509   6.786
13061WAT     H239426   6.484   1.364   6.712
13062WAT      O39427   7.113   9.285   7.879
13062WAT     H139428   7.085   9.379   7.894
13062WAT     H239429   7.076   9.227   7.952
13063WAT      O39430   2.002   3.121   5.142
13063WAT     H139431   2.027   3.109   5.238
13063WAT     H239432   2.080   3.159   5.091
13064WAT      O39433   3.778   3.410   2.236
13064WAT     H139434   3.700   3.370   2.284
13064WAT     H239435   3.749   3.437   2.144
13065WAT      O39436   0.406   1.394   6.814
13065WAT     H139437   0.488   1.393   6.756
13065WAT     H239438   0.426   1.345   6.899
13066WAT      O39439   6.545   2.123   0.353
13066WAT     H139440   6.628   2.078   0.320
13066WAT     H239441   6.521   2.198   0.291
13067WAT      O39442   7.105   4.664   6.025
13067WAT     H139443   7.097   4.757   5.989
13067WAT     H239444   7.110   4.599   5.948
13068WAT      O39445   2.025   3.657   7.153
13068WAT     H139446   1.997   3.753   7.143
13068WAT     H239447   2.122   3.649   7.126
13069WAT      O39448   5.236   3.538   8.652
13069WAT     H139449   5.245   3.621   8.707
13069WAT     H239450   5.309   3.475   8.675
13070WAT      O39451   3.748   0.336   5.950
13070WAT     H139452   3.742   0.426   5.907
13070WAT     H239453   3.667   0.322   6.008
13071WAT      O39454   0.627   8.088   9.334
13071WAT     H139455   0.547   8.119   9.282
13071WAT     H239456   0.677   8.021   9.280
13072WAT      O39457   2.307   5.982   5.044
13072WAT     H139458   2.305   5.885   5.065
13072WAT     H239459   2.374   5.998   4.970
13073WAT      O39460   9.728   6.245   9.213
13073WAT     H139461   9.664   6.298   9.269
13073WAT     H239462   9.750   6.159   9.260
13074WAT      O39463   3.304   8.714   9.296
13074WAT     H139464   3.227   8.768   9.329
13074WAT     H239465   3.299   8.621   9.334
13075WAT      O39466   1.145   7.933   9.614
13075WAT     H139467   1.223   7.977   9.658
13075WAT     H239468   1.094   7.881   9.682
13076WAT      O39469   5.345   8.704   2.255
13076WAT     H139470   5.411   8.648   2.305
13076WAT     H239471   5.380   8.722   2.163
13077WAT      O39472   8.843   3.982   5.612
13077WAT     H139473   8.747   3.983   5.584
13077WAT     H239474   8.873   4.076   5.631
13078WAT      O39475   9.638   3.126   5.273
13078WAT     H139476   9.590   3.042   5.248
13078WAT     H239477   9.586   3.175   5.343
13079WAT      O39478   8.105   4.440   1.301
13079WAT     H139479   8.087   4.527   1.256
13079WAT     H239480   8.203   4.433   1.322
13080WAT      O39481   5.228   5.718   6.992
13080WAT     H139482   5.227   5.626   7.029
13080WAT     H239483   5.136   5.744   6.962
13081WAT      O39484   7.775   1.525   4.288
13081WAT     H139485   7.683   1.510   4.323
13081WAT     H239486   7.841   1.524   4.363
13082WAT      O39487   5.960   6.183   3.855
13082WAT     H139488   5.863   6.194   3.877
13082WAT     H239489   6.012   6.175   3.939
13083WAT      O39490   1.258   1.587   3.434
13083WAT     H139491   1.216   1.500   3.409
13083WAT     H239492   1.352   1.591   3.400
13084WAT      O39493   0.482   0.782   6.504
13084WAT     H139494   0.467   0.880   6.516
13084WAT     H239495   0.529   0.745   6.584
13085WAT      O39496   7.309   5.452   7.945
13085WAT     H139497   7.385   5.396   7.976
13085WAT     H239498   7.250   5.475   8.023
13086WAT      O39499   2.090   8.604   8.714
13086WAT     H139500   2.131   8.514   8.718
13086WAT     H239501   2.158   8.671   8.686
13087WAT      O39502   9.291   8.078   2.775
13087WAT     H139503   9.366   8.071   2.710
13087WAT     H239504   9.212   8.028   2.740
13088WAT      O39505   5.096   2.152   7.844
13088WAT     H139506   5.143   2.181   7.927
13088WAT     H239507   5.163   2.133   7.773
13089WAT      O39508   4.079   0.709   4.092
13089WAT     H139509   4.082   0.641   4.018
13089WAT     H239510   4.090   0.663   4.180
13090WAT      O39511   1.998   2.792   1.444
13090WAT     H139512   2.033   2.783   1.537
13090WAT     H239513   2.072   2.818   1.383
13091WAT      O39514   7.778   7.944   3.319
13091WAT     H139515   7.693   7.975   3.360
13091WAT     H239516   7.783   7.844   3.325
13092WAT      O39517   9.333   2.703   0.146
13092WAT     H139518   9.354   2.637   0.219
13092WAT     H239519   9.274   2.775   0.183
13093WAT      O39520   5.421   2.215   0.648
13093WAT     H139521   5.450   2.159   0.726
13093WAT     H239522   5.494   2.279   0.625
13094WAT      O39523   8.819   3.993   5.203
13094WAT     H139524   8.849   4.085   5.231
13094WAT     H239525   8.726   3.977   5.237
13095WAT      O39526   7.876   0.692   2.646
13095WAT     H139527   7.957   0.723   2.595
13095WAT     H239528   7.824   0.627   2.590
13096WAT      O39529   2.302   3.445   4.984
13096WAT     H139530   2.378   3.401   4.936
13096WAT     H239531   2.312   3.545   4.978
13097WAT      O39532   3.792   9.657   1.246
13097WAT     H139533   3.740   9.574   1.264
13097WAT     H239534   3.885   9.647   1.282
13098WAT      O39535   1.243   3.138   8.404
13098WAT     H139536   1.173   3.100   8.464
13098WAT     H239537   1.224   3.114   8.309
13099WAT      O39538   8.847   4.082   7.648
13099WAT     H139539   8.912   4.079   7.571
13099WAT     H239540   8.878   4.020   7.720
13100WAT      O39541   4.336   5.375   6.423
13100WAT     H139542   4.300   5.468   6.410
13100WAT     H239543   4.409   5.377   6.492
13101WAT      O39544   8.094   1.534   2.740
13101WAT     H139545   8.026   1.564   2.673
13101WAT     H239546   8.170   1.489   2.693
13102WAT      O39547   0.650   8.803   7.700
13102WAT     H139548   0.611   8.893   7.686
13102WAT     H239549   0.740   8.798   7.656
13103WAT      O39550   4.104   3.473   3.412
13103WAT     H139551   4.045   3.528   3.353
13103WAT     H239552   4.148   3.531   3.480
13104WAT      O39553   3.759   4.307   8.321
13104WAT     H139554   3.823   4.256   8.264
13104WAT     H239555   3.787   4.403   8.326
13105WAT      O39556   2.223   0.874   9.831
13105WAT     H139557   2.184   0.931   9.903
13105WAT     H239558   2.167   0.791   9.820
13106WAT      O39559   5.057   8.864   9.571
13106WAT     H139560   5.140   8.917   9.557
13106WAT     H239561   4.998   8.911   9.636
13107WAT      O39562   4.821   8.872   6.433
13107WAT     H139563   4.773   8.953   6.400
13107WAT     H239564   4.902   8.856   6.377
13108WAT      O39565   3.373   8.721   8.033
13108WAT     H139566   3.361   8.803   7.977
13108WAT     H239567   3.471   8.703   8.045
13109WAT      O39568   3.720   4.015   4.236
13109WAT     H139569   3.761   4.070   4.308
13109WAT     H239570   3.665   4.073   4.176
13110WAT      O39571   1.277   4.747   0.861
13110WAT     H139572   1.260   4.827   0.919
13110WAT     H239573   1.248   4.767   0.767
13111WAT      O39574   5.753   7.768   4.501
13111WAT     H139575   5.788   7.805   4.587
13111WAT     H239576   5.741   7.669   4.511
13112WAT      O39577   1.757   8.087   4.672
13112WAT     H139578   1.854   8.096   4.697
13112WAT     H239579   1.740   7.993   4.643
13113WAT      O39580   2.209   6.884   6.113
13113WAT     H139581   2.188   6.789   6.134
13113WAT     H239582   2.161   6.911   6.029
13114WAT      O39583   5.126   7.560   8.676
13114WAT     H139584   5.112   7.547   8.774
13114WAT     H239585   5.212   7.609   8.661
13115WAT      O39586   5.739   6.530   4.786
13115WAT     H139587   5.792   6.576   4.857
13115WAT     H239588   5.717   6.437   4.816
13116WAT      O39589   5.908   0.220   7.103
13116WAT     H139590   5.966   0.178   7.173
13116WAT     H239591   5.889   0.153   7.031
13117WAT      O39592   4.614   0.458   6.915
13117WAT     H139593   4.580   0.478   6.823
13117WAT     H239594   4.660   0.539   6.952
13118WAT      O39595   0.768   7.297   6.450
13118WAT     H139596   0.738   7.205   6.426
13118WAT     H239597   0.852   7.292   6.503
13119WAT      O39598   4.245   4.834   5.105
13119WAT     H139599   4.166   4.825   5.165
13119WAT     H239600   4.221   4.891   5.026
13120WAT      O39601   8.493   4.451   3.749
13120WAT     H139602   8.567   4.490   3.803
13120WAT     H239603   8.448   4.524   3.697
13121WAT      O39604   4.492   1.566   0.227
13121WAT     H139605   4.501   1.665   0.214
13121WAT     H239606   4.439   1.527   0.152
13122WAT      O39607   4.107   6.775   7.976
13122WAT     H139608   4.188   6.722   7.999
13122WAT     H239609   4.119   6.816   7.885
13123WAT      O39610   5.819   9.512   3.589
13123WAT     H139611   5.838   9.608   3.570
13123WAT     H239612   5.904   9.464   3.609
13124WAT      O39613   4.028   5.167   6.330
13124WAT     H139614   3.957   5.139   6.265
13124WAT     H239615   4.108   5.199   6.280
13125WAT      O39616   0.033   2.389   1.635
13125WAT     H139617   0.078   2.397   1.546
13125WAT     H239618  -0.025   2.469   1.652
13126WAT      O39619   9.231   1.396   8.990
13126WAT     H139620   9.162   1.326   9.012
13126WAT     H239621   9.293   1.408   9.067
13127WAT      O39622   0.977   9.124   2.225
13127WAT     H139623   0.905   9.175   2.177
13127WAT     H239624   1.062   9.128   2.172
13128WAT      O39625   2.325   7.185   7.891
13128WAT     H139626   2.410   7.165   7.841
13128WAT     H239627   2.343   7.182   7.990
13129WAT      O39628   9.428   1.575   1.847
13129WAT     H139629   9.511   1.526   1.874
13129WAT     H239630   9.367   1.583   1.925
13130WAT      O39631   3.256   8.852   0.605
13130WAT     H139632   3.274   8.759   0.639
13130WAT     H239633   3.159   8.873   0.614
13131WAT      O39634   9.796   8.361   0.888
13131WAT     H139635   9.828   8.267   0.885
13131WAT     H239636   9.866   8.422   0.851
13132WAT      O39637   8.624   0.473   2.189
13132WAT     H139638   8.579   0.411   2.253
13132WAT     H239639   8.593   0.567   2.208
13133WAT      O39640   1.452   6.157   6.018
13133WAT     H139641   1.434   6.221   6.093
13133WAT     H239642   1.492   6.207   5.941
13134WAT      O39643   3.720   6.562   5.183
13134WAT     H139644   3.687   6.549   5.089
13134WAT     H239645   3.661   6.629   5.229
13135WAT      O39646   4.036   3.422   6.156
13135WAT     H139647   3.993   3.504   6.118
13135WAT     H239648   3.970   3.348   6.158
13136WAT      O39649   6.458   7.286   7.190
13136WAT     H139650   6.499   7.296   7.281
13136WAT     H239651   6.528   7.296   7.120
13137WAT      O39652   1.476   5.078   0.794
13137WAT     H139653   1.517   5.115   0.711
13137WAT     H239654   1.536   5.096   0.872
13138WAT      O39655   8.574   8.164   6.967
13138WAT     H139656   8.563   8.199   6.873
13138WAT     H239657   8.508   8.208   7.027
13139WAT      O39658   3.697   5.576   9.308
13139WAT     H139659   3.677   5.673   9.325
13139WAT     H239660   3.727   5.565   9.213
13140WAT      O39661   8.619   1.359   2.298
13140WAT     H139662   8.632   1.449   2.257
13140WAT     H239663   8.707   1.315   2.314
13141WAT      O39664   3.654   8.712   8.044
13141WAT     H139665   3.692   8.741   7.956
13141WAT     H239666   3.728   8.701   8.110
13142WAT      O39667   5.587   8.273   4.224
13142WAT     H139668   5.614   8.217   4.302
13142WAT     H239669   5.564   8.365   4.257
13143WAT      O39670   3.847   8.454   3.055
13143WAT     H139671   3.753   8.425   3.037
13143WAT     H239672   3.910   8.402   2.998
13144WAT      O39673   0.778   1.835   5.208
13144WAT     H139674   0.814   1.742   5.199
13144WAT     H239675   0.692   1.833   5.259
13145WAT      O39676   5.166   1.451   1.886
13145WAT     H139677   5.102   1.447   1.963
13145WAT     H239678   5.229   1.374   1.892
13146WAT      O39679   4.739   7.371   4.465
13146WAT     H139680   4.647   7.370   4.505
13146WAT     H239681   4.758   7.461   4.426
13147WAT      O39682   7.313   4.852   8.345
13147WAT     H139683   7.328   4.828   8.441
13147WAT     H239684   7.276   4.944   8.339
13148WAT      O39685   0.780   2.486   1.263
13148WAT     H139686   0.826   2.575   1.259
13148WAT     H239687   0.681   2.499   1.267
13149WAT      O39688   4.125   2.768   1.789
13149WAT     H139689   4.049   2.711   1.759
13149WAT     H239690   4.127   2.852   1.735
13150WAT      O39691   6.395   3.942   4.187
13150WAT     H139692   6.452   3.876   4.138
13150WAT     H239693   6.444   4.028   4.196
13151WAT      O39694   1.247   6.308   4.214
13151WAT     H139695   1.211   6.232   4.268
13151WAT     H239696   1.214   6.299   4.120
13152WAT      O39697   3.352   2.614   2.908
13152WAT     H139698   3.448   2.599   2.888
13152WAT     H239699   3.343   2.680   2.983
13153WAT      O39700   4.535   2.830   5.314
13153WAT     H139701   4.518   2.762   5.243
13153WAT     H239702   4.448   2.871   5.343
13154WAT      O39703   8.312   1.854   3.664
13154WAT     H139704   8.216   1.870   3.685
13154WAT     H239705   8.320   1.780   3.597
13155WAT      O39706   7.720   6.192   2.954
13155WAT     H139707   7.686   6.195   3.048
13155WAT     H239708   7.717   6.283   2.914
13156WAT      O39709   2.185   0.201   9.717
13156WAT     H139710   2.207   0.228   9.811
13156WAT     H239711   2.086   0.191   9.708
13157WAT      O39712   5.301   7.644   5.449
13157WAT     H139713   5.376   7.694   5.493
13157WAT     H239714   5.214   7.673   5.488
13158WAT      O39715   3.374   0.218   5.790
13158WAT     H139716   3.429   0.139   5.762
13158WAT     H239717   3.415   0.302   5.753
13159WAT      O39718   7.809   2.671   6.404
13159WAT     H139719   7.858   2.608   6.343
13159WAT     H239720   7.872   2.744   6.433
13160WAT      O39721   2.340   4.465   0.443
13160WAT     H139722   2.434   4.436   0.462
13160WAT     H239723   2.289   4.390   0.401
13161WAT      O39724   3.452   4.963   5.119
13161WAT     H139725   3.535   5.016   5.135
13161WAT     H239726   3.460   4.874   5.163
13162WAT      O39727   5.068   6.767   4.714
13162WAT     H139728   5.034   6.773   4.621
13162WAT     H239729   5.065   6.858   4.757
13163WAT      O39730   3.612   7.963   7.523
13163WAT     H139731   3.659   8.008   7.599
13163WAT     H239732   3.672   7.894   7.482
13164WAT      O39733   6.913   0.455   7.506
13164WAT     H139734   6.924   0.448   7.605
13164WAT     H239735   6.829   0.505   7.485
13165WAT      O39736   5.191   3.067   6.515
13165WAT     H139737   5.265   3.109   6.567
13165WAT     H239738   5.142   3.001   6.571
13166WAT      O39739   1.496   0.868   4.367
13166WAT     H139740   1.507   0.954   4.418
13166WAT     H239741   1.443   0.886   4.284
13167WAT      O39742   2.613   2.156   3.921
13167WAT     H139743   2.545   2.204   3.975
13167WAT     H239744   2.629   2.065   3.959
13168WAT      O39745   0.607   9.621   4.003
13168WAT     H139746   0.664   9.683   4.056
13168WAT     H239747   0.611   9.646   3.906
13169WAT      O39748   7.758   5.161   9.738
13169WAT     H139749   7.703   5.185   9.818
13169WAT     H239750   7.855   5.177   9.757
13170WAT      O39751   9.266   6.087   4.415
13170WAT     H139752   9.259   6.022   4.491
13170WAT     H239753   9.186   6.146   4.414
13171WAT      O39754   5.769   1.117   8.773
13171WAT     H139755   5.709   1.108   8.852
13171WAT     H239756   5.767   1.210   8.738
13172WAT      O39757   4.693   1.034   8.655
13172WAT     H139758   4.659   1.077   8.571
13172WAT     H239759   4.715   0.939   8.637
13173WAT      O39760   8.367   6.235   8.632
13173WAT     H139761   8.448   6.204   8.583
13173WAT     H239762   8.289   6.235   8.569
13174WAT      O39763   6.059   7.613   4.508
13174WAT     H139764   6.043   7.700   4.462
13174WAT     H239765   6.058   7.627   4.607
13175WAT      O39766   6.619   5.417   0.872
13175WAT     H139767   6.599   5.367   0.788
13175WAT     H239768   6.616   5.515   0.854
13176WAT      O39769   5.094   2.509   9.637
13176WAT     H139770   5.123   2.491   9.543
13176WAT     H239771   4.998   2.536   9.639
13177WAT      O39772   3.973   8.977   9.653
13177WAT     H139773   4.013   9.001   9.564
13177WAT     H239774   3.921   8.892   9.645
13178WAT      O39775   4.192   8.992   3.496
13178WAT     H139776   4.290   8.980   3.477
13178WAT     H239777   4.139   8.932   3.436
13179WAT      O39778   6.072   3.991   2.046
13179WAT     H139779   6.096   4.048   1.967
13179WAT     H239780   5.995   3.932   2.021
13180WAT      O39781   8.908   8.570   0.556
13180WAT     H139782   8.993   8.533   0.592
13180WAT     H239783   8.895   8.538   0.462
13181WAT      O39784   0.830   9.458   8.096
13181WAT     H139785   0.807   9.512   8.178
13181WAT     H239786   0.921   9.418   8.108
13182WAT      O39787   2.982   4.956   1.153
13182WAT     H139788   2.891   4.956   1.194
13182WAT     H239789   3.027   5.043   1.172
13183WAT      O39790   8.847   2.425   7.563
13183WAT     H139791   8.852   2.521   7.590
13183WAT     H239792   8.759   2.387   7.591
13184WAT      O39793   9.852   3.375   1.204
13184WAT     H139794   9.923   3.320   1.248
13184WAT     H239795   9.892   3.460   1.170
13185WAT      O39796   9.250   2.644   0.561
13185WAT     H139797   9.288   2.593   0.639
13185WAT     H239798   9.264   2.742   0.575
13186WAT      O39799   3.824   7.448   6.268
13186WAT     H139800   3.910   7.488   6.299
13186WAT     H239801   3.840   7.355   6.236
13187WAT      O39802   3.782   3.078   3.014
13187WAT     H139803   3.788   3.177   3.026
13187WAT     H239804   3.686   3.051   3.004
13188WAT      O39805   5.297   7.046   3.620
13188WAT     H139806   5.334   7.094   3.700
13188WAT     H239807   5.199   7.061   3.616
13189WAT      O39808   5.443   9.451   6.782
13189WAT     H139809   5.467   9.539   6.823
13189WAT     H239810   5.343   9.441   6.782
13190WAT      O39811   0.124   0.537   6.295
13190WAT     H139812   0.147   0.463   6.358
13190WAT     H239813   0.130   0.504   6.201
13191WAT      O39814   1.727   9.632   5.529
13191WAT     H139815   1.672   9.641   5.612
13191WAT     H239816   1.811   9.582   5.550
13192WAT      O39817   9.507   7.228   2.151
13192WAT     H139818   9.578   7.204   2.085
13192WAT     H239819   9.540   7.208   2.243
13193WAT      O39820   2.121   8.749   1.061
13193WAT     H139821   2.044   8.697   1.098
13193WAT     H239822   2.116   8.749   0.961
13194WAT      O39823   8.345   2.061   8.120
13194WAT     H139824   8.357   2.061   8.021
13194WAT     H239825   8.303   2.147   8.148
13195WAT      O39826   7.862   0.956   8.524
13195WAT     H139827   7.844   1.031   8.460
13195WAT     H239828   7.961   0.939   8.527
13196WAT      O39829   5.978   8.875   2.336
13196WAT     H139830   5.880   8.858   2.352
13196WAT     H239831   6.030   8.835   2.412
13197WAT      O39832   5.261   9.575   7.652
13197WAT     H139833   5.216   9.657   7.615
13197WAT     H239834   5.299   9.596   7.742
13198WAT      O39835   1.122   0.344   7.277
13198WAT     H139836   1.031   0.375   7.306
13198WAT     H239837   1.181   0.336   7.357
13199WAT      O39838   5.231   1.256   2.745
13199WAT     H139839   5.158   1.189   2.732
13199WAT     H239840   5.239   1.313   2.663
13200WAT      O39841   0.917   7.679   1.975
13200WAT     H139842   0.943   7.683   2.072
13200WAT     H239843   0.984   7.729   1.920
13201WAT      O39844   6.560   4.745   4.747
13201WAT     H139845   6.508   4.790   4.675
13201WAT     H239846   6.506   4.670   4.786
13202WAT      O39847   7.754   5.738   5.507
13202WAT     H139848   7.771   5.789   5.423
13202WAT     H239849   7.840   5.701   5.542
13203WAT      O39850   9.745   4.152   9.819
13203WAT     H139851   9.690   4.235   9.832
13203WAT     H239852   9.744   4.126   9.723
13204WAT      O39853   4.645   5.628   7.781
13204WAT     H139854   4.586   5.692   7.733
13204WAT     H239855   4.670   5.553   7.719
13205WAT      O39856   2.202   2.445   0.000
13205WAT     H139857   2.104   2.461   0.005
13205WAT     H239858   2.220   2.347  -0.005
13206WAT      O39859   3.191   2.321   9.444
13206WAT     H139860   3.127   2.250   9.412
13206WAT     H239861   3.239   2.287   9.525
13207WAT      O39862   7.419   7.188   1.745
13207WAT     H139863   7.469   7.242   1.813
13207WAT     H239864   7.476   7.175   1.664
13208WAT      O39865   8.232   3.618   4.845
13208WAT     H139866   8.288   3.659   4.773
13208WAT     H239867   8.255   3.521   4.853
13209WAT      O39868   7.619   5.579   9.474
13209WAT     H139869   7.675   5.506   9.513
13209WAT     H239870   7.622   5.659   9.535
13210WAT      O39871   0.838   5.952   4.571
13210WAT     H139872   0.898   6.032   4.571
13210WAT     H239873   0.745   5.980   4.595
13211WAT      O39874   5.844   7.775   2.330
13211WAT     H139875   5.937   7.783   2.294
13211WAT     H239876   5.825   7.679   2.352
13212WAT      O39877   2.655   8.480   3.825
13212WAT     H139878   2.660   8.429   3.739
13212WAT     H239879   2.567   8.464   3.869
13213WAT      O39880   7.267   1.498   7.670
13213WAT     H139881   7.261   1.398   7.659
13213WAT     H239882   7.289   1.539   7.582
13214WAT      O39883   1.913   4.872   6.060
13214WAT     H139884   1.842   4.893   6.127
13214WAT     H239885   2.002   4.901   6.096
13215WAT      O39886   1.770   4.525   4.806
13215WAT     H139887   1.809   4.526   4.898
13215WAT     H239888   1.706   4.449   4.796
13216WAT      O39889   3.334   9.427   4.159
13216WAT     H139890   3.331   9.327   4.168
13216WAT     H239891   3.269   9.456   4.089
13217WAT      O39892   5.593   0.751   2.145
13217WAT     H139893   5.633   0.765   2.235
13217WAT     H239894   5.658   0.779   2.074
13218WAT      O39895   8.148   0.930   8.526
13218WAT     H139896   8.171   0.941   8.623
13218WAT     H239897   8.190   1.005   8.474
13219WAT      O39898   0.681   0.743   6.733
13219WAT     H139899   0.754   0.770   6.795
13219WAT     H239900   0.668   0.644   6.738
13220WAT      O39901   8.600   4.073   7.909
13220WAT     H139902   8.578   4.043   7.816
13220WAT     H239903   8.566   4.005   7.974
13221WAT      O39904   5.571   4.542   3.492
13221WAT     H139905   5.601   4.590   3.410
13221WAT     H239906   5.646   4.543   3.560
13222WAT      O39907   6.550   5.342   1.676
13222WAT     H139908   6.525   5.358   1.771
13222WAT     H239909   6.520   5.251   1.648
13223WAT      O39910   8.198   2.099   3.972
13223WAT     H139911   8.274   2.126   3.913
13223WAT     H239912   8.225   2.021   4.028
13224WAT      O39913   9.821   9.425   4.627
13224WAT     H139914   9.778   9.335   4.624
13224WAT     H239915   9.918   9.415   4.646
13225WAT      O39916   8.859   3.237   3.598
13225WAT     H139917   8.793   3.293   3.548
13225WAT     H239918   8.814   3.154   3.631
13226WAT      O39919   7.956   7.320   0.010
13226WAT     H139920   7.961   7.319   0.109
13226WAT     H239921   8.047   7.309  -0.029
13227WAT      O39922   4.750   8.762   3.454
13227WAT     H139923   4.673   8.771   3.517
13227WAT     H239924   4.824   8.711   3.498
13228WAT      O39925   6.388   2.108   9.118
13228WAT     H139926   6.454   2.101   9.042
13228WAT     H239927   6.384   2.203   9.150
13229WAT      O39928   7.366   0.311   2.781
13229WAT     H139929   7.356   0.253   2.699
13229WAT     H239930   7.378   0.406   2.753
13230WAT      O39931   1.757   8.761   4.970
13230WAT     H139932   1.730   8.711   5.052
13230WAT     H239933   1.758   8.859   4.988
13231WAT      O39934   1.207   9.063   4.841
13231WAT     H139935   1.241   8.982   4.889
13231WAT     H239936   1.279   9.102   4.785
13232WAT      O39937   9.272   4.559   7.551
13232WAT     H139938   9.282   4.646   7.503
13232WAT     H239939   9.208   4.501   7.500
13233WAT      O39940   7.236   1.554   1.912
13233WAT     H139941   7.239   1.507   2.001
13233WAT     H239942   7.149   1.602   1.903
13234WAT      O39943   4.120   2.962   3.553
13234WAT     H139944   4.091   3.055   3.531
13234WAT     H239945   4.210   2.964   3.595
13235WAT      O39946   3.531   3.986   3.190
13235WAT     H139947   3.443   3.964   3.231
13235WAT     H239948   3.541   3.937   3.103
13236WAT      O39949   1.631   6.510   5.275
13236WAT     H139950   1.592   6.484   5.363
13236WAT     H239951   1.645   6.428   5.219
13237WAT      O39952   6.278   9.198   5.104
13237WAT     H139953   6.186   9.216   5.069
13237WAT     H239954   6.309   9.108   5.072
13238WAT      O39955   9.588   0.545   5.719
13238WAT     H139956   9.660   0.599   5.762
13238WAT     H239957   9.627   0.487   5.647
13239WAT      O39958   1.562   5.868   2.437
13239WAT     H139959   1.630   5.938   2.457
13239WAT     H239960   1.529   5.829   2.524
13240WAT      O39961   6.466   3.058   3.175
13240WAT     H139962   6.396   3.063   3.104
13240WAT     H239963   6.450   2.979   3.233
13241WAT      O39964   6.284   1.296   4.701
13241WAT     H139965   6.371   1.325   4.663
13241WAT     H239966   6.242   1.228   4.641
13242WAT      O39967   6.033   1.332   2.567
13242WAT     H139968   6.007   1.256   2.628
13242WAT     H239969   6.098   1.299   2.499
13243WAT      O39970   6.529   5.260   0.635
13243WAT     H139971   6.524   5.167   0.671
13243WAT     H239972   6.591   5.262   0.556
13244WAT      O39973   3.961   2.276   9.806
13244WAT     H139974   3.877   2.223   9.819
13244WAT     H239975   4.013   2.238   9.730
13245WAT      O39976   6.868   8.449   3.108
13245WAT     H139977   6.942   8.390   3.077
13245WAT     H239978   6.848   8.431   3.204
13246WAT      O39979   0.755   2.893   4.396
13246WAT     H139980   0.677   2.901   4.333
13246WAT     H239981   0.722   2.888   4.490
13247WAT      O39982   3.832   5.825   7.553
13247WAT     H139983   3.760   5.843   7.619
13247WAT     H239984   3.920   5.855   7.591
13248WAT      O39985   1.306   8.366   8.979
13248WAT     H139986   1.247   8.445   8.995
13248WAT     H239987   1.290   8.331   8.887
13249WAT      O39988   3.325   3.250   7.270
13249WAT     H139989   3.367   3.327   7.222
13249WAT     H239990   3.331   3.168   7.213
13250WAT      O39991   6.795   4.316   1.636
13250WAT     H139992   6.822   4.221   1.653
13250WAT     H239993   6.695   4.324   1.642
13251WAT      O39994   6.572   2.757   6.880
13251WAT     H139995   6.655   2.812   6.873
13251WAT     H239996   6.514   2.773   6.800
13252WAT      O39997   4.963   6.766   4.467
13252WAT     H139998   4.881   6.751   4.523
13252WAT     H239999   4.972   6.691   4.401
13253WAT      O40000   3.926   7.407   9.192
13253WAT     H140001   3.880   7.332   9.144
13253WAT     H240002   3.977   7.462   9.125
13254WAT      O40003   4.595   3.813   6.209
13254WAT     H140004   4.627   3.867   6.287
13254WAT     H240005   4.511   3.853   6.173
13255WAT      O40006   3.995   7.557   2.309
13255WAT     H140007   4.065   7.628   2.301
13255WAT     H240008   3.961   7.554   2.403
13256WAT      O40009   1.576   1.438   7.692
13256WAT     H140010   1.528   1.381   7.625
13256WAT     H240011   1.578   1.532   7.660
13257WAT      O40012   1.933   0.658   7.047
13257WAT     H140013   1.931   0.696   6.955
13257WAT     H240014   1.997   0.582   7.051
13258WAT      O40015   6.867   6.620   7.708
13258WAT     H140016   6.879   6.684   7.784
13258WAT     H240017   6.795   6.654   7.648
13259WAT      O40018   6.862   5.136   6.432
13259WAT     H140019   6.919   5.081   6.494
13259WAT     H240020   6.908   5.146   6.344
13260WAT      O40021   9.654   3.298   7.061
13260WAT     H140022   9.745   3.261   7.042
13260WAT     H240023   9.647   3.390   7.022
13261WAT      O40024   8.822   1.391   6.531
13261WAT     H140025   8.824   1.336   6.447
13261WAT     H240026   8.758   1.350   6.596
13262WAT      O40027   0.563   8.748   5.915
13262WAT     H140028   0.520   8.751   6.005
13262WAT     H240029   0.561   8.839   5.874
13263WAT      O40030   3.513   9.506   3.758
13263WAT     H140031   3.416   9.503   3.732
13263WAT     H240032   3.569   9.515   3.675
13264WAT      O40033   4.939   6.207   0.373
13264WAT     H140034   4.930   6.126   0.315
13264WAT     H240035   4.947   6.179   0.468
13265WAT      O40036   2.485   1.135   7.934
13265WAT     H140037   2.453   1.168   8.023
13265WAT     H240038   2.450   1.042   7.918
13266WAT      O40039   5.653   5.198   2.300
13266WAT     H140040   5.635   5.288   2.338
13266WAT     H240041   5.584   5.175   2.232
13267WAT      O40042   8.724   7.593   5.420
13267WAT     H140043   8.639   7.634   5.453
13267WAT     H240044   8.800   7.621   5.479
13268WAT      O40045   4.503   2.873   7.539
13268WAT     H140046   4.594   2.895   7.573
13268WAT     H240047   4.439   2.868   7.616
13269WAT      O40048   8.678   3.475   3.059
13269WAT     H140049   8.763   3.442   3.101
13269WAT     H240050   8.602   3.456   3.121
13270WAT      O40051   9.285   3.147   5.659
13270WAT     H140052   9.208   3.083   5.650
13270WAT     H240053   9.254   3.229   5.707
13271WAT      O40054   7.322   0.015   4.445
13271WAT     H140055   7.399  -0.041   4.478
13271WAT     H240056   7.349   0.062   4.361
13272WAT      O40057   6.441   6.816   7.524
13272WAT     H140058   6.371   6.750   7.550
13272WAT     H240059   6.416   6.859   7.437
13273WAT      O40060   1.200   5.990   9.741
13273WAT     H140061   1.184   5.967   9.837
13273WAT     H240062   1.117   5.968   9.688
13274WAT      O40063   6.812   5.345   6.618
13274WAT     H140064   6.896   5.391   6.589
13274WAT     H240065   6.795   5.267   6.557
13275WAT      O40066   1.231   8.074   2.606
13275WAT     H140067   1.235   8.093   2.508
13275WAT     H240068   1.137   8.083   2.639
13276WAT      O40069   7.450   8.801   9.500
13276WAT     H140070   7.540   8.763   9.481
13276WAT     H240071   7.430   8.794   9.598
13277WAT      O40072   1.522   2.717   4.287
13277WAT     H140073   1.440   2.760   4.250
13277WAT     H240074   1.590   2.788   4.307
13278WAT      O40075   1.044   7.584   6.111
13278WAT     H140076   1.039   7.620   6.204
13278WAT     H240077   0.952   7.560   6.080
13279WAT      O40078   1.962   3.360   0.460
13279WAT     H140079   2.004   3.315   0.381
13279WAT     H240080   2.032   3.384   0.527
13280WAT      O40081   9.504   1.907   6.767
13280WAT     H140082   9.497   1.932   6.864
13280WAT     H240083   9.488   1.809   6.756
13281WAT      O40084   8.109   0.763   2.500
13281WAT     H140085   8.195   0.717   2.519
13281WAT     H240086   8.127   0.852   2.458
13282WAT      O40087   6.108   2.498   3.962
13282WAT     H140088   6.066   2.562   3.898
13282WAT     H240089   6.189   2.539   4.003
13283WAT      O40090   8.427   7.900   1.018
13283WAT     H140091   8.416   7.982   1.074
13283WAT     H240092   8.338   7.855   1.008
13284WAT      O40093   8.840   2.051   0.687
13284WAT     H140094   8.818   2.108   0.608
13284WAT     H240095   8.882   2.106   0.758
13285WAT      O40096   0.350   5.338   3.697
13285WAT     H140097   0.300   5.423   3.680
13285WAT     H240098   0.430   5.357   3.754
13286WAT      O40099   6.951   2.556   7.860
13286WAT     H140100   6.874   2.504   7.823
13286WAT     H240101   6.943   2.652   7.832
13287WAT      O40102   0.619   6.719   9.762
13287WAT     H140103   0.540   6.721   9.700
13287WAT     H240104   0.703   6.712   9.708
13288WAT      O40105   7.937   4.675   9.023
13288WAT     H140106   7.896   4.744   9.083
13288WAT     H240107   8.034   4.695   9.012
13289WAT      O40108   8.771   6.021   6.793
13289WAT     H140109   8.761   5.977   6.704
13289WAT     H240110   8.682   6.055   6.824
13290WAT      O40111   2.375   7.522   1.731
13290WAT     H140112   2.406   7.587   1.662
13290WAT     H240113   2.453   7.473   1.769
13291WAT      O40114   1.595   5.624   2.941
13291WAT     H140115   1.682   5.658   2.977
13291WAT     H240116   1.537   5.592   3.017
13292WAT      O40117   1.849   8.564   3.069
13292WAT     H140118   1.874   8.661   3.064
13292WAT     H240119   1.916   8.515   3.125
13293WAT      O40120   6.409   0.155   9.847
13293WAT     H140121   6.505   0.133   9.860
13293WAT     H240122   6.385   0.237   9.900
13294WAT      O40123   6.911   5.461   4.529
13294WAT     H140124   6.925   5.384   4.591
13294WAT     H240125   6.975   5.455   4.452
13295WAT      O40126   3.816   9.191   0.542
13295WAT     H140127   3.859   9.274   0.507
13295WAT     H240128   3.767   9.212   0.627
13296WAT      O40129   0.459   0.819   2.317
13296WAT     H140130   0.550   0.817   2.360
13296WAT     H240131   0.469   0.808   2.218
13297WAT      O40132   6.809   8.981   2.841
13297WAT     H140133   6.895   8.952   2.800
13297WAT     H240134   6.761   8.902   2.879
13298WAT      O40135   9.798   9.784   0.595
13298WAT     H140136   9.821   9.841   0.674
13298WAT     H240137   9.773   9.693   0.626
13299WAT      O40138   5.037   7.836   2.254
13299WAT     H140139   5.134   7.813   2.265
13299WAT     H240140   4.991   7.827   2.342
13300WAT      O40141   9.145   9.742   3.909
13300WAT     H140142   9.117   9.697   3.993
13300WAT     H240143   9.123   9.839   3.914
13301WAT      O40144   6.796   6.301   4.919
13301WAT     H140145   6.700   6.295   4.947
13301WAT     H240146   6.847   6.226   4.961
13302WAT      O40147   9.345   4.662   0.333
13302WAT     H140148   9.415   4.641   0.401
13302WAT     H240149   9.350   4.596   0.258
13303WAT      O40150   7.295   7.060   8.573
13303WAT     H140151   7.225   7.077   8.643
13303WAT     H240152   7.256   7.003   8.500
13304WAT      O40153   3.651   9.782   9.036
13304WAT     H140154   3.644   9.738   8.947
13304WAT     H240155   3.569   9.838   9.052
13305WAT      O40156   8.081   4.803   2.432
13305WAT     H140157   8.135   4.735   2.381
13305WAT     H240158   8.143   4.861   2.485
13306WAT      O40159   9.220   1.519   5.403
13306WAT     H140160   9.239   1.426   5.434
13306WAT     H240161   9.169   1.568   5.474
13307WAT      O40162   1.810   8.561   0.728
13307WAT     H140163   1.862   8.596   0.650
13307WAT     H240164   1.872   8.530   0.799
13308WAT      O40165   4.047   3.230   3.563
13308WAT     H140166   4.098   3.307   3.526
13308WAT     H240167   3.951   3.239   3.537
13309WAT      O40168   6.978   2.834   7.285
13309WAT     H140169   6.998   2.776   7.206
13309WAT     H240170   6.891   2.806   7.326
13310WAT      O40171   7.578   6.351   7.527
13310WAT     H140172   7.537   6.437   7.496
13310WAT     H240173   7.614   6.362   7.619
13311WAT      O40174   0.434   1.954   7.679
13311WAT     H140175   0.514   1.907   7.715
13311WAT     H240176   0.351   1.905   7.707
13312WAT      O40177   0.773   6.941   7.087
13312WAT     H140178   0.796   7.022   7.141
13312WAT     H240179   0.675   6.924   7.091
13313WAT      O40180   8.349   8.444   0.152
13313WAT     H140181   8.269   8.391   0.180
13313WAT     H240182   8.348   8.456   0.053
13314WAT      O40183   8.834   3.347   2.153
13314WAT     H140184   8.799   3.364   2.245
13314WAT     H240185   8.877   3.430   2.118
13315WAT      O40186   0.394   7.287   7.628
13315WAT     H140187   0.432   7.380   7.626
13315WAT     H240188   0.316   7.286   7.690
13316WAT      O40189   6.567   6.246   5.125
13316WAT     H140190   6.542   6.154   5.095
13316WAT     H240191   6.658   6.244   5.167
13317WAT      O40192   1.744   6.939   5.946
13317WAT     H140193   1.745   7.024   5.998
13317WAT     H240194   1.838   6.908   5.931
13318WAT      O40195   3.778   8.688   9.003
13318WAT     H140196   3.782   8.785   9.028
13318WAT     H240197   3.812   8.632   9.079
13319WAT      O40198   9.026   2.431   4.953
13319WAT     H140199   8.961   2.502   4.926
13319WAT     H240200   8.977   2.358   5.000
13320WAT      O40201   3.994   6.894   1.482
13320WAT     H140202   3.992   6.949   1.566
13320WAT     H240203   3.986   6.954   1.403
13321WAT      O40204   9.512   8.480   5.929
13321WAT     H140205   9.556   8.562   5.967
13321WAT     H240206   9.416   8.500   5.909
13322WAT      O40207   2.371   1.455   8.567
13322WAT     H140208   2.403   1.488   8.656
13322WAT     H240209   2.281   1.494   8.548
13323WAT      O40210   1.471   1.402   4.959
13323WAT     H140211   1.501   1.446   5.044
13323WAT     H240212   1.440   1.309   4.980
13324WAT      O40213   3.438   5.730   3.816
13324WAT     H140214   3.537   5.724   3.803
13324WAT     H240215   3.398   5.787   3.746
13325WAT      O40216   3.215   6.352   5.603
13325WAT     H140217   3.142   6.283   5.602
13325WAT     H240218   3.265   6.349   5.517
13326WAT      O40219   2.411   3.153   6.641
13326WAT     H140220   2.352   3.212   6.696
13326WAT     H240221   2.418   3.063   6.684
13327WAT      O40222   2.288   3.504   9.272
13327WAT     H140223   2.245   3.436   9.331
13327WAT     H240224   2.381   3.522   9.304
13328WAT      O40225   2.605   9.146   3.518
13328WAT     H140226   2.568   9.160   3.427
13328WAT     H240227   2.575   9.057   3.553
13329WAT      O40228   6.916   8.415   5.497
13329WAT     H140229   6.873   8.360   5.425
13329WAT     H240230   7.012   8.432   5.473
13330WAT      O40231   8.255   6.908   1.488
13330WAT     H140232   8.202   6.976   1.437
13330WAT     H240233   8.274   6.830   1.430
13331WAT      O40234   3.388   7.558   1.984
13331WAT     H140235   3.383   7.580   1.886
13331WAT     H240236   3.299   7.523   2.015
13332WAT      O40237   1.620   1.162   1.240
13332WAT     H140238   1.607   1.261   1.247
13332WAT     H240239   1.704   1.136   1.288
13333WAT      O40240   8.115   4.272   9.847
13333WAT     H140241   8.174   4.352   9.839
13333WAT     H240242   8.157   4.207   9.911
13334WAT      O40243   2.729   6.247   3.070
13334WAT     H140244   2.828   6.252   3.085
13334WAT     H240245   2.707   6.284   2.980
13335WAT      O40246   9.751   4.106   9.550
13335WAT     H140247   9.842   4.078   9.518
13335WAT     H240248   9.694   4.025   9.563
13336WAT      O40249   0.985   3.473   0.438
13336WAT     H140250   0.896   3.517   0.453
13336WAT     H240251   1.057   3.532   0.473
13337WAT      O40252   5.919   3.058   4.133
13337WAT     H140253   5.870   3.070   4.047
13337WAT     H240254   5.903   2.966   4.169
13338WAT      O40255   9.005   4.780   9.259
13338WAT     H140256   9.038   4.784   9.353
13338WAT     H240257   8.934   4.710   9.252
13339WAT      O40258   1.877   5.464   7.883
13339WAT     H140259   1.779   5.475   7.901
13339WAT     H240260   1.921   5.553   7.887
13340WAT      O40261   0.645   7.086   6.695
13340WAT     H140262   0.708   7.084   6.773
13340WAT     H240263   0.689   7.044   6.615
13341WAT      O40264   6.945   8.787   3.093
13341WAT     H140265   6.981   8.880   3.104
13341WAT     H240266   6.871   8.788   3.025
13342WAT      O40267   5.256   6.655   5.835
13342WAT     H140268   5.180   6.658   5.900
13342WAT     H240269   5.322   6.727   5.858
13343WAT      O40270   6.486   1.854   9.637
13343WAT     H140271   6.498   1.936   9.692
13343WAT     H240272   6.390   1.845   9.611
13344WAT      O40273   2.467   1.008   6.897
13344WAT     H140274   2.512   1.000   6.986
13344WAT     H240275   2.388   0.947   6.893
13345WAT      O40276   4.388   1.480   1.304
13345WAT     H140277   4.355   1.386   1.308
13345WAT     H240278   4.310   1.543   1.301
13346WAT      O40279   9.506   5.581   1.360
13346WAT     H140280   9.494   5.482   1.373
13346WAT     H240281   9.601   5.605   1.379
13347WAT      O40282   8.037   2.379   3.767
13347WAT     H140283   8.019   2.362   3.864
13347WAT     H240284   8.053   2.292   3.721
13348WAT      O40285   3.992   8.162   3.817
13348WAT     H140286   3.954   8.179   3.726
13348WAT     H240287   4.037   8.072   3.818
13349WAT      O40288   8.141   8.883   8.408
13349WAT     H140289   8.217   8.907   8.468
13349WAT     H240290   8.130   8.783   8.407
13350WAT      O40291   6.773   0.827   0.043
13350WAT     H140292   6.849   0.890   0.028
13350WAT     H240293   6.808   0.733   0.045
13351WAT      O40294   7.938   5.324   0.233
13351WAT     H140295   7.978   5.360   0.149
13351WAT     H240296   7.856   5.376   0.257
13352WAT      O40297   3.549   8.721   2.945
13352WAT     H140298   3.481   8.664   2.992
13352WAT     H240299   3.589   8.785   3.010
13353WAT      O40300   8.133   7.983   6.604
13353WAT     H140301   8.150   8.081   6.601
13353WAT     H240302   8.043   7.966   6.644
13354WAT      O40303   4.974   5.821   0.744
13354WAT     H140304   4.931   5.845   0.831
13354WAT     H240305   4.915   5.759   0.693
13355WAT      O40306   8.641   4.402   6.494
13355WAT     H140307   8.661   4.492   6.531
13355WAT     H240308   8.558   4.407   6.439
13356WAT      O40309   4.871   3.301   9.185
13356WAT     H140310   4.944   3.369   9.189
13356WAT     H240311   4.902   3.217   9.229
13357WAT      O40312   2.247   5.060   5.130
13357WAT     H140313   2.177   5.020   5.070
13357WAT     H240314   2.335   5.061   5.082
13358WAT      O40315   7.775   3.566   1.056
13358WAT     H140316   7.695   3.528   1.103
13358WAT     H240317   7.824   3.628   1.117
13359WAT      O40318   0.585   2.205   2.485
13359WAT     H140319   0.677   2.238   2.467
13359WAT     H240320   0.553   2.151   2.407
13360WAT      O40321   0.053   4.943   1.957
13360WAT     H140322  -0.016   4.913   1.890
13360WAT     H240323   0.017   5.020   2.009
13361WAT      O40324   5.956   1.786   1.583
13361WAT     H140325   5.864   1.825   1.589
13361WAT     H240326   5.990   1.796   1.490
13362WAT      O40327   2.722   5.756   0.372
13362WAT     H140328   2.787   5.690   0.332
13362WAT     H240329   2.706   5.830   0.308
13363WAT      O40330   8.575   0.991   8.961
13363WAT     H140331   8.645   1.002   9.032
13363WAT     H240332   8.603   0.920   8.897
13364WAT      O40333   5.858   1.891   0.058
13364WAT     H140334   5.769   1.931   0.080
13364WAT     H240335   5.905   1.949  -0.008
13365WAT      O40336   9.416   8.230   7.024
13365WAT     H140337   9.408   8.290   6.944
13365WAT     H240338   9.326   8.219   7.066
13366WAT      O40339   6.912   9.170   2.357
13366WAT     H140340   6.964   9.254   2.348
13366WAT     H240341   6.825   9.189   2.402
13367WAT      O40342   8.367   4.601   8.692
13367WAT     H140343   8.428   4.526   8.664
13367WAT     H240344   8.275   4.565   8.705
13368WAT      O40345   3.297   7.789   3.827
13368WAT     H140346   3.395   7.804   3.808
13368WAT     H240347   3.258   7.734   3.754
13369WAT      O40348   4.054   8.351   7.838
13369WAT     H140349   3.973   8.331   7.894
13369WAT     H240350   4.049   8.445   7.803
13370WAT      O40351   8.454   5.650   7.133
13370WAT     H140352   8.368   5.616   7.172
13370WAT     H240353   8.480   5.735   7.179
13371WAT      O40354   7.832   9.495   7.828
13371WAT     H140355   7.781   9.498   7.914
13371WAT     H240356   7.926   9.467   7.846
13372WAT      O40357   4.424   5.551   1.645
13372WAT     H140358   4.401   5.491   1.568
13372WAT     H240359   4.429   5.497   1.729
13373WAT      O40360   5.397   9.381   2.475
13373WAT     H140361   5.325   9.336   2.422
13373WAT     H240362   5.470   9.411   2.414
13374WAT      O40363   2.695   1.789   7.635
13374WAT     H140364   2.699   1.885   7.610
13374WAT     H240365   2.733   1.734   7.561
13375WAT      O40366   5.905   4.852   3.091
13375WAT     H140367   5.918   4.926   3.025
13375WAT     H240368   5.984   4.790   3.088
13376WAT      O40369   0.539   5.160   6.362
13376WAT     H140370   0.543   5.071   6.318
13376WAT     H240371   0.597   5.160   6.444
13377WAT      O40372   8.650   7.405   2.674
13377WAT     H140373   8.671   7.495   2.636
13377WAT     H240374   8.552   7.399   2.694
13378WAT      O40375   4.941   3.174   2.161
13378WAT     H140376   4.931   3.274   2.163
13378WAT     H240377   4.882   3.134   2.232
13379WAT      O40378   6.194   3.609   5.690
13379WAT     H140379   6.102   3.591   5.656
13379WAT     H240380   6.260   3.558   5.635
13380WAT      O40381   4.071   5.311   0.188
13380WAT     H140382   4.002   5.259   0.238
13380WAT     H240383   4.125   5.249   0.131
13381WAT      O40384   2.740   2.575   3.104
13381WAT     H140385   2.746   2.532   3.195
13381WAT     H240386   2.738   2.504   3.034
13382WAT      O40387   0.934   7.020   9.712
13382WAT     H140388   0.875   7.026   9.632
13382WAT     H240389   0.881   7.041   9.794
13383WAT      O40390   2.381   1.062   2.647
13383WAT     H140391   2.324   0.981   2.661
13383WAT     H240392   2.409   1.067   2.551
13384WAT      O40393   6.953   0.919   2.800
13384WAT     H140394   6.980   0.899   2.706
13384WAT     H240395   6.865   0.968   2.799
13385WAT      O40396   1.588   1.342   0.596
13385WAT     H140397   1.673   1.290   0.600
13385WAT     H240398   1.540   1.321   0.510
13386WAT      O40399   0.631  -0.001   3.095
13386WAT     H140400   0.533  -0.015   3.110
13386WAT     H240401   0.651   0.097   3.091
13387WAT      O40402   5.709   3.433   2.671
13387WAT     H140403   5.686   3.523   2.707
13387WAT     H240404   5.804   3.411   2.691
13388WAT      O40405   5.321   6.870   1.086
13388WAT     H140406   5.271   6.956   1.090
13388WAT     H240407   5.260   6.798   1.051
13389WAT      O40408   3.133   4.349   3.336
13389WAT     H140409   3.099   4.320   3.246
13389WAT     H240410   3.057   4.384   3.391
13390WAT      O40411   0.157   8.351   4.916
13390WAT     H140412   0.237   8.409   4.900
13390WAT     H240413   0.164   8.268   4.861
13391WAT      O40414   5.086   6.658   1.378
13391WAT     H140415   5.099   6.754   1.405
13391WAT     H240416   5.017   6.653   1.306
13392WAT      O40417   0.206   2.882   5.396
13392WAT     H140418   0.228   2.979   5.407
13392WAT     H240419   0.190   2.862   5.299
13393WAT      O40420   8.602   5.444   7.579
13393WAT     H140421   8.579   5.363   7.525
13393WAT     H240422   8.698   5.468   7.564
13394WAT      O40423   5.490   1.220   1.217
13394WAT     H140424   5.556   1.291   1.240
13394WAT     H240425   5.398   1.258   1.219
13395WAT      O40426   9.521   2.464   2.412
13395WAT     H140427   9.480   2.529   2.476
13395WAT     H240428   9.481   2.373   2.426
13396WAT      O40429   3.113   2.309   5.719
13396WAT     H140430   3.024   2.281   5.684
13396WAT     H240431   3.124   2.408   5.707
13397WAT      O40432   7.218   3.217   8.230
13397WAT     H140433   7.266   3.189   8.313
13397WAT     H240434   7.144   3.280   8.254
13398WAT      O40435   3.523   5.434   5.574
13398WAT     H140436   3.494   5.472   5.487
13398WAT     H240437   3.603   5.484   5.607
13399WAT      O40438   6.575   9.563   8.503
13399WAT     H140439   6.520   9.481   8.492
13399WAT     H240440   6.567   9.597   8.597
13400WAT      O40441   2.986   4.777   0.322
13400WAT     H140442   2.901   4.743   0.282
13400WAT     H240443   2.964   4.838   0.399
13401WAT      O40444   9.279   1.944   7.488
13401WAT     H140445   9.196   1.986   7.527
13401WAT     H240446   9.278   1.846   7.505
13402WAT      O40447   7.342   0.361   1.151
13402WAT     H140448   7.413   0.359   1.081
13402WAT     H240449   7.300   0.451   1.154
13403WAT      O40450   7.463   1.827   1.194
13403WAT     H140451   7.505   1.737   1.183
13403WAT     H240452   7.452   1.847   1.292
13404WAT      O40453   7.643   0.549   6.279
13404WAT     H140454   7.693   0.600   6.349
13404WAT     H240455   7.586   0.612   6.226
13405WAT      O40456   2.484   3.132   7.611
13405WAT     H140457   2.463   3.199   7.540
13405WAT     H240458   2.553   3.170   7.673
13406WAT      O40459   6.513   1.901   4.919
13406WAT     H140460   6.567   1.836   4.971
13406WAT     H240461   6.565   1.985   4.905
13407WAT      O40462   5.355   8.542   0.621
13407WAT     H140463   5.300   8.522   0.541
13407WAT     H240464   5.452   8.529   0.599
13408WAT      O40465   5.212   7.140   8.386
13408WAT     H140466   5.282   7.081   8.425
13408WAT     H240467   5.153   7.086   8.326
13409WAT      O40468   5.812   4.141   3.534
13409WAT     H140469   5.722   4.146   3.578
13409WAT     H240470   5.834   4.229   3.492
13410WAT      O40471   0.201   5.371   5.895
13410WAT     H140472   0.265   5.351   5.820
13410WAT     H240473   0.225   5.459   5.937
13411WAT      O40474   1.673   5.393   8.627
13411WAT     H140475   1.613   5.313   8.635
13411WAT     H240476   1.756   5.368   8.578
13412WAT      O40477   8.902   0.037   9.307
13412WAT     H140478   8.938   0.128   9.327
13412WAT     H240479   8.860  -0.001   9.390
13413WAT      O40480   7.093   9.722   4.538
13413WAT     H140481   7.176   9.770   4.509
13413WAT     H240482   7.013   9.779   4.519
13414WAT      O40483   7.666   9.445   4.278
13414WAT     H140484   7.582   9.398   4.306
13414WAT     H240485   7.743   9.380   4.279
13415WAT      O40486   6.169   8.880   4.532
13415WAT     H140487   6.072   8.864   4.514
13415WAT     H240488   6.178   8.949   4.604
13416WAT      O40489   0.025   0.444   6.891
13416WAT     H140490  -0.050   0.496   6.851
13416WAT     H240491   0.008   0.346   6.880
13417WAT      O40492   0.305   2.943   6.520
13417WAT     H140493   0.383   2.980   6.569
13417WAT     H240494   0.231   3.010   6.520
13418WAT      O40495   8.607   5.782   0.652
13418WAT     H140496   8.547   5.744   0.722
13418WAT     H240497   8.552   5.832   0.585
13419WAT      O40498   6.508   4.303   1.601
13419WAT     H140499   6.543   4.229   1.543
13419WAT     H240500   6.440   4.266   1.665
13420WAT      O40501   2.887   2.992   8.576
13420WAT     H140502   2.818   3.001   8.504
13420WAT     H240503   2.955   3.064   8.565
13421WAT      O40504   2.947   8.988   8.470
13421WAT     H140505   2.976   8.969   8.376
13421WAT     H240506   2.949   8.903   8.523
13422WAT      O40507   7.901   3.915   4.705
13422WAT     H140508   7.915   3.830   4.756
13422WAT     H240509   7.807   3.918   4.671
13423WAT      O40510   6.848   8.048   8.261
13423WAT     H140511   6.779   8.084   8.198
13423WAT     H240512   6.845   8.100   8.347
13424WAT      O40513   1.289   1.582   9.257
13424WAT     H140514   1.277   1.622   9.167
13424WAT     H240515   1.201   1.576   9.303
13425WAT      O40516   6.736   7.436   5.465
13425WAT     H140517   6.642   7.405   5.448
13425WAT     H240518   6.794   7.358   5.486
13426WAT      O40519   9.786   1.544   5.145
13426WAT     H140520   9.729   1.481   5.092
13426WAT     H240521   9.822   1.497   5.225
13427WAT      O40522   8.684   9.295   1.339
13427WAT     H140523   8.703   9.247   1.425
13427WAT     H240524   8.767   9.296   1.283
13428WAT      O40525   6.784   1.553   0.146
13428WAT     H140526   6.834   1.588   0.067
13428WAT     H240527   6.813   1.603   0.228
13429WAT      O40528   9.383   3.918   8.287
13429WAT     H140529   9.378   3.905   8.188
13429WAT     H240530   9.291   3.913   8.326
13430WAT      O40531   4.282   9.237   9.692
13430WAT     H140532   4.320   9.145   9.689
13430WAT     H240533   4.347   9.298   9.737
13431WAT      O40534   2.683   1.571   6.227
13431WAT     H140535   2.725   1.651   6.268
13431WAT     H240536   2.670   1.501   6.297
13432WAT      O40537   6.984   9.398   8.558
13432WAT     H140538   6.937   9.428   8.641
13432WAT     H240539   7.058   9.462   8.536
13433WAT      O40540   0.994   7.545   0.811
13433WAT     H140541   1.045   7.611   0.756
13433WAT     H240542   0.972   7.584   0.900
13434WAT      O40543   7.439   9.660   2.512
13434WAT     H140544   7.340   9.674   2.510
13434WAT     H240545   7.476   9.695   2.598
13435WAT      O40546   3.450   0.564   2.882
13435WAT     H140547   3.528   0.577   2.943
13435WAT     H240548   3.457   0.628   2.806
13436WAT      O40549   1.076   8.835   8.995
13436WAT     H140550   1.123   8.872   9.076
13436WAT     H240551   0.990   8.883   8.982
13437WAT      O40552   8.882   1.825   3.337
13437WAT     H140553   8.963   1.768   3.351
13437WAT     H240554   8.906   1.921   3.350
13438WAT      O40555   4.989   1.735   7.327
13438WAT     H140556   4.934   1.753   7.408
13438WAT     H240557   5.023   1.822   7.291
13439WAT      O40558   3.057   5.946   1.077
13439WAT     H140559   3.119   5.973   1.004
13439WAT     H240560   3.025   6.027   1.126
13440WAT      O40561   9.390   2.662   8.621
13440WAT     H140562   9.357   2.573   8.588
13440WAT     H240563   9.487   2.672   8.598
13441WAT      O40564   6.840   2.452   8.782
13441WAT     H140565   6.893   2.461   8.866
13441WAT     H240566   6.887   2.391   8.719
13442WAT      O40567   8.388   7.310   0.507
13442WAT     H140568   8.303   7.347   0.546
13442WAT     H240569   8.433   7.252   0.575
13443WAT      O40570   4.934   1.362   2.791
13443WAT     H140571   4.982   1.422   2.855
13443WAT     H240572   4.964   1.267   2.807
13444WAT      O40573   0.606   8.754   9.531
13444WAT     H140574   0.647   8.757   9.622
13444WAT     H240575   0.518   8.800   9.533
13445WAT      O40576   0.709   8.059   7.259
13445WAT     H140577   0.642   8.009   7.315
13445WAT     H240578   0.801   8.038   7.291
13446WAT      O40579   4.607   2.844   9.295
13446WAT     H140580   4.653   2.825   9.382
13446WAT     H240581   4.674   2.845   9.221
13447WAT      O40582   2.128   1.285   1.942
13447WAT     H140583   2.092   1.373   1.911
13447WAT     H240584   2.114   1.275   2.040
13448WAT      O40585   1.608   6.790   6.124
13448WAT     H140586   1.622   6.875   6.073
13448WAT     H240587   1.697   6.753   6.151
13449WAT      O40588   9.876   9.143   3.419
13449WAT     H140589   9.931   9.210   3.469
13449WAT     H240590   9.782   9.145   3.453
13450WAT      O40591   8.489   3.499   7.377
13450WAT     H140592   8.492   3.432   7.303
13450WAT     H240593   8.487   3.591   7.338
13451WAT      O40594   6.443   9.214   0.561
13451WAT     H140595   6.473   9.206   0.656
13451WAT     H240596   6.521   9.238   0.503
13452WAT      O40597   6.531   4.671   8.836
13452WAT     H140598   6.557   4.709   8.748
13452WAT     H240599   6.523   4.572   8.829
13453WAT      O40600   9.536   4.458   6.804
13453WAT     H140601   9.508   4.548   6.772
13453WAT     H240602   9.635   4.450   6.799
13454WAT      O40603   0.016   7.733   4.704
13454WAT     H140604   0.089   7.724   4.772
13454WAT     H240605   0.033   7.670   4.628
13455WAT      O40606   2.801   9.593   9.220
13455WAT     H140607   2.898   9.588   9.197
13455WAT     H240608   2.747   9.591   9.136
13456WAT      O40609   4.838   6.231   7.659
13456WAT     H140610   4.817   6.179   7.576
13456WAT     H240611   4.766   6.217   7.727
13457WAT      O40612   3.420   2.610   0.450
13457WAT     H140613   3.390   2.702   0.424
13457WAT     H240614   3.342   2.548   0.453
13458WAT      O40615   2.731   6.812   9.610
13458WAT     H140616   2.635   6.787   9.595
13458WAT     H240617   2.740   6.859   9.698
13459WAT      O40618   3.164   0.499   7.398
13459WAT     H140619   3.122   0.410   7.380
13459WAT     H240620   3.238   0.489   7.464
13460WAT      O40621   9.326   2.398   5.577
13460WAT     H140622   9.344   2.304   5.547
13460WAT     H240623   9.258   2.397   5.651
13461WAT      O40624   9.499   5.346   7.704
13461WAT     H140625   9.507   5.282   7.627
13461WAT     H240626   9.566   5.323   7.774
13462WAT      O40627   2.699   6.972   9.825
13462WAT     H140628   2.602   6.990   9.840
13462WAT     H240629   2.744   7.057   9.798
13463WAT      O40630   6.069   1.645   9.568
13463WAT     H140631   6.113   1.560   9.597
13463WAT     H240632   6.004   1.674   9.638
13464WAT      O40633   2.634   0.891   3.077
13464WAT     H140634   2.550   0.897   3.022
13464WAT     H240635   2.710   0.862   3.018
13465WAT      O40636   9.330   8.678   1.036
13465WAT     H140637   9.425   8.702   1.058
13465WAT     H240638   9.325   8.580   1.016
13466WAT      O40639   8.020   3.727   1.060
13466WAT     H140640   8.109   3.687   1.036
13466WAT     H240641   7.972   3.753   0.977
13467WAT      O40642   8.861   8.581   1.791
13467WAT     H140643   8.852   8.531   1.705
13467WAT     H240644   8.958   8.591   1.815
13468WAT      O40645   6.138   5.766   3.837
13468WAT     H140646   6.171   5.860   3.826
13468WAT     H240647   6.202   5.715   3.894
13469WAT      O40648   8.466   1.919   3.192
13469WAT     H140649   8.443   2.010   3.158
13469WAT     H240650   8.395   1.854   3.167
13470WAT      O40651   4.547   6.281   4.851
13470WAT     H140652   4.465   6.254   4.800
13470WAT     H240653   4.577   6.204   4.908
13471WAT      O40654   1.861   8.778   2.340
13471WAT     H140655   1.902   8.849   2.283
13471WAT     H240656   1.924   8.754   2.414
13472WAT      O40657   1.630   2.803   1.792
13472WAT     H140658   1.544   2.839   1.757
13472WAT     H240659   1.668   2.866   1.860
13473WAT      O40660   1.168   7.429   4.366
13473WAT     H140661   1.135   7.516   4.404
13473WAT     H240662   1.107   7.355   4.394
13474WAT      O40663   6.284   4.388   2.570
13474WAT     H140664   6.302   4.293   2.545
13474WAT     H240665   6.185   4.400   2.584
13475WAT      O40666   3.384   3.226   0.203
13475WAT     H140667   3.320   3.150   0.214
13475WAT     H240668   3.455   3.200   0.138
13476WAT      O40669   3.049   9.811   8.464
13476WAT     H140670   3.034   9.887   8.527
13476WAT     H240671   2.965   9.759   8.454
13477WAT      O40672   4.162   6.824   0.262
13477WAT     H140673   4.167   6.725   0.244
13477WAT     H240674   4.253   6.864   0.252
13478WAT      O40675   6.929   2.429   6.345
13478WAT     H140676   6.869   2.446   6.423
13478WAT     H240677   6.962   2.516   6.308
13479WAT      O40678   1.181   9.117   0.824
13479WAT     H140679   1.212   9.069   0.906
13479WAT     H240680   1.094   9.163   0.843
13480WAT      O40681   6.569   8.231   3.398
13480WAT     H140682   6.578   8.139   3.436
13480WAT     H240683   6.506   8.284   3.455
13481WAT      O40684   3.764   6.513   3.630
13481WAT     H140685   3.687   6.512   3.694
13481WAT     H240686   3.815   6.427   3.639
13482WAT      O40687   2.729   3.254   9.384
13482WAT     H140688   2.769   3.319   9.448
13482WAT     H240689   2.630   3.246   9.402
13483WAT      O40690   2.016   7.813   8.868
13483WAT     H140691   1.923   7.813   8.832
13483WAT     H240692   2.076   7.761   8.807
13484WAT      O40693   8.982   7.396   7.791
13484WAT     H140694   9.035   7.313   7.771
13484WAT     H240695   8.972   7.449   7.707
13485WAT      O40696   5.662   2.778   7.287
13485WAT     H140697   5.600   2.831   7.345
13485WAT     H240698   5.751   2.770   7.331
13486WAT      O40699   1.307   4.902   4.462
13486WAT     H140700   1.236   4.942   4.520
13486WAT     H240701   1.396   4.940   4.486
13487WAT      O40702   8.593   7.650   5.126
13487WAT     H140703   8.648   7.629   5.046
13487WAT     H240704   8.630   7.602   5.206
13488WAT      O40705   2.244   0.997   3.415
13488WAT     H140706   2.161   1.031   3.372
13488WAT     H240707   2.229   0.904   3.448
13489WAT      O40708   4.694   0.985   1.036
13489WAT     H140709   4.658   1.039   1.112
13489WAT     H240710   4.631   0.909   1.016
13490WAT      O40711   2.340   5.304   0.703
13490WAT     H140712   2.334   5.320   0.604
13490WAT     H240713   2.432   5.327   0.735
13491WAT      O40714   8.961   2.300   6.483
13491WAT     H140715   8.987   2.292   6.580
13491WAT     H240716   9.031   2.351   6.434
13492WAT      O40717   7.965   0.950   0.090
13492WAT     H140718   7.871   0.982   0.081
13492WAT     H240719   7.990   0.948   0.187
13493WAT      O40720   8.773   3.731   1.394
13493WAT     H140721   8.705   3.677   1.345
13493WAT     H240722   8.863   3.715   1.354
13494WAT      O40723   0.825   4.263   3.470
13494WAT     H140724   0.742   4.267   3.527
13494WAT     H240725   0.839   4.351   3.426
13495WAT      O40726   8.860   7.849   2.014
13495WAT     H140727   8.873   7.817   1.920
13495WAT     H240728   8.797   7.788   2.062
13496WAT      O40729   8.612   3.200   5.344
13496WAT     H140730   8.712   3.201   5.357
13496WAT     H240731   8.580   3.291   5.321
13497WAT      O40732   8.582   4.160   7.112
13497WAT     H140733   8.490   4.180   7.078
13497WAT     H240734   8.606   4.066   7.089
13498WAT      O40735   5.702   1.914   6.296
13498WAT     H140736   5.710   1.900   6.197
13498WAT     H240737   5.671   1.829   6.339
13499WAT      O40738   2.586   3.603   9.665
13499WAT     H140739   2.653   3.678   9.669
13499WAT     H240740   2.511   3.628   9.604
13500WAT      O40741   2.132   2.266   7.237
13500WAT     H140742   2.042   2.227   7.218
13500WAT     H240743   2.125   2.337   7.307
13501WAT      O40744   1.827   6.519   2.022
13501WAT     H140745   1.800   6.434   2.068
13501WAT     H240746   1.745   6.571   1.997
13502WAT      O40747   9.749   0.267   0.359
13502WAT     H140748   9.707   0.244   0.447
13502WAT     H240749   9.764   0.366   0.355
13503WAT      O40750   1.547   6.347   3.478
13503WAT     H140751   1.479   6.275   3.491
13503WAT     H240752   1.562   6.360   3.380
13504WAT      O40753   9.761   3.643   6.154
13504WAT     H140754   9.674   3.685   6.131
13504WAT     H240755   9.800   3.601   6.072
13505WAT      O40756   0.765   2.894   4.960
13505WAT     H140757   0.670   2.897   4.993
13505WAT     H240758   0.819   2.833   5.019
13506WAT      O40759   8.594   2.730   6.791
13506WAT     H140760   8.593   2.830   6.783
13506WAT     H240761   8.574   2.704   6.885
13507WAT      O40762   0.454   2.610   9.385
13507WAT     H140763   0.398   2.527   9.376
13507WAT     H240764   0.492   2.614   9.478
13508WAT      O40765   1.387   9.263   9.182
13508WAT     H140766   1.310   9.313   9.142
13508WAT     H240767   1.407   9.182   9.126
13509WAT      O40768   5.007   8.501   6.793
13509WAT     H140769   4.948   8.433   6.836
13509WAT     H240770   5.018   8.479   6.696
13510WAT      O40771   0.215   2.511   8.152
13510WAT     H140772   0.263   2.550   8.230
13510WAT     H240773   0.250   2.552   8.067
13511WAT      O40774   4.636   1.535   2.996
13511WAT     H140775   4.621   1.595   3.074
13511WAT     H240776   4.566   1.553   2.927
13512WAT      O40777   6.732   5.807   9.262
13512WAT     H140778   6.778   5.829   9.175
13512WAT     H240779   6.787   5.742   9.313
13513WAT      O40780   8.408   8.186   2.050
13513WAT     H140781   8.368   8.271   2.016
13513WAT     H240782   8.425   8.194   2.148
13514WAT      O40783   6.809   8.426   3.374
13514WAT     H140784   6.797   8.516   3.416
13514WAT     H240785   6.727   8.370   3.391
13515WAT      O40786   5.831   4.053   0.742
13515WAT     H140787   5.751   4.112   0.753
13515WAT     H240788   5.823   3.975   0.803
13516WAT      O40789   6.524   1.726   7.517
13516WAT     H140790   6.540   1.628   7.502
13516WAT     H240791   6.574   1.755   7.599
13517WAT      O40792   5.376   2.541   2.351
13517WAT     H140793   5.427   2.523   2.267
13517WAT     H240794   5.287   2.496   2.348
13518WAT      O40795   3.305   2.446   4.750
13518WAT     H140796   3.206   2.449   4.767
13518WAT     H240797   3.354   2.457   4.837
13519WAT      O40798   8.873   7.107   3.363
13519WAT     H140799   8.774   7.090   3.359
13519WAT     H240800   8.918   7.029   3.408
13520WAT      O40801   6.683   9.234   2.471
13520WAT     H140802   6.691   9.305   2.540
13520WAT     H240803   6.620   9.264   2.399
13521WAT      O40804   0.005   7.380   1.079
13521WAT     H140805  -0.025   7.440   1.153
13521WAT     H240806  -0.060   7.383   1.004
13522WAT      O40807   0.241   4.709   7.907
13522WAT     H140808   0.249   4.790   7.849
13522WAT     H240809   0.219   4.737   8.000
13523WAT      O40810   1.592   0.428   7.195
13523WAT     H140811   1.568   0.388   7.283
13523WAT     H240812   1.579   0.361   7.122
13524WAT      O40813   6.751   3.784   3.695
13524WAT     H140814   6.676   3.837   3.732
13524WAT     H240815   6.816   3.845   3.650
13525WAT      O40816   9.367   7.778   2.701
13525WAT     H140817   9.419   7.695   2.723
13525WAT     H240818   9.305   7.759   2.624
13526WAT      O40819   0.226   0.378   8.224
13526WAT     H140820   0.183   0.371   8.314
13526WAT     H240821   0.274   0.465   8.217
13527WAT      O40822   9.256   8.486   7.506
13527WAT     H140823   9.260   8.402   7.559
13527WAT     H240824   9.264   8.565   7.567
13528WAT      O40825   6.293   1.943   5.948
13528WAT     H140826   6.273   1.923   5.852
13528WAT     H240827   6.252   1.872   6.005
13529WAT      O40828   1.454   6.345   5.493
13529WAT     H140829   1.396   6.394   5.559
13529WAT     H240830   1.395   6.292   5.431
13530WAT      O40831   5.793   4.177   1.014
13530WAT     H140832   5.752   4.151   1.101
13530WAT     H240833   5.857   4.253   1.029
13531WAT      O40834   0.413   5.067   2.802
13531WAT     H140835   0.339   5.114   2.849
13531WAT     H240836   0.486   5.045   2.866
13532WAT      O40837   8.920   8.896   9.335
13532WAT     H140838   9.001   8.943   9.371
13532WAT     H240839   8.856   8.877   9.410
13533WAT      O40840   3.301   7.801   9.602
13533WAT     H140841   3.354   7.865   9.546
13533WAT     H240842   3.318   7.707   9.570
13534WAT      O40843   3.406   4.308   8.703
13534WAT     H140844   3.444   4.217   8.689
13534WAT     H240845   3.353   4.335   8.622
13535WAT      O40846   2.783   4.472   5.225
13535WAT     H140847   2.721   4.405   5.267
13535WAT     H240848   2.866   4.425   5.194
13536WAT      O40849   3.140   3.699   0.414
13536WAT     H140850   3.236   3.725   0.409
13536WAT     H240851   3.087   3.754   0.350
13537WAT      O40852   7.032   8.165   2.501
13537WAT     H140853   7.041   8.260   2.470
13537WAT     H240854   7.118   8.134   2.541
13538WAT      O40855   1.794   4.126   1.074
13538WAT     H140856   1.786   4.226   1.068
13538WAT     H240857   1.874   4.103   1.130
13539WAT      O40858   0.568   0.463   6.713
13539WAT     H140859   0.495   0.435   6.650
13539WAT     H240860   0.648   0.404   6.698
13540WAT      O40861   6.889   3.801   7.332
13540WAT     H140862   6.855   3.741   7.404
13540WAT     H240863   6.834   3.885   7.329
13541WAT      O40864   2.247   6.299   6.021
13541WAT     H140865   2.334   6.340   6.049
13541WAT     H240866   2.172   6.343   6.071
13542WAT      O40867   1.724   2.868   4.892
13542WAT     H140868   1.793   2.796   4.890
13542WAT     H240869   1.653   2.849   4.824
13543WAT      O40870   7.131   6.121   1.430
13543WAT     H140871   7.099   6.168   1.348
13543WAT     H240872   7.231   6.120   1.433
13544WAT      O40873   4.034   1.577   6.816
13544WAT     H140874   4.027   1.520   6.899
13544WAT     H240875   4.013   1.522   6.736
13545WAT      O40876   5.176   3.046   5.147
13545WAT     H140877   5.211   3.028   5.055
13545WAT     H240878   5.223   2.986   5.213
13546WAT      O40879   1.653   2.551   5.698
13546WAT     H140880   1.624   2.620   5.632
13546WAT     H240881   1.654   2.590   5.790
13547WAT      O40882   4.093   7.805   2.963
13547WAT     H140883   4.188   7.792   2.935
13547WAT     H240884   4.034   7.740   2.915
13548WAT      O40885   1.022   2.079   1.511
13548WAT     H140886   1.058   2.106   1.421
13548WAT     H240887   1.063   1.991   1.538
13549WAT      O40888   9.436   7.030   8.388
13549WAT     H140889   9.488   7.104   8.346
13549WAT     H240890   9.416   7.054   8.483
13550WAT      O40891   1.670   5.890   1.449
13550WAT     H140892   1.653   5.836   1.532
13550WAT     H240893   1.761   5.931   1.454
13551WAT      O40894   4.441   1.049   0.831
13551WAT     H140895   4.475   1.142   0.814
13551WAT     H240896   4.487   0.985   0.770
13552WAT      O40897   5.561   3.227   2.562
13552WAT     H140898   5.613   3.307   2.592
13552WAT     H240899   5.555   3.227   2.463
13553WAT      O40900   0.213   9.266   1.212
13553WAT     H140901   0.217   9.346   1.151
13553WAT     H240902   0.174   9.294   1.299
13554WAT      O40903   2.968   3.241   8.396
13554WAT     H140904   2.893   3.283   8.344
13554WAT     H240905   3.052   3.247   8.343
13555WAT      O40906   7.040   1.264   3.067
13555WAT     H140907   7.091   1.337   3.022
13555WAT     H240908   6.964   1.303   3.119
13556WAT      O40909   6.246   8.299   6.777
13556WAT     H140910   6.288   8.389   6.768
13556WAT     H240911   6.313   8.235   6.817
13557WAT      O40912   8.185   6.107   7.800
13557WAT     H140913   8.279   6.132   7.823
13557WAT     H240914   8.145   6.178   7.741
13558WAT      O40915   4.935   5.500   8.268
13558WAT     H140916   5.020   5.495   8.216
13558WAT     H240917   4.955   5.496   8.366
13559WAT      O40918   9.150   8.969   8.590
13559WAT     H140919   9.208   9.018   8.655
13559WAT     H240920   9.205   8.902   8.539
13560WAT      O40921   7.574   9.478   4.904
13560WAT     H140922   7.653   9.525   4.866
13560WAT     H240923   7.513   9.544   4.948
13561WAT      O40924   2.596   9.647   9.392
13561WAT     H140925   2.683   9.619   9.352
13561WAT     H240926   2.591   9.747   9.394
13562WAT      O40927   7.660   5.395   3.464
13562WAT     H140928   7.636   5.370   3.370
13562WAT     H240929   7.717   5.478   3.463
13563WAT      O40930   2.158   7.853   0.637
13563WAT     H140931   2.189   7.918   0.567
13563WAT     H240932   2.088   7.897   0.694
13564WAT      O40933   8.535   6.753   5.333
13564WAT     H140934   8.593   6.734   5.254
13564WAT     H240935   8.531   6.852   5.349
13565WAT      O40936   1.080   6.959   0.989
13565WAT     H140937   1.021   6.960   0.908
13565WAT     H240938   1.082   7.050   1.030
13566WAT      O40939   4.253   6.916   8.536
13566WAT     H140940   4.173   6.889   8.590
13566WAT     H240941   4.329   6.854   8.558
13567WAT      O40942   6.024   7.797   1.374
13567WAT     H140943   5.925   7.795   1.362
13567WAT     H240944   6.068   7.761   1.292
13568WAT      O40945   8.405   4.565   6.073
13568WAT     H140946   8.457   4.583   6.157
13568WAT     H240947   8.467   4.570   5.994
13569WAT      O40948   8.347   7.856   7.991
13569WAT     H140949   8.290   7.887   7.915
13569WAT     H240950   8.299   7.868   8.077
13570WAT      O40951   5.639   2.880   5.988
13570WAT     H140952   5.592   2.922   6.066
13570WAT     H240953   5.573   2.862   5.915
13571WAT      O40954   3.215   3.020   3.277
13571WAT     H140955   3.254   3.026   3.369
13571WAT     H240956   3.244   3.099   3.223
13572WAT      O40957   2.672   0.762   8.189
13572WAT     H140958   2.726   0.846   8.182
13572WAT     H240959   2.733   0.683   8.197
13573WAT      O40960   5.489   7.704   3.176
13573WAT     H140961   5.433   7.682   3.256
13573WAT     H240962   5.529   7.620   3.140
13574WAT      O40963   8.442   1.376   4.522
13574WAT     H140964   8.430   1.474   4.513
13574WAT     H240965   8.479   1.338   4.437
13575WAT      O40966   6.558   2.621   2.067
13575WAT     H140967   6.511   2.563   2.133
13575WAT     H240968   6.564   2.714   2.103
13576WAT      O40969   5.622   6.842   2.349
13576WAT     H140970   5.608   6.771   2.280
13576WAT     H240971   5.539   6.852   2.403
13577WAT      O40972   8.949   5.578   4.438
13577WAT     H140973   9.012   5.573   4.360
13577WAT     H240974   8.911   5.670   4.445
13578WAT      O40975   4.711   2.791   2.307
13578WAT     H140976   4.636   2.725   2.306
13578WAT     H240977   4.731   2.821   2.214
13579WAT      O40978   1.738   7.818   8.827
13579WAT     H140979   1.655   7.798   8.878
13579WAT     H240980   1.731   7.909   8.785
13580WAT      O40981   0.724   4.242   5.572
13580WAT     H140982   0.641   4.294   5.552
13580WAT     H240983   0.760   4.268   5.662
13581WAT      O40984   9.077   8.760   3.218
13581WAT     H140985   9.036   8.689   3.276
13581WAT     H240986   9.009   8.795   3.154
13582WAT      O40987   2.149   8.433   9.034
13582WAT     H140988   2.107   8.351   8.996
13582WAT     H240989   2.087   8.511   9.022
13583WAT      O40990   2.785   1.740   5.716
13583WAT     H140991   2.855   1.680   5.754
13583WAT     H240992   2.735   1.784   5.790
13584WAT      O40993   5.088   1.508   9.484
13584WAT     H140994   5.159   1.575   9.508
13584WAT     H240995   5.023   1.502   9.559
13585WAT      O40996   8.908   7.323   9.144
13585WAT     H140997   8.933   7.304   9.049
13585WAT     H240998   8.970   7.391   9.182
13586WAT      O40999   5.668   8.999   6.496
13586WAT     H141000   5.578   8.959   6.479
13586WAT     H241001   5.675   9.025   6.593
13587WAT      O41002   8.808   1.023   0.705
13587WAT     H141003   8.853   1.107   0.673
13587WAT     H241004   8.877   0.955   0.728
13588WAT      O41005   0.919   6.146   1.592
13588WAT     H141006   1.009   6.164   1.633
13588WAT     H241007   0.862   6.098   1.659
13589WAT      O41008   2.332   8.572   8.267
13589WAT     H141009   2.329   8.527   8.177
13589WAT     H241010   2.410   8.636   8.269
13590WAT      O41011   9.570   5.884   8.132
13590WAT     H141012   9.637   5.811   8.120
13590WAT     H241013   9.481   5.844   8.156
13591WAT      O41014   0.694   8.665   2.612
13591WAT     H141015   0.658   8.700   2.698
13591WAT     H241016   0.698   8.739   2.544
13592WAT      O41017   3.162   3.424   6.632
13592WAT     H141018   3.145   3.326   6.636
13592WAT     H241019   3.097   3.466   6.569
13593WAT      O41020   0.055   1.272   2.265
13593WAT     H141021   0.135   1.219   2.238
13593WAT     H241022   0.081   1.340   2.334
13594WAT      O41023   3.871   0.712   1.349
13594WAT     H141024   3.911   0.796   1.311
13594WAT     H241025   3.771   0.716   1.339
13595WAT      O41026   7.192   3.147   7.217
13595WAT     H141027   7.242   3.065   7.189
13595WAT     H241028   7.168   3.201   7.136
13596WAT      O41029   7.160   1.402   3.936
13596WAT     H141030   7.233   1.370   3.998
13596WAT     H241031   7.138   1.497   3.956
13597WAT      O41032   1.214   3.206   1.010
13597WAT     H141033   1.249   3.215   0.917
13597WAT     H241034   1.285   3.169   1.069
13598WAT      O41035   0.828   4.499   2.238
13598WAT     H141036   0.745   4.490   2.183
13598WAT     H241037   0.908   4.500   2.178
13599WAT      O41038   4.539   6.413   8.302
13599WAT     H141039   4.462   6.361   8.264
13599WAT     H241040   4.581   6.468   8.230
13600WAT      O41041   9.514   1.596   5.762
13600WAT     H141042   9.431   1.569   5.811
13600WAT     H241043   9.490   1.646   5.679
13601WAT      O41044   1.673   3.821   6.806
13601WAT     H141045   1.627   3.864   6.728
13601WAT     H241046   1.658   3.875   6.888
13602WAT      O41047   2.985   2.235   1.052
13602WAT     H141048   2.953   2.325   1.080
13602WAT     H241049   2.972   2.170   1.128
13603WAT      O41050   4.964   2.639   2.034
13603WAT     H141051   4.932   2.545   2.045
13603WAT     H241052   4.987   2.677   2.124
13604WAT      O41053   5.082   4.444   2.549
13604WAT     H141054   5.013   4.425   2.619
13604WAT     H241055   5.080   4.541   2.526
13605WAT      O41056   9.658   5.774   9.190
13605WAT     H141057   9.707   5.861   9.198
13605WAT     H241058   9.628   5.745   9.281
13606WAT      O41059   1.278   1.886   1.588
13606WAT     H141060   1.287   1.926   1.679
13606WAT     H241061   1.312   1.792   1.590
13607WAT      O41062   8.347   5.869   8.511
13607WAT     H141063   8.446   5.869   8.527
13607WAT     H241064   8.304   5.798   8.567
13608WAT      O41065   1.482   7.703   7.337
13608WAT     H141066   1.445   7.716   7.429
13608WAT     H241067   1.408   7.709   7.270
13609WAT      O41068   7.645   0.480   9.509
13609WAT     H141069   7.719   0.517   9.566
13609WAT     H241070   7.652   0.518   9.417
13610WAT      O41071   5.793   8.034   3.057
13610WAT     H141072   5.867   8.100   3.073
13610WAT     H241073   5.786   7.972   3.136
13611WAT      O41074   8.742   8.756   9.130
13611WAT     H141075   8.657   8.808   9.140
13611WAT     H241076   8.814   8.799   9.184
13612WAT      O41077   9.308   5.769   1.344
13612WAT     H141078   9.389   5.713   1.360
13612WAT     H241079   9.323   5.861   1.380
13613WAT      O41080   9.587   1.460   7.208
13613WAT     H141081   9.543   1.524   7.144
13613WAT     H241082   9.666   1.504   7.250
13614WAT      O41083   6.518   4.385   4.592
13614WAT     H141084   6.471   4.311   4.544
13614WAT     H241085   6.562   4.445   4.526
13615WAT      O41086   0.356   8.852   9.613
13615WAT     H141087   0.339   8.950   9.620
13615WAT     H241088   0.378   8.815   9.703
13616WAT      O41089   7.892   5.275   2.816
13616WAT     H141090   7.901   5.245   2.721
13616WAT     H241091   7.943   5.213   2.876
13617WAT      O41092   5.803   0.171   9.812
13617WAT     H141093   5.816   0.083   9.857
13617WAT     H241094   5.810   0.159   9.713
13618WAT      O41095   2.517   6.162   0.703
13618WAT     H141096   2.520   6.159   0.803
13618WAT     H241097   2.488   6.252   0.674
13619WAT      O41098   1.138   2.443   3.795
13619WAT     H141099   1.047   2.402   3.804
13619WAT     H241100   1.148   2.518   3.860
13620WAT      O41101   5.014   3.499   1.378
13620WAT     H141102   4.994   3.585   1.424
13620WAT     H241103   5.092   3.512   1.316
13621WAT      O41104   6.677   4.804   8.068
13621WAT     H141105   6.691   4.840   7.976
13621WAT     H241106   6.652   4.708   8.063
13622WAT      O41107   5.316   2.664   4.831
13622WAT     H141108   5.231   2.712   4.807
13622WAT     H241109   5.382   2.674   4.757
13623WAT      O41110   8.282   7.813   2.907
13623WAT     H141111   8.284   7.911   2.889
13623WAT     H241112   8.298   7.763   2.822
13624WAT      O41113   5.286   2.214   1.587
13624WAT     H141114   5.243   2.175   1.669
13624WAT     H241115   5.370   2.262   1.614
13625WAT      O41116   5.636   5.666   0.674
13625WAT     H141117   5.537   5.655   0.673
13625WAT     H241118   5.662   5.738   0.610
13626WAT      O41119   1.706   1.545   2.433
13626WAT     H141120   1.728   1.624   2.490
13626WAT     H241121   1.744   1.463   2.475
13627WAT      O41122   3.314   0.640   0.325
13627WAT     H141123   3.336   0.719   0.381
13627WAT     H241124   3.235   0.592   0.364
13628WAT      O41125   5.666   5.613   2.055
13628WAT     H141126   5.641   5.672   2.132
13628WAT     H241127   5.763   5.622   2.035
13629WAT      O41128   1.666   0.817   3.195
13629WAT     H141129   1.708   0.862   3.116
13629WAT     H241130   1.620   0.885   3.252
13630WAT      O41131   8.135   2.553   2.739
13630WAT     H141132   8.127   2.487   2.813
13630WAT     H241133   8.198   2.626   2.766
13631WAT      O41134   4.187   3.693   9.197
13631WAT     H141135   4.113   3.637   9.160
13631WAT     H241136   4.168   3.714   9.293
13632WAT      O41137   1.444   7.619   1.033
13632WAT     H141138   1.493   7.641   1.118
13632WAT     H241139   1.367   7.681   1.023
13633WAT      O41140   7.208   4.564   7.326
13633WAT     H141141   7.138   4.605   7.267
13633WAT     H241142   7.218   4.467   7.304
13634WAT      O41143   4.766   3.920   6.411
13634WAT     H141144   4.802   3.974   6.487
13634WAT     H241145   4.814   3.833   6.406
13635WAT      O41146   2.311   6.505   3.158
13635WAT     H141147   2.349   6.497   3.250
13635WAT     H241148   2.219   6.467   3.156
13636WAT      O41149   2.041   3.671   3.840
13636WAT     H141150   2.018   3.620   3.923
13636WAT     H241151   1.976   3.647   3.768
13637WAT      O41152   7.655   3.543   5.751
13637WAT     H141153   7.700   3.608   5.690
13637WAT     H241154   7.590   3.592   5.810
13638WAT      O41155   2.747   3.616   8.908
13638WAT     H141156   2.806   3.689   8.873
13638WAT     H241157   2.708   3.565   8.831
13639WAT      O41158   7.981   5.268   4.621
13639WAT     H141159   7.979   5.281   4.720
13639WAT     H241160   8.053   5.203   4.598
13640WAT      O41161   0.815   1.228   4.308
13640WAT     H141162   0.833   1.308   4.250
13640WAT     H241163   0.900   1.196   4.348
13641WAT      O41164   3.913   7.124   7.604
13641WAT     H141165   3.843   7.094   7.669
13641WAT     H241166   3.874   7.123   7.512
13642WAT      O41167   7.994   7.511   1.109
13642WAT     H141168   7.945   7.557   1.034
13642WAT     H241169   8.085   7.550   1.117
13643WAT      O41170   1.739   5.395   4.598
13643WAT     H141171   1.748   5.296   4.608
13643WAT     H241172   1.816   5.440   4.644
13644WAT      O41173   0.119   1.832   9.786
13644WAT     H141174   0.096   1.866   9.695
13644WAT     H241175   0.183   1.755   9.777
13645WAT      O41176   6.122   1.963   4.661
13645WAT     H141177   6.171   2.032   4.607
13645WAT     H241178   6.188   1.901   4.702
13646WAT      O41179   1.275   2.838   3.921
13646WAT     H141180   1.182   2.823   3.888
13646WAT     H241181   1.340   2.824   3.846
13647WAT      O41182   1.089   2.929   0.611
13647WAT     H141183   1.084   2.960   0.516
13647WAT     H241184   1.010   2.963   0.662
13648WAT      O41185   4.539   5.893   1.374
13648WAT     H141186   4.509   5.827   1.306
13648WAT     H241187   4.638   5.885   1.388
13649WAT      O41188   9.097   5.500   3.445
13649WAT     H141189   9.023   5.438   3.421
13649WAT     H241190   9.110   5.567   3.372
13650WAT      O41191   3.597   0.729   1.688
13650WAT     H141192   3.576   0.639   1.728
13650WAT     H241193   3.525   0.754   1.624
13651WAT      O41194   3.066   2.150   4.634
13651WAT     H141195   3.001   2.144   4.558
13651WAT     H241196   3.093   2.245   4.648
13652WAT      O41197   1.938   1.148   9.520
13652WAT     H141198   1.922   1.246   9.533
13652WAT     H241199   1.859   1.097   9.555
13653WAT      O41200   6.510   0.277   7.327
13653WAT     H141201   6.496   0.374   7.306
13653WAT     H241202   6.596   0.246   7.284
13654WAT      O41203   5.856   1.136   7.784
13654WAT     H141204   5.896   1.143   7.875
13654WAT     H241205   5.825   1.227   7.755
13655WAT      O41206   6.300   2.581   5.592
13655WAT     H141207   6.273   2.514   5.523
13655WAT     H241208   6.264   2.553   5.681
13656WAT      O41209   5.824   6.749   3.508
13656WAT     H141210   5.769   6.833   3.505
13656WAT     H241211   5.763   6.670   3.516
13657WAT      O41212   6.213   2.554   3.396
13657WAT     H141213   6.164   2.605   3.467
13657WAT     H241214   6.311   2.565   3.409
13658WAT      O41215   0.725   7.343   8.631
13658WAT     H141216   0.785   7.292   8.570
13658WAT     H241217   0.633   7.347   8.592
13659WAT      O41218   8.820   3.169   0.205
13659WAT     H141219   8.772   3.105   0.144
13659WAT     H241220   8.919   3.158   0.192
13660WAT      O41221   7.303   3.797   3.909
13660WAT     H141222   7.275   3.701   3.903
13660WAT     H241223   7.242   3.846   3.972
13661WAT      O41224   6.717   6.668   0.617
13661WAT     H141225   6.689   6.752   0.662
13661WAT     H241226   6.652   6.644   0.545
13662WAT      O41227   6.598   7.714   9.289
13662WAT     H141228   6.510   7.676   9.317
13662WAT     H241229   6.672   7.670   9.341
13663WAT      O41230   4.621   1.143   2.738
13663WAT     H141231   4.603   1.187   2.826
13663WAT     H241232   4.621   1.043   2.751
13664WAT      O41233   7.193   4.524   3.649
13664WAT     H141234   7.123   4.493   3.585
13664WAT     H241235   7.217   4.619   3.628
13665WAT      O41236   9.724   2.402   7.346
13665WAT     H141237   9.726   2.306   7.377
13665WAT     H241238   9.660   2.411   7.270
13666WAT      O41239   1.123   3.368   7.306
13666WAT     H141240   1.147   3.403   7.396
13666WAT     H241241   1.073   3.439   7.255
13667WAT      O41242   4.572   2.307   9.734
13667WAT     H141243   4.503   2.265   9.792
13667WAT     H241244   4.588   2.249   9.654
13668WAT      O41245   9.857   1.758   9.296
13668WAT     H141246   9.926   1.743   9.224
13668WAT     H241247   9.818   1.849   9.287
13669WAT      O41248   4.018   4.858   5.258
13669WAT     H141249   4.040   4.761   5.250
13669WAT     H241250   3.946   4.871   5.325
13670WAT      O41251   3.043   2.721   3.055
13670WAT     H141252   3.018   2.638   3.007
13670WAT     H241253   3.025   2.800   2.997
13671WAT      O41254   8.558   2.760   8.095
13671WAT     H141255   8.561   2.852   8.134
13671WAT     H241256   8.637   2.708   8.128
13672WAT      O41257   8.042   0.954   5.284
13672WAT     H141258   8.121   0.893   5.280
13672WAT     H241259   8.058   1.032   5.223
13673WAT      O41260   4.069   3.112   1.932
13673WAT     H141261   4.115   3.162   1.859
13673WAT     H241262   3.978   3.084   1.902
13674WAT      O41263   7.988   3.037   6.357
13674WAT     H141264   7.907   3.028   6.299
13674WAT     H241265   7.966   3.007   6.450
13675WAT      O41266   3.773   3.686   2.475
13675WAT     H141267   3.824   3.615   2.523
13675WAT     H241268   3.776   3.771   2.528
13676WAT      O41269   4.535   8.631   7.506
13676WAT     H141270   4.617   8.575   7.503
13676WAT     H241271   4.480   8.616   7.424
13677WAT      O41272   2.792   1.055   8.171
13677WAT     H141273   2.781   1.066   8.072
13677WAT     H241274   2.881   1.092   8.198
13678WAT      O41275   9.064   3.974   3.184
13678WAT     H141276   9.164   3.968   3.193
13678WAT     H241277   9.024   3.884   3.203
13679WAT      O41278   4.440   6.703   6.330
13679WAT     H141279   4.425   6.620   6.276
13679WAT     H241280   4.492   6.681   6.412
13680WAT      O41281   1.270   2.373   3.574
13680WAT     H141282   1.297   2.281   3.600
13680WAT     H241283   1.200   2.406   3.638
13681WAT      O41284   7.351   6.447   1.870
13681WAT     H141285   7.299   6.460   1.785
13681WAT     H241286   7.367   6.535   1.913
13682WAT      O41287   4.077   5.343   7.453
13682WAT     H141288   4.015   5.420   7.469
13682WAT     H241289   4.033   5.277   7.392
13683WAT      O41290   7.308   0.476   0.063
13683WAT     H141291   7.275   0.469  -0.031
13683WAT     H241292   7.244   0.530   0.118
13684WAT      O41293   6.929   8.556   4.157
13684WAT     H141294   6.989   8.579   4.234
13684WAT     H241295   6.952   8.614   4.079
13685WAT      O41296   0.183   6.715   1.132
13685WAT     H141297   0.218   6.664   1.053
13685WAT     H241298   0.179   6.655   1.212
13686WAT      O41299   8.679   3.191   9.390
13686WAT     H141300   8.734   3.112   9.365
13686WAT     H241301   8.731   3.275   9.371
13687WAT      O41302   9.217   9.241   3.445
13687WAT     H141303   9.239   9.150   3.479
13687WAT     H241304   9.208   9.304   3.523
13688WAT      O41305   2.296   3.906   9.136
13688WAT     H141306   2.245   3.866   9.212
13688WAT     H241307   2.287   4.006   9.138
13689WAT      O41308   2.404   2.816   6.122
13689WAT     H141309   2.325   2.803   6.063
13689WAT     H241310   2.473   2.871   6.075
13690WAT      O41311   1.643   0.379   4.284
13690WAT     H141312   1.690   0.316   4.222
13690WAT     H241313   1.614   0.460   4.233
13691WAT      O41314   3.096   6.247   7.752
13691WAT     H141315   3.178   6.284   7.794
13691WAT     H241316   3.070   6.162   7.798
13692WAT      O41317   7.051   3.918   5.062
13692WAT     H141318   6.994   3.919   4.980
13692WAT     H241319   7.141   3.881   5.039
13693WAT      O41320   8.759   1.255   6.283
13693WAT     H141321   8.732   1.325   6.218
13693WAT     H241322   8.833   1.199   6.244
13694WAT      O41323   0.261   0.153   4.967
13694WAT     H141324   0.258   0.162   4.867
13694WAT     H241325   0.234   0.060   4.993
13695WAT      O41326   4.894   1.099   5.257
13695WAT     H141327   4.985   1.085   5.218
13695WAT     H241328   4.839   1.152   5.193
13696WAT      O41329   8.403   7.656   5.967
13696WAT     H141330   8.500   7.638   5.948
13696WAT     H241331   8.386   7.642   6.064
13697WAT      O41332   3.098   5.311   4.777
13697WAT     H141333   3.058   5.267   4.858
13697WAT     H241334   3.091   5.248   4.700
13698WAT      O41335   4.340   9.576   6.306
13698WAT     H141336   4.248   9.561   6.343
13698WAT     H241337   4.361   9.505   6.239
13699WAT      O41338   0.039   8.221   8.224
13699WAT     H141339   0.105   8.295   8.236
13699WAT     H241340   0.063   8.144   8.283
13700WAT      O41341   6.562   4.792   1.618
13700WAT     H141342   6.584   4.775   1.522
13700WAT     H241343   6.555   4.705   1.667
13701WAT      O41344   3.957   4.260   7.604
13701WAT     H141345   3.908   4.337   7.646
13701WAT     H241346   4.004   4.291   7.522
13702WAT      O41347   2.788   8.855   9.073
13702WAT     H141348   2.888   8.855   9.064
13702WAT     H241349   2.763   8.820   9.163
13703WAT      O41350   4.343   9.402   7.702
13703WAT     H141351   4.431   9.396   7.751
13703WAT     H241352   4.332   9.495   7.666
13704WAT      O41353   5.294   2.380   8.733
13704WAT     H141354   5.261   2.429   8.652
13704WAT     H241355   5.217   2.364   8.795
13705WAT      O41356   7.193   1.190   2.709
13705WAT     H141357   7.168   1.125   2.781
13705WAT     H241358   7.115   1.249   2.690
13706WAT      O41359   1.637   2.727   7.070
13706WAT     H141360   1.711   2.790   7.049
13706WAT     H241361   1.615   2.672   6.989
13707WAT      O41362   1.287   9.332   4.573
13707WAT     H141363   1.319   9.245   4.611
13707WAT     H241364   1.210   9.366   4.627
13708WAT      O41365   2.362   7.764   7.347
13708WAT     H141366   2.358   7.697   7.273
13708WAT     H241367   2.374   7.855   7.309
13709WAT      O41368   7.665   8.384   3.714
13709WAT     H141369   7.730   8.358   3.786
13709WAT     H241370   7.687   8.476   3.681
13710WAT      O41371   5.504   4.940   3.453
13710WAT     H141372   5.544   4.897   3.534
13710WAT     H241373   5.404   4.937   3.460
13711WAT      O41374   0.754   6.322   1.458
13711WAT     H141375   0.792   6.408   1.491
13711WAT     H241376   0.808   6.246   1.494
13712WAT      O41377   0.443   2.220   8.316
13712WAT     H141378   0.537   2.256   8.317
13712WAT     H241379   0.406   2.226   8.224
13713WAT      O41380   4.180   7.644   0.530
13713WAT     H141381   4.247   7.719   0.533
13713WAT     H241382   4.172   7.611   0.437
13714WAT      O41383   1.391   8.669   4.437
13714WAT     H141384   1.429   8.615   4.511
13714WAT     H241385   1.352   8.608   4.368
13715WAT      O41386   2.720   7.369   0.921
13715WAT     H141387   2.715   7.461   0.881
13715WAT     H241388   2.708   7.301   0.849
13716WAT      O41389   5.108   2.963   3.558
13716WAT     H141390   5.122   3.059   3.534
13716WAT     H241391   5.196   2.915   3.557
13717WAT      O41392   7.211   2.031   3.734
13717WAT     H141393   7.114   2.046   3.751
13717WAT     H241394   7.264   2.062   3.813
13718WAT      O41395   2.062   6.782   2.784
13718WAT     H141396   1.968   6.764   2.754
13718WAT     H241397   2.105   6.847   2.722
13719WAT      O41398   7.896   5.115   4.216
13719WAT     H141399   7.930   5.209   4.223
13719WAT     H241400   7.797   5.114   4.230
13720WAT      O41401   8.103   5.218   9.073
13720WAT     H141402   8.174   5.175   9.017
13720WAT     H241403   8.146   5.279   9.139
13721WAT      O41404   0.008   4.745   5.624
13721WAT     H141405  -0.039   4.664   5.589
13721WAT     H241406  -0.024   4.765   5.716
13722WAT      O41407   8.398   0.307   0.798
13722WAT     H141408   8.302   0.325   0.777
13722WAT     H241409   8.404   0.254   0.883
13723WAT      O41410   9.023   6.399   6.386
13723WAT     H141411   8.964   6.334   6.435
13723WAT     H241412   8.981   6.423   6.299
13724WAT      O41413   9.738   9.171   4.654
13724WAT     H141414   9.674   9.151   4.580
13724WAT     H241415   9.699   9.139   4.741
13725WAT      O41416   3.686   2.858   9.149
13725WAT     H141417   3.759   2.790   9.159
13725WAT     H241418   3.679   2.911   9.234
13726WAT      O41419   5.760   0.079   7.978
13726WAT     H141420   5.708   0.164   7.976
13726WAT     H241421   5.793   0.058   7.886
13727WAT      O41422   7.541   0.092   4.824
13727WAT     H141423   7.616   0.142   4.869
13727WAT     H241424   7.511   0.017   4.884
13728WAT      O41425   1.994   1.334   0.246
13728WAT     H141426   2.084   1.290   0.247
13728WAT     H241427   1.984   1.388   0.162
13729WAT      O41428   5.371   0.818   8.231
13729WAT     H141429   5.374   0.891   8.299
13729WAT     H241430   5.295   0.756   8.252
13730WAT      O41431   3.995   5.977   6.074
13730WAT     H141432   3.978   6.061   6.126
13730WAT     H241433   3.930   5.907   6.102
13731WAT      O41434   9.192   9.176   0.029
13731WAT     H141435   9.168   9.124  -0.053
13731WAT     H241436   9.288   9.205   0.024
13732WAT      O41437   2.614   1.524   5.097
13732WAT     H141438   2.574   1.615   5.109
13732WAT     H241439   2.583   1.485   5.010
13733WAT      O41440   6.089   9.467   4.532
13733WAT     H141441   6.130   9.456   4.622
13733WAT     H241442   6.145   9.527   4.475
13734WAT      O41443   4.316   2.894   4.123
13734WAT     H141444   4.358   2.839   4.195
13734WAT     H241445   4.362   2.877   4.036
13735WAT      O41446   4.579   0.294   8.697
13735WAT     H141447   4.510   0.361   8.723
13735WAT     H241448   4.669   0.323   8.730
13736WAT      O41449   0.473   0.052   2.540
13736WAT     H141450   0.465   0.130   2.603
13736WAT     H241451   0.464   0.085   2.446
13737WAT      O41452   4.528   4.958   7.371
13737WAT     H141453   4.467   5.000   7.438
13737WAT     H241454   4.557   4.868   7.405
13738WAT      O41455   8.926   8.465   5.355
13738WAT     H141456   8.975   8.518   5.424
13738WAT     H241457   8.857   8.408   5.399
13739WAT      O41458   1.534   2.834   2.442
13739WAT     H141459   1.492   2.909   2.390
13739WAT     H241460   1.633   2.847   2.445
13740WAT      O41461   0.176   0.820   8.792
13740WAT     H141462   0.197   0.866   8.706
13740WAT     H241463   0.258   0.815   8.848
13741WAT      O41464   1.668   1.755   3.562
13741WAT     H141465   1.762   1.769   3.529
13741WAT     H241466   1.628   1.677   3.515
13742WAT      O41467   2.000   6.294   0.415
13742WAT     H141468   2.022   6.391   0.408
13742WAT     H241469   1.901   6.283   0.427
13743WAT      O41470   3.195   7.291   0.356
13743WAT     H141471   3.263   7.327   0.292
13743WAT     H241472   3.133   7.365   0.384
13744WAT      O41473   7.596   4.720   3.592
13744WAT     H141474   7.581   4.656   3.668
13744WAT     H241475   7.576   4.813   3.622
13745WAT      O41476   8.306   4.010   5.705
13745WAT     H141477   8.242   4.082   5.678
13745WAT     H241478   8.363   4.042   5.780
13746WAT      O41479   0.511   1.680   8.447
13746WAT     H141480   0.513   1.776   8.422
13746WAT     H241481   0.424   1.640   8.419
13747WAT      O41482   0.221   2.972   3.206
13747WAT     H141483   0.280   2.993   3.129
13747WAT     H241484   0.150   3.042   3.215
13748WAT      O41485   5.450   2.541   5.058
13748WAT     H141486   5.416   2.611   4.995
13748WAT     H241487   5.372   2.501   5.108
13749WAT      O41488   7.510   3.518   0.195
13749WAT     H141489   7.468   3.471   0.117
13749WAT     H241490   7.597   3.475   0.217
13750WAT      O41491   1.979   1.082   6.386
13750WAT     H141492   1.979   1.152   6.314
13750WAT     H241493   1.908   1.104   6.453
13751WAT      O41494   6.834   2.955   3.858
13751WAT     H141495   6.746   2.926   3.896
13751WAT     H241496   6.897   2.877   3.855
13752WAT      O41497   3.716   6.841   7.968
13752WAT     H141498   3.723   6.895   8.052
13752WAT     H241499   3.694   6.746   7.991
13753WAT      O41500   1.961   8.465   0.930
13753WAT     H141501   1.994   8.490   1.021
13753WAT     H241502   1.906   8.382   0.936
13754WAT      O41503   1.353   8.477   8.257
13754WAT     H141504   1.369   8.406   8.189
13754WAT     H241505   1.335   8.564   8.211
13755WAT      O41506   0.934   2.153   8.012
13755WAT     H141507   0.902   2.100   8.091
13755WAT     H241508   0.941   2.249   8.038
13756WAT      O41509   8.118   7.983   3.754
13756WAT     H141510   8.059   7.997   3.675
13756WAT     H241511   8.104   7.891   3.790
13757WAT      O41512   7.276   1.661   8.307
13757WAT     H141513   7.341   1.585   8.305
13757WAT     H241514   7.183   1.626   8.310
13758WAT      O41515   3.115   4.442   7.522
13758WAT     H141516   3.128   4.402   7.613
13758WAT     H241517   3.020   4.428   7.493
13759WAT      O41518   4.428   4.219   8.772
13759WAT     H141519   4.488   4.144   8.798
13759WAT     H241520   4.374   4.248   8.851
13760WAT      O41521   0.495   1.159   9.660
13760WAT     H141522   0.545   1.117   9.585
13760WAT     H241523   0.525   1.254   9.672
13761WAT      O41524   1.297   8.526   0.293
13761WAT     H141525   1.336   8.439   0.322
13761WAT     H241526   1.290   8.529   0.194
13762WAT      O41527   6.154   1.240   2.324
13762WAT     H141528   6.135   1.242   2.226
13762WAT     H241529   6.121   1.154   2.363
13763WAT      O41530   5.258   2.221   1.065
13763WAT     H141531   5.283   2.286   1.136
13763WAT     H241532   5.332   2.154   1.053
13764WAT      O41533   1.780   6.173   3.323
13764WAT     H141534   1.713   6.239   3.289
13764WAT     H241535   1.865   6.222   3.347
13765WAT      O41536   2.929   5.169   1.349
13765WAT     H141537   2.911   5.128   1.438
13765WAT     H241538   2.872   5.250   1.337
13766WAT      O41539   9.095   5.580   1.569
13766WAT     H141540   9.184   5.547   1.601
13766WAT     H241541   9.101   5.678   1.549
13767WAT      O41542   6.630   3.984   6.296
13767WAT     H141543   6.618   4.082   6.288
13767WAT     H241544   6.719   3.964   6.337
13768WAT      O41545   2.241   2.207   8.168
13768WAT     H141546   2.194   2.163   8.092
13768WAT     H241547   2.227   2.154   8.252
13769WAT      O41548   7.472   1.797   5.794
13769WAT     H141549   7.490   1.709   5.838
13769WAT     H241550   7.403   1.847   5.845
13770WAT      O41551   1.882   2.632   9.644
13770WAT     H141552   1.940   2.645   9.725
13770WAT     H241553   1.814   2.704   9.639
13771WAT      O41554   8.289   2.822   0.872
13771WAT     H141555   8.304   2.896   0.806
13771WAT     H241556   8.195   2.824   0.904
13772WAT      O41557   0.261   2.236   4.809
13772WAT     H141558   0.238   2.142   4.834
13772WAT     H241559   0.183   2.278   4.763
13773WAT      O41560   5.786   6.188   1.945
13773WAT     H141561   5.868   6.132   1.937
13773WAT     H241562   5.793   6.267   1.883
13774WAT      O41563   7.567   2.351   6.168
13774WAT     H141564   7.499   2.299   6.220
13774WAT     H241565   7.536   2.361   6.073
13775WAT      O41566   6.862   5.127   1.701
13775WAT     H141567   6.822   5.039   1.726
13775WAT     H241568   6.823   5.199   1.758
13776WAT      O41569   4.692   5.913   8.968
13776WAT     H141570   4.596   5.929   8.945
13776WAT     H241571   4.701   5.898   9.066
13777WAT      O41572   0.399   1.668   3.891
13777WAT     H141573   0.330   1.598   3.908
13777WAT     H241574   0.355   1.756   3.878
13778WAT      O41575   3.767   4.757   2.922
13778WAT     H141576   3.724   4.694   2.858
13778WAT     H241577   3.866   4.748   2.916
13779WAT      O41578   5.446   9.194   1.755
13779WAT     H141579   5.523   9.131   1.761
13779WAT     H241580   5.420   9.206   1.659
13780WAT      O41581   4.890   7.668   0.961
13780WAT     H141582   4.986   7.649   0.982
13780WAT     H241583   4.876   7.767   0.959
13781WAT      O41584   6.812   0.348   1.826
13781WAT     H141585   6.803   0.360   1.727
13781WAT     H241586   6.730   0.303   1.862
13782WAT      O41587   4.371   8.046   9.799
13782WAT     H141588   4.415   8.009   9.717
13782WAT     H241589   4.274   8.061   9.780
13783WAT      O41590   5.850   6.702   3.033
13783WAT     H141591   5.822   6.738   2.945
13783WAT     H241592   5.853   6.776   3.100
13784WAT      O41593   0.861   3.164   0.387
13784WAT     H141594   0.945   3.144   0.337
13784WAT     H241595   0.800   3.219   0.329
13785WAT      O41596   5.788   6.675   9.585
13785WAT     H141597   5.694   6.666   9.620
13785WAT     H241598   5.827   6.762   9.615
13786WAT      O41599   0.062   7.725   3.242
13786WAT     H141600   0.014   7.809   3.217
13786WAT     H241601   0.122   7.697   3.167
13787WAT      O41602   7.171   2.679   9.446
13787WAT     H141603   7.099   2.619   9.482
13787WAT     H241604   7.139   2.726   9.364
13788WAT      O41605   8.201   2.774   5.195
13788WAT     H141606   8.172   2.867   5.172
13788WAT     H241607   8.215   2.766   5.293
13789WAT      O41608   7.779   0.349   3.057
13789WAT     H141609   7.681   0.371   3.057
13789WAT     H241610   7.829   0.421   3.007
13790WAT      O41611   4.972   5.670   0.463
13790WAT     H141612   4.881   5.628   0.462
13790WAT     H241613   5.041   5.601   0.444
13791WAT      O41614   4.059   1.738   5.266
13791WAT     H141615   3.990   1.728   5.337
13791WAT     H241616   4.015   1.773   5.182
13792WAT      O41617   3.933   2.470   5.249
13792WAT     H141618   3.913   2.567   5.259
13792WAT     H241619   3.993   2.456   5.170
13793WAT      O41620   7.574   1.631   4.031
13793WAT     H141621   7.666   1.668   4.043
13793WAT     H241622   7.507   1.700   4.058
13794WAT      O41623   9.293   5.203   2.270
13794WAT     H141624   9.329   5.131   2.211
13794WAT     H241625   9.345   5.205   2.355
13795WAT      O41626   6.949   4.655   6.243
13795WAT     H141627   7.003   4.666   6.160
13795WAT     H241628   6.857   4.626   6.219
13796WAT      O41629   8.048   6.853   1.140
13796WAT     H141630   8.019   6.761   1.112
13796WAT     H241631   7.979   6.920   1.111
13797WAT      O41632   8.126   0.302   0.420
13797WAT     H141633   8.202   0.314   0.356
13797WAT     H241634   8.148   0.346   0.507
13798WAT      O41635   7.948   8.148   9.796
13798WAT     H141636   8.046   8.150   9.811
13798WAT     H241637   7.905   8.224   9.845
13799WAT      O41638   8.831   9.212   8.141
13799WAT     H141639   8.827   9.312   8.139
13799WAT     H241640   8.907   9.180   8.085
13800WAT      O41641   4.636   7.925   7.659
13800WAT     H141642   4.691   7.984   7.718
13800WAT     H241643   4.615   7.973   7.573
13801WAT      O41644   7.679   5.639   5.821
13801WAT     H141645   7.628   5.603   5.898
13801WAT     H241646   7.647   5.596   5.736
13802WAT      O41647   1.737   0.416   3.226
13802WAT     H141648   1.712   0.331   3.272
13802WAT     H241649   1.816   0.457   3.272
13803WAT      O41650   7.254   1.061   5.844
13803WAT     H141651   7.293   1.050   5.936
13803WAT     H241652   7.211   0.975   5.815
13804WAT      O41653   4.861   3.451   1.879
13804WAT     H141654   4.900   3.432   1.969
13804WAT     H241655   4.931   3.494   1.821
13805WAT      O41656   6.973   8.789   1.652
13805WAT     H141657   7.029   8.715   1.688
13805WAT     H241658   7.029   8.846   1.591
13806WAT      O41659   5.651   6.381   8.431
13806WAT     H141660   5.654   6.467   8.482
13806WAT     H241661   5.602   6.396   8.345
13807WAT      O41662   7.669   8.624   9.457
13807WAT     H141663   7.628   8.533   9.462
13807WAT     H241664   7.759   8.618   9.413
13808WAT      O41665   8.522   5.738   6.887
13808WAT     H141666   8.514   5.711   6.983
13808WAT     H241667   8.455   5.809   6.867
13809WAT      O41668   3.835   7.033   5.451
13809WAT     H141669   3.836   7.018   5.352
13809WAT     H241670   3.857   7.128   5.471
13810WAT      O41671   7.350   9.765   3.517
13810WAT     H141672   7.300   9.812   3.444
13810WAT     H241673   7.373   9.672   3.487
13811WAT      O41674   0.254   5.608   4.440
13811WAT     H141675   0.243   5.510   4.456
13811WAT     H241676   0.211   5.633   4.353
13812WAT      O41677   7.225   1.046   7.489
13812WAT     H141678   7.125   1.050   7.486
13812WAT     H241679   7.260   1.020   7.399
13813WAT      O41680   0.354   4.392   7.622
13813WAT     H141681   0.281   4.435   7.675
13813WAT     H241682   0.318   4.365   7.532
13814WAT      O41683   1.244   9.112   7.519
13814WAT     H141684   1.317   9.045   7.522
13814WAT     H241685   1.226   9.138   7.424
13815WAT      O41686   6.815   4.174   8.984
13815WAT     H141687   6.832   4.204   8.890
13815WAT     H241688   6.798   4.255   9.041
13816WAT      O41689   3.042   3.863   8.277
13816WAT     H141690   3.095   3.796   8.330
13816WAT     H241691   3.066   3.856   8.180
13817WAT      O41692   5.227   2.284   2.819
13817WAT     H141693   5.278   2.327   2.745
13817WAT     H241694   5.145   2.240   2.781
13818WAT      O41695   0.660   5.107   6.658
13818WAT     H141696   0.666   5.024   6.714
13818WAT     H241697   0.752   5.131   6.626
13819WAT      O41698   5.457   2.887   5.572
13819WAT     H141699   5.546   2.841   5.566
13819WAT     H241700   5.427   2.890   5.667
13820WAT      O41701   8.862   4.083   9.536
13820WAT     H141702   8.894   4.146   9.607
13820WAT     H241703   8.766   4.060   9.553
13821WAT      O41704   3.974   6.998   0.346
13821WAT     H141705   4.054   6.957   0.302
13821WAT     H241706   4.003   7.073   0.406
13822WAT      O41707   6.713   4.237   4.741
13822WAT     H141708   6.664   4.310   4.693
13822WAT     H241709   6.647   4.173   4.780
13823WAT      O41710   1.034   1.623   8.555
13823WAT     H141711   0.934   1.615   8.560
13823WAT     H241712   1.065   1.687   8.626
13824WAT      O41713   9.727   2.512   2.907
13824WAT     H141714   9.643   2.566   2.914
13824WAT     H241715   9.775   2.537   2.823
13825WAT      O41716   4.031   4.101   2.682
13825WAT     H141717   4.034   4.003   2.662
13825WAT     H241718   3.955   4.143   2.632
13826WAT      O41719   1.607   1.686   7.570
13826WAT     H141720   1.581   1.774   7.531
13826WAT     H241721   1.696   1.658   7.534
13827WAT      O41722   8.855   5.785   7.439
13827WAT     H141723   8.809   5.773   7.351
13827WAT     H241724   8.844   5.702   7.494
13828WAT      O41725   1.925   7.150   1.066
13828WAT     H141726   1.963   7.228   1.017
13828WAT     H241727   1.977   7.135   1.150
13829WAT      O41728   2.152   3.989   8.831
13829WAT     H141729   2.185   4.045   8.906
13829WAT     H241730   2.185   4.026   8.744
13830WAT      O41731   3.636   8.693   0.709
13830WAT     H141732   3.670   8.644   0.789
13830WAT     H241733   3.667   8.648   0.625
13831WAT      O41734   7.564   0.657   7.005
13831WAT     H141735   7.509   0.741   7.008
13831WAT     H241736   7.531   0.598   6.932
13832WAT      O41737   0.768   8.393   2.994
13832WAT     H141738   0.788   8.488   2.970
13832WAT     H241739   0.817   8.369   3.078
13833WAT      O41740   3.590   8.379   2.268
13833WAT     H141741   3.497   8.349   2.287
13833WAT     H241742   3.628   8.422   2.350
13834WAT      O41743   9.729   2.185   5.390
13834WAT     H141744   9.766   2.235   5.468
13834WAT     H241745   9.670   2.246   5.336
13835WAT      O41746   5.827   4.742   1.376
13835WAT     H141747   5.737   4.754   1.419
13835WAT     H241748   5.891   4.808   1.415
13836WAT      O41749   6.156   9.568   2.705
13836WAT     H141750   6.098   9.496   2.743
13836WAT     H241751   6.244   9.529   2.679
13837WAT      O41752   6.256   0.470   1.761
13837WAT     H141753   6.199   0.414   1.702
13837WAT     H241754   6.242   0.566   1.740
13838WAT      O41755   8.215   0.826   8.863
13838WAT     H141756   8.291   0.768   8.834
13838WAT     H241757   8.143   0.770   8.903
13839WAT      O41758   1.040   3.957   8.961
13839WAT     H141759   0.949   3.986   8.992
13839WAT     H241760   1.087   3.910   9.035
13840WAT      O41761   3.375   3.944   7.982
13840WAT     H141762   3.424   3.863   7.950
13840WAT     H241763   3.417   3.977   8.067
13841WAT      O41764   5.387   1.986   1.458
13841WAT     H141765   5.345   2.070   1.491
13841WAT     H241766   5.321   1.911   1.466
13842WAT      O41767   3.084   9.329   8.191
13842WAT     H141768   2.991   9.305   8.164
13842WAT     H241769   3.106   9.420   8.156
13843WAT      O41770   7.367   9.370   1.618
13843WAT     H141771   7.421   9.423   1.552
13843WAT     H241772   7.276   9.353   1.580
13844WAT      O41773   4.799   2.914   2.922
13844WAT     H141774   4.733   2.840   2.910
13844WAT     H241775   4.758   3.000   2.892
13845WAT      O41776   1.444   7.349   0.576
13845WAT     H141777   1.450   7.359   0.675
13845WAT     H241778   1.502   7.274   0.546
13846WAT      O41779   3.222   0.400   1.817
13846WAT     H141780   3.157   0.325   1.827
13846WAT     H241781   3.205   0.468   1.889
13847WAT      O41782   5.833   6.665   6.871
13847WAT     H141783   5.767   6.724   6.825
13847WAT     H241784   5.853   6.586   6.813
13848WAT      O41785   1.915   1.549   3.256
13848WAT     H141786   1.908   1.507   3.347
13848WAT     H241787   1.996   1.513   3.209
13849WAT      O41788   3.151   3.550   7.683
13849WAT     H141789   3.092   3.610   7.736
13849WAT     H241790   3.181   3.597   7.600
13850WAT      O41791   2.456   9.187   0.438
13850WAT     H141792   2.372   9.235   0.465
13850WAT     H241793   2.434   9.122   0.365
13851WAT      O41794   3.043   0.124   5.896
13851WAT     H141795   3.063   0.215   5.933
13851WAT     H241796   2.944   0.111   5.891
13852WAT      O41797   0.219   8.059   8.780
13852WAT     H141798   0.190   7.965   8.795
13852WAT     H241799   0.149   8.121   8.816
13853WAT      O41800   8.712   8.512   9.280
13853WAT     H141801   8.800   8.472   9.307
13853WAT     H241802   8.727   8.576   9.204
13854WAT      O41803   9.265   6.051   1.937
13854WAT     H141804   9.289   6.067   2.033
13854WAT     H241805   9.172   6.014   1.931
13855WAT      O41806   9.881   5.195   9.144
13855WAT     H141807   9.902   5.124   9.210
13855WAT     H241808   9.805   5.165   9.085
13856WAT      O41809   8.684   9.645   2.650
13856WAT     H141810   8.736   9.560   2.641
13856WAT     H241811   8.593   9.634   2.609
13857WAT      O41812   9.158   9.431   3.158
13857WAT     H141813   9.142   9.527   3.136
13857WAT     H241814   9.196   9.424   3.251
13858WAT      O41815   8.668   8.524   7.519
13858WAT     H141816   8.734   8.449   7.516
13858WAT     H241817   8.656   8.555   7.614
13859WAT      O41818   2.411   3.868   7.965
13859WAT     H141819   2.448   3.803   7.899
13859WAT     H241820   2.353   3.820   8.031
13860WAT      O41821   5.033   6.115   5.256
13860WAT     H141822   5.088   6.089   5.336
13860WAT     H241823   5.090   6.115   5.174
13861WAT      O41824   5.417   2.685   1.568
13861WAT     H141825   5.517   2.685   1.569
13861WAT     H241826   5.383   2.620   1.637
13862WAT      O41827   8.921   7.066   5.959
13862WAT     H141828   8.922   6.970   5.987
13862WAT     H241829   8.939   7.072   5.861
13863WAT      O41830   9.413   7.770   5.305
13863WAT     H141831   9.388   7.697   5.241
13863WAT     H241832   9.473   7.733   5.376
13864WAT      O41833   0.975   7.177   2.677
13864WAT     H141834   0.885   7.135   2.690
13864WAT     H241835   0.964   7.275   2.660
13865WAT      O41836   6.838   5.624   4.222
13865WAT     H141837   6.776   5.614   4.300
13865WAT     H241838   6.792   5.674   4.149
13866WAT      O41839   0.671   7.623   8.779
13866WAT     H141840   0.599   7.690   8.762
13866WAT     H241841   0.758   7.658   8.743
13867WAT      O41842   9.677   2.933   9.788
13867WAT     H141843   9.696   2.848   9.838
13867WAT     H241844   9.761   2.987   9.780
13868WAT      O41845   5.412   1.419   5.754
13868WAT     H141846   5.391   1.447   5.661
13868WAT     H241847   5.328   1.388   5.800
13869WAT      O41848   0.909   6.243   4.373
13869WAT     H141849   0.965   6.161   4.381
13869WAT     H241850   0.920   6.281   4.281
13870WAT      O41851   3.996   7.225   2.918
13870WAT     H141852   4.056   7.270   2.984
13870WAT     H241853   3.926   7.172   2.966
13871WAT      O41854   6.433   6.813   6.507
13871WAT     H141855   6.368   6.888   6.519
13871WAT     H241856   6.384   6.727   6.496
13872WAT      O41857   0.348   8.257   1.829
13872WAT     H141858   0.336   8.317   1.749
13872WAT     H241859   0.402   8.305   1.898
13873WAT      O41860   5.622   6.956   3.054
13873WAT     H141861   5.606   7.036   3.112
13873WAT     H241862   5.544   6.941   2.994
13874WAT      O41863   5.543   5.827   1.315
13874WAT     H141864   5.501   5.918   1.314
13874WAT     H241865   5.637   5.834   1.349
13875WAT      O41866   0.220   6.459   3.218
13875WAT     H141867   0.126   6.427   3.206
13875WAT     H241868   0.221   6.559   3.222
13876WAT      O41869   7.824   6.749   8.259
13876WAT     H141870   7.753   6.709   8.200
13876WAT     H241871   7.914   6.727   8.222
13877WAT      O41872   8.402   4.393   1.265
13877WAT     H141873   8.380   4.428   1.174
13877WAT     H241874   8.496   4.358   1.265
13878WAT      O41875   3.249   9.231   3.618
13878WAT     H141876   3.238   9.319   3.664
13878WAT     H241877   3.179   9.168   3.651
13879WAT      O41878   9.814   7.204   3.913
13879WAT     H141879   9.770   7.292   3.926
13879WAT     H241880   9.876   7.208   3.834
13880WAT      O41881   6.104   7.308   2.090
13880WAT     H141882   6.113   7.235   2.159
13880WAT     H241883   6.019   7.358   2.106
13881WAT      O41884   9.418   8.263   1.471
13881WAT     H141885   9.323   8.236   1.460
13881WAT     H241886   9.429   8.313   1.557
13882WAT      O41887   4.595   6.639   9.778
13882WAT     H141888   4.667   6.573   9.755
13882WAT     H241889   4.629   6.732   9.765
13883WAT      O41890   6.487   0.157   8.995
13883WAT     H141891   6.415   0.088   8.989
13883WAT     H241892   6.532   0.166   8.906
13884WAT      O41893   1.337   9.374   4.112
13884WAT     H141894   1.285   9.354   4.029
13884WAT     H241895   1.285   9.347   4.192
13885WAT      O41896   8.525   7.296   1.212
13885WAT     H141897   8.470   7.216   1.187
13885WAT     H241898   8.523   7.309   1.311
13886WAT      O41899   6.509   4.118   5.683
13886WAT     H141900   6.443   4.171   5.737
13886WAT     H241901   6.506   4.022   5.713
13887WAT      O41902   5.520   7.745   9.555
13887WAT     H141903   5.602   7.689   9.563
13887WAT     H241904   5.439   7.687   9.546
13888WAT      O41905   7.548   4.278   0.327
13888WAT     H141906   7.482   4.237   0.265
13888WAT     H241907   7.581   4.364   0.288
13889WAT      O41908   7.525   0.233   9.846
13889WAT     H141909   7.437   0.193   9.819
13889WAT     H241910   7.599   0.171   9.818
13890WAT      O41911   0.938   6.030   9.575
13890WAT     H141912   0.896   6.096   9.637
13890WAT     H241913   0.901   5.939   9.592
13891WAT      O41914   8.585   1.977   8.408
13891WAT     H141915   8.601   1.950   8.503
13891WAT     H241916   8.518   1.916   8.366
13892WAT      O41917   3.009   6.968   8.709
13892WAT     H141918   3.047   7.061   8.717
13892WAT     H241919   3.066   6.904   8.760
13893WAT      O41920   4.616   7.148   6.687
13893WAT     H141921   4.648   7.241   6.666
13893WAT     H241922   4.521   7.152   6.718
13894WAT      O41923   7.804   6.427   1.260
13894WAT     H141924   7.778   6.521   1.283
13894WAT     H241925   7.722   6.371   1.248
13895WAT      O41926   3.516   3.539   5.482
13895WAT     H141927   3.437   3.480   5.465
13895WAT     H241928   3.510   3.621   5.425
13896WAT      O41929   2.894   6.634   0.928
13896WAT     H141930   2.846   6.683   1.001
13896WAT     H241931   2.827   6.594   0.865
13897WAT      O41932   8.234   5.775   0.988
13897WAT     H141933   8.156   5.744   0.933
13897WAT     H241934   8.218   5.868   1.019
13898WAT      O41935   7.140   7.442   9.418
13898WAT     H141936   7.094   7.427   9.506
13898WAT     H241937   7.239   7.442   9.432
13899WAT      O41938   7.889   1.128   2.491
13899WAT     H141939   7.845   1.049   2.449
13899WAT     H241940   7.859   1.136   2.586
13900WAT      O41941   6.696   1.610   3.901
13900WAT     H141942   6.605   1.609   3.858
13900WAT     H241943   6.760   1.656   3.840
13901WAT      O41944   2.006   5.807   4.415
13901WAT     H141945   2.079   5.846   4.471
13901WAT     H241946   1.923   5.861   4.426
13902WAT      O41947   7.609   5.701   9.022
13902WAT     H141948   7.689   5.746   9.062
13902WAT     H241949   7.557   5.655   9.094
13903WAT      O41950   6.149   9.363   3.309
13903WAT     H141951   6.233   9.385   3.260
13903WAT     H241952   6.159   9.389   3.405
13904WAT      O41953   2.367   3.246   8.658
13904WAT     H141954   2.465   3.245   8.640
13904WAT     H241955   2.333   3.339   8.653
13905WAT      O41956   4.109   7.764   6.106
13905WAT     H141957   4.011   7.778   6.091
13905WAT     H241958   4.158   7.776   6.020
13906WAT      O41959   8.150   4.423   7.403
13906WAT     H141960   8.219   4.412   7.331
13906WAT     H241961   8.163   4.512   7.449
13907WAT      O41962   2.981   6.297   0.581
13907WAT     H141963   3.063   6.274   0.529
13907WAT     H241964   2.916   6.220   0.577
13908WAT      O41965   0.568   2.251   6.398
13908WAT     H141966   0.530   2.246   6.491
13908WAT     H241967   0.535   2.334   6.353
13909WAT      O41968   0.253   8.646   9.459
13909WAT     H141969   0.155   8.647   9.481
13909WAT     H241970   0.297   8.727   9.497
13910WAT      O41971   0.249   5.928   6.987
13910WAT     H141972   0.278   5.872   6.909
13910WAT     H241973   0.221   6.018   6.955
13911WAT      O41974   1.707   3.795   2.805
13911WAT     H141975   1.763   3.800   2.722
13911WAT     H241976   1.722   3.878   2.860
13912WAT      O41977   2.020   4.493   8.381
13912WAT     H141978   2.013   4.410   8.437
13912WAT     H241979   2.115   4.510   8.359
13913WAT      O41980   9.368   3.005   1.542
13913WAT     H141981   9.430   2.969   1.471
13913WAT     H241982   9.337   3.096   1.515
13914WAT      O41983   9.658   5.728   2.984
13914WAT     H141984   9.609   5.754   3.067
13914WAT     H241985   9.689   5.633   2.992
13915WAT      O41986   9.218   2.647   6.342
13915WAT     H141987   9.240   2.691   6.255
13915WAT     H241988   9.287   2.578   6.364
13916WAT      O41989   3.509   3.051   3.101
13916WAT     H141990   3.427   3.103   3.075
13916WAT     H241991   3.494   2.954   3.085
13917WAT      O41992   9.636   5.594   1.682
13917WAT     H141993   9.544   5.557   1.671
13917WAT     H241994   9.641   5.684   1.638
13918WAT      O41995   1.974   4.406   7.656
13918WAT     H141996   2.068   4.440   7.662
13918WAT     H241997   1.952   4.388   7.560
13919WAT      O41998   3.927   1.725   9.838
13919WAT     H141999   3.970   1.762   9.920
13919WAT     H242000   3.986   1.654   9.798
13920WAT      O42001   1.339   2.675   5.669
13920WAT     H142002   1.432   2.673   5.632
13920WAT     H242003   1.283   2.607   5.621
13921WAT      O42004   2.917   3.615   4.488
13921WAT     H142005   2.857   3.554   4.538
13921WAT     H242006   3.012   3.589   4.504
13922WAT      O42007   7.843   4.985   1.370
13922WAT     H142008   7.902   4.932   1.431
13922WAT     H242009   7.793   4.923   1.310
13923WAT      O42010   7.571   3.996   4.023
13923WAT     H142011   7.496   4.011   3.958
13923WAT     H242012   7.538   3.943   4.100
13924WAT      O42013   9.463   7.717   8.632
13924WAT     H142014   9.400   7.640   8.633
13924WAT     H242015   9.463   7.761   8.722
13925WAT      O42016   7.375   2.954   8.288
13925WAT     H142017   7.374   2.871   8.345
13925WAT     H242018   7.428   2.937   8.205
13926WAT      O42019   5.426   7.842   6.317
13926WAT     H142020   5.493   7.915   6.313
13926WAT     H242021   5.444   7.776   6.244
13927WAT      O42022   0.683   1.035   9.533
13927WAT     H142023   0.685   0.963   9.603
13927WAT     H242024   0.720   0.998   9.447
13928WAT      O42025   9.354   6.477   4.348
13928WAT     H142026   9.338   6.451   4.253
13928WAT     H242027   9.419   6.553   4.351
13929WAT      O42028   6.897   1.053   2.315
13929WAT     H142029   6.879   0.977   2.252
13929WAT     H242030   6.979   1.102   2.286
13930WAT      O42031   3.258   8.451   6.359
13930WAT     H142032   3.349   8.440   6.400
13930WAT     H242033   3.237   8.371   6.302
13931WAT      O42034   9.810   5.848   5.614
13931WAT     H142035   9.757   5.869   5.532
13931WAT     H242036   9.858   5.930   5.644
13932WAT      O42037   6.672   2.679   1.643
13932WAT     H142038   6.660   2.666   1.545
13932WAT     H242039   6.660   2.776   1.666
13933WAT      O42040   0.435   1.232   0.169
13933WAT     H142041   0.367   1.178   0.120
13933WAT     H242042   0.522   1.184   0.170
13934WAT      O42043   9.401   0.123   4.834
13934WAT     H142044   9.340   0.121   4.755
13934WAT     H242045   9.396   0.036   4.883
13935WAT      O42046   0.086   8.244   7.680
13935WAT     H142047   0.069   8.152   7.646
13935WAT     H242048   0.185   8.260   7.684
13936WAT      O42049   3.014   9.710   2.559
13936WAT     H142050   2.960   9.704   2.644
13936WAT     H242051   2.955   9.737   2.484
13937WAT      O42052   5.258   5.367   1.713
13937WAT     H142053   5.237   5.334   1.621
13937WAT     H242054   5.177   5.413   1.751
13938WAT      O42055   5.688   2.038   4.602
13938WAT     H142056   5.775   2.021   4.648
13938WAT     H242057   5.616   2.053   4.669
13939WAT      O42058   5.711   8.733   6.547
13939WAT     H142059   5.764   8.753   6.629
13939WAT     H242060   5.687   8.818   6.501
13940WAT      O42061   2.713   1.666   0.499
13940WAT     H142062   2.800   1.631   0.533
13940WAT     H242063   2.695   1.756   0.539
13941WAT      O42064   3.080   7.818   7.486
13941WAT     H142065   3.168   7.864   7.497
13941WAT     H242066   3.022   7.836   7.565
13942WAT      O42067   5.030   7.946   7.392
13942WAT     H142068   4.990   7.855   7.383
13942WAT     H242069   5.062   7.959   7.486
13943WAT      O42070   2.730   3.022   6.325
13943WAT     H142071   2.706   2.970   6.243
13943WAT     H242072   2.796   3.094   6.301
13944WAT      O42073   0.533   6.128   3.425
13944WAT     H142074   0.610   6.191   3.421
13944WAT     H242075   0.475   6.142   3.345
13945WAT      O42076   0.594   3.045   9.629
13945WAT     H142077   0.691   3.019   9.638
13945WAT     H242078   0.574   3.121   9.690
13946WAT      O42079   0.922   3.303   1.850
13946WAT     H142080   0.913   3.344   1.759
13946WAT     H242081   1.018   3.280   1.866
13947WAT      O42082   8.952   7.020   1.349
13947WAT     H142083   8.931   7.029   1.447
13947WAT     H242084   8.871   6.988   1.300
13948WAT      O42085   1.069   3.290   7.679
13948WAT     H142086   1.125   3.366   7.648
13948WAT     H242087   1.127   3.222   7.724
13949WAT      O42088   0.004   4.597   3.682
13949WAT     H142089   0.001   4.641   3.771
13949WAT     H242090   0.086   4.540   3.676
13950WAT      O42091   3.859   0.767   9.072
13950WAT     H142092   3.836   0.694   9.136
13950WAT     H242093   3.957   0.785   9.076
13951WAT      O42094   6.617   4.617   4.094
13951WAT     H142095   6.648   4.680   4.022
13951WAT     H242096   6.577   4.536   4.052
13952WAT      O42097   1.331   9.313   1.713
13952WAT     H142098   1.271   9.392   1.706
13952WAT     H242099   1.419   9.333   1.670
13953WAT      O42100   4.252   3.456   5.242
13953WAT     H142101   4.220   3.533   5.296
13953WAT     H242102   4.249   3.480   5.145
13954WAT      O42103   3.863   7.176   6.215
13954WAT     H142104   3.918   7.126   6.282
13954WAT     H242105   3.907   7.174   6.126
13955WAT      O42106   8.235   7.020   9.014
13955WAT     H142107   8.234   6.921   9.028
13955WAT     H242108   8.329   7.052   9.000
13956WAT      O42109   1.402   4.780   3.339
13956WAT     H142110   1.352   4.855   3.294
13956WAT     H242111   1.466   4.739   3.274
13957WAT      O42112   0.704   3.640   2.078
13957WAT     H142113   0.801   3.662   2.088
13957WAT     H242114   0.694   3.543   2.053
13958WAT      O42115   0.265   4.325   7.380
13958WAT     H142116   0.207   4.249   7.352
13958WAT     H242117   0.357   4.312   7.343
13959WAT      O42118   9.061   0.403   7.048
13959WAT     H142119   8.992   0.364   6.987
13959WAT     H242120   9.120   0.330   7.083
13960WAT      O42121   6.763   9.199   9.449
13960WAT     H142122   6.806   9.159   9.529
13960WAT     H242123   6.824   9.267   9.409
13961WAT      O42124   5.522   4.180   0.552
13961WAT     H142125   5.499   4.262   0.499
13961WAT     H242126   5.549   4.207   0.645
13962WAT      O42127   5.975   1.367   0.761
13962WAT     H142128   5.942   1.317   0.842
13962WAT     H242129   5.923   1.338   0.681
13963WAT      O42130   1.382   8.512   3.461
13963WAT     H142131   1.299   8.530   3.408
13963WAT     H242132   1.429   8.433   3.423
13964WAT      O42133   7.944   9.740   3.769
13964WAT     H142134   7.883   9.661   3.765
13964WAT     H242135   7.957   9.777   3.677
13965WAT      O42136   2.777   7.159   2.843
13965WAT     H142137   2.679   7.153   2.828
13965WAT     H242138   2.798   7.243   2.893
13966WAT      O42139   1.419   4.504   1.498
13966WAT     H142140   1.511   4.485   1.533
13966WAT     H242141   1.377   4.419   1.467
13967WAT      O42142   1.299   3.062   9.814
13967WAT     H142143   1.397   3.044   9.808
13967WAT     H242144   1.284   3.157   9.842
13968WAT      O42145   6.811   5.876   4.759
13968WAT     H142146   6.780   5.966   4.725
13968WAT     H242147   6.792   5.869   4.857
13969WAT      O42148   3.972   2.896   2.931
13969WAT     H142149   3.953   2.861   2.839
13969WAT     H242150   3.899   2.959   2.958
13970WAT      O42151   7.925   8.472   0.820
13970WAT     H142152   7.910   8.563   0.858
13970WAT     H242153   7.911   8.474   0.721
13971WAT      O42154   5.149   9.451   6.128
13971WAT     H142155   5.221   9.394   6.088
13971WAT     H242156   5.186   9.542   6.150
13972WAT      O42157   5.030   5.484   2.887
13972WAT     H142158   4.941   5.499   2.845
13972WAT     H242159   5.022   5.494   2.986
13973WAT      O42160   6.993   1.134   5.374
13973WAT     H142161   7.054   1.077   5.430
13973WAT     H242162   7.045   1.171   5.297
13974WAT      O42163   7.467   3.130   2.131
13974WAT     H142164   7.557   3.120   2.173
13974WAT     H242165   7.456   3.223   2.095
13975WAT      O42166   3.573   5.599   7.045
13975WAT     H142167   3.583   5.517   7.101
13975WAT     H242168   3.639   5.668   7.075
13976WAT      O42169   2.236   5.259   3.224
13976WAT     H142170   2.255   5.321   3.148
13976WAT     H242171   2.147   5.282   3.265
13977WAT      O42172   8.097   2.701   9.448
13977WAT     H142173   8.095   2.727   9.351
13977WAT     H242174   8.071   2.605   9.458
13978WAT      O42175   5.930   5.330   8.499
13978WAT     H142176   5.852   5.334   8.436
13978WAT     H242177   5.904   5.372   8.587
13979WAT      O42178   0.960   1.116   7.217
13979WAT     H142179   1.028   1.049   7.186
13979WAT     H242180   0.926   1.167   7.139
13980WAT      O42181   8.223   3.187   8.641
13980WAT     H142182   8.261   3.172   8.733
13980WAT     H242183   8.213   3.099   8.595
13981WAT      O42184   6.092   0.430   2.738
13981WAT     H142185   6.103   0.443   2.836
13981WAT     H242186   6.018   0.488   2.704
13982WAT      O42187   3.073   6.699   0.594
13982WAT     H142188   3.080   6.749   0.680
13982WAT     H242189   3.164   6.683   0.557
13983WAT      O42190   9.669   5.187   7.145
13983WAT     H142191   9.572   5.190   7.168
13983WAT     H242192   9.679   5.177   7.046
13984WAT      O42193   5.627   5.679   1.095
13984WAT     H142194   5.683   5.613   1.145
13984WAT     H242195   5.583   5.741   1.161
13985WAT      O42196   6.775   4.216   2.009
13985WAT     H142197   6.744   4.294   2.063
13985WAT     H242198   6.850   4.245   1.949
13986WAT      O42199   8.923   0.385   7.973
13986WAT     H142200   8.896   0.292   7.996
13986WAT     H242201   8.917   0.443   8.054
13987WAT      O42202   7.636   1.090   6.393
13987WAT     H142203   7.628   0.996   6.427
13987WAT     H242204   7.548   1.136   6.400
13988WAT      O42205   2.654   5.041   3.381
13988WAT     H142206   2.688   5.008   3.469
13988WAT     H242207   2.562   5.079   3.393
13989WAT      O42208   6.190   2.982   0.953
13989WAT     H142209   6.257   2.987   0.879
13989WAT     H242210   6.198   2.893   0.999
13990WAT      O42211   5.249   8.863   2.988
13990WAT     H142212   5.314   8.797   2.952
13990WAT     H242213   5.158   8.822   2.991
13991WAT      O42214   6.743   2.705   9.312
13991WAT     H142215   6.665   2.750   9.356
13991WAT     H242216   6.714   2.662   9.227
13992WAT      O42217   2.624   2.347   7.254
13992WAT     H142218   2.659   2.429   7.299
13992WAT     H242219   2.701   2.286   7.232
13993WAT      O42220   9.334   4.382   3.111
13993WAT     H142221   9.288   4.447   3.171
13993WAT     H242222   9.321   4.409   3.016
13994WAT      O42223   1.287   9.770   8.441
13994WAT     H142224   1.364   9.760   8.378
13994WAT     H242225   1.322   9.775   8.535
13995WAT      O42226   3.253   6.550   2.007
13995WAT     H142227   3.270   6.578   2.101
13995WAT     H242228   3.155   6.558   1.987
13996WAT      O42229   8.831   0.062   7.988
13996WAT     H142230   8.756   0.035   8.048
13996WAT     H242231   8.907  -0.002   7.999
13997WAT      O42232   6.917   0.064   4.482
13997WAT     H142233   6.888   0.160   4.489
13997WAT     H242234   6.840   0.009   4.450
13998WAT      O42235   9.037   4.148   1.147
13998WAT     H142236   9.122   4.134   1.097
13998WAT     H242237   8.983   4.064   1.147
13999WAT      O42238   9.839   7.258   6.786
13999WAT     H142239   9.826   7.257   6.687
13999WAT     H242240   9.791   7.180   6.827
14000WAT      O42241   7.060   2.589   2.914
14000WAT     H142242   7.132   2.655   2.891
14000WAT     H242243   6.992   2.633   2.973
14001WAT      O42244   4.632   2.227   4.797
14001WAT     H142245   4.724   2.261   4.814
14001WAT     H242246   4.578   2.299   4.753
14002WAT      O42247   5.175   5.263   2.862
14002WAT     H142248   5.121   5.347   2.863
14002WAT     H242249   5.200   5.240   2.768
14003WAT      O42250   7.849   9.706   1.280
14003WAT     H142251   7.809   9.660   1.360
14003WAT     H242252   7.893   9.639   1.221
14004WAT      O42253   8.025   3.347   8.546
14004WAT     H142254   7.938   3.332   8.593
14004WAT     H242255   8.091   3.278   8.576
14005WAT      O42256   8.404   0.638   8.574
14005WAT     H142257   8.331   0.570   8.560
14005WAT     H242258   8.428   0.678   8.486
14006WAT      O42259   1.794   3.113   3.108
14006WAT     H142260   1.873   3.065   3.147
14006WAT     H242261   1.744   3.160   3.180
14007WAT      O42262   6.462   7.149   8.704
14007WAT     H142263   6.392   7.137   8.634
14007WAT     H242264   6.552   7.127   8.666
14008WAT      O42265   9.142   4.628   8.931
14008WAT     H142266   9.118   4.718   8.967
14008WAT     H242267   9.217   4.636   8.867
14009WAT      O42268   9.037   1.881   1.767
14009WAT     H142269   9.125   1.928   1.769
14009WAT     H242270   8.992   1.890   1.856
14010WAT      O42271   2.354   3.639   0.716
14010WAT     H142272   2.341   3.734   0.746
14010WAT     H242273   2.451   3.619   0.706
14011WAT      O42274   8.627   4.745   0.284
14011WAT     H142275   8.675   4.811   0.341
14011WAT     H242276   8.595   4.790   0.200
14012WAT      O42277   3.428   0.088   9.054
14012WAT     H142278   3.376   0.062   8.973
14012WAT     H242279   3.388   0.171   9.094
14013WAT      O42280   0.821   5.310   0.114
14013WAT     H142281   0.891   5.262   0.166
14013WAT     H242282   0.751   5.245   0.085
14014WAT      O42283   3.836   0.814   5.540
14014WAT     H142284   3.835   0.837   5.638
14014WAT     H242285   3.749   0.771   5.515
14015WAT      O42286   8.147   4.364   3.410
14015WAT     H142287   8.070   4.416   3.448
14015WAT     H242288   8.121   4.268   3.402
14016WAT      O42289   1.984   5.473   6.853
14016WAT     H142290   2.040   5.556   6.859
14016WAT     H242291   1.893   5.497   6.817
14017WAT      O42292   5.346   2.616   3.951
14017WAT     H142293   5.424   2.607   4.013
14017WAT     H242294   5.263   2.586   3.997
14018WAT      O42295   0.181   5.890   7.892
14018WAT     H142296   0.126   5.953   7.839
14018WAT     H242297   0.231   5.829   7.830
14019WAT      O42298   3.452   0.101   2.245
14019WAT     H142299   3.457   0.159   2.164
14019WAT     H242300   3.529   0.036   2.243
14020WAT      O42301   8.546   1.166   5.517
14020WAT     H142302   8.516   1.115   5.598
14020WAT     H242303   8.468   1.215   5.478
14021WAT      O42304   7.168   0.746   8.675
14021WAT     H142305   7.211   0.707   8.756
14021WAT     H242306   7.083   0.791   8.701
14022WAT      O42307   0.004   2.127   5.170
14022WAT     H142308  -0.042   2.132   5.259
14022WAT     H242309   0.038   2.034   5.156
14023WAT      O42310   8.611   5.260   3.608
14023WAT     H142311   8.692   5.210   3.578
14023WAT     H242312   8.548   5.196   3.653
14024WAT      O42313   3.354   8.369   6.011
14024WAT     H142314   3.261   8.403   5.997
14024WAT     H242315   3.419   8.443   5.994
14025WAT      O42316   5.608   6.732   7.656
14025WAT     H142317   5.703   6.753   7.633
14025WAT     H242318   5.547   6.795   7.608
14026WAT      O42319   0.168   9.501   5.169
14026WAT     H142320   0.188   9.537   5.260
14026WAT     H242321   0.211   9.411   5.158
14027WAT      O42322   3.387   4.722   1.207
14027WAT     H142323   3.479   4.707   1.173
14027WAT     H242324   3.323   4.664   1.156
14028WAT      O42325   2.413   5.055   7.705
14028WAT     H142326   2.405   5.131   7.640
14028WAT     H242327   2.322   5.022   7.730
14029WAT      O42328   9.285   4.555   2.901
14029WAT     H142329   9.279   4.626   2.971
14029WAT     H242330   9.373   4.563   2.853
14030WAT      O42331   8.201   4.088   7.188
14030WAT     H142332   8.224   4.185   7.183
14030WAT     H242333   8.177   4.064   7.282
14031WAT      O42334   5.520   7.654   2.141
14031WAT     H142335   5.487   7.631   2.050
14031WAT     H242336   5.583   7.732   2.135
14032WAT      O42337   7.508   5.545   4.193
14032WAT     H142338   7.539   5.545   4.098
14032WAT     H242339   7.458   5.629   4.212
14033WAT      O42340   7.160   4.602   1.871
14033WAT     H142341   7.106   4.561   1.798
14033WAT     H242342   7.256   4.606   1.844
14034WAT      O42343   3.642   9.706   1.772
14034WAT     H142344   3.693   9.642   1.828
14034WAT     H242345   3.702   9.779   1.740
14035WAT      O42346   6.570   9.262   0.806
14035WAT     H142347   6.562   9.360   0.791
14035WAT     H242348   6.656   9.242   0.854
14036WAT      O42349   6.264   2.697   7.438
14036WAT     H142350   6.230   2.762   7.370
14036WAT     H242351   6.305   2.747   7.514
14037WAT      O42352   3.480   7.753   1.231
14037WAT     H142353   3.480   7.843   1.186
14037WAT     H242354   3.556   7.699   1.197
14038WAT      O42355   5.433   2.979   9.742
14038WAT     H142356   5.493   2.900   9.743
14038WAT     H242357   5.382   2.984   9.828
14039WAT      O42358   2.082   8.246   7.763
14039WAT     H142359   2.003   8.220   7.818
14039WAT     H242360   2.101   8.173   7.697
14040WAT      O42361   9.426   9.009   5.610
14040WAT     H142362   9.453   8.940   5.677
14040WAT     H242363   9.395   9.091   5.658
14041WAT      O42364   8.341   4.236   2.246
14041WAT     H142365   8.275   4.163   2.225
14041WAT     H242366   8.329   4.266   2.340
14042WAT      O42367   2.285   7.507   6.129
14042WAT     H142368   2.376   7.536   6.100
14042WAT     H242369   2.284   7.492   6.228
14043WAT      O42370   0.918   8.312   5.227
14043WAT     H142371   0.903   8.333   5.324
14043WAT     H242372   0.891   8.391   5.172
14044WAT      O42373   7.731   7.961   0.516
14044WAT     H142374   7.765   7.999   0.429
14044WAT     H242375   7.668   8.026   0.558
14045WAT      O42376   6.569   2.082   3.563
14045WAT     H142377   6.560   1.984   3.546
14045WAT     H242378   6.568   2.131   3.476
14046WAT      O42379   4.859   7.374   6.378
14046WAT     H142380   4.868   7.442   6.306
14046WAT     H242381   4.915   7.294   6.356
14047WAT      O42382   5.320   6.528   9.367
14047WAT     H142383   5.325   6.626   9.381
14047WAT     H242384   5.411   6.492   9.348
14048WAT      O42385   1.647   4.235   7.534
14048WAT     H142386   1.715   4.191   7.593
14048WAT     H242387   1.635   4.181   7.451
14049WAT      O42388   4.220   7.838   5.871
14049WAT     H142389   4.139   7.832   5.812
14049WAT     H242390   4.266   7.925   5.855
14050WAT      O42391   7.141   2.884   8.164
14050WAT     H142392   7.103   2.921   8.080
14050WAT     H242393   7.222   2.937   8.190
14051WAT      O42394   4.486   5.198   8.274
14051WAT     H142395   4.552   5.258   8.320
14051WAT     H242396   4.527   5.107   8.261
14052WAT      O42397   7.239   6.443   5.998
14052WAT     H142398   7.261   6.541   5.996
14052WAT     H242399   7.309   6.394   6.050
14053WAT      O42400   3.279   0.088   6.062
14053WAT     H142401   3.209   0.111   5.994
14053WAT     H242402   3.307  -0.007   6.051
14054WAT      O42403   0.432   0.290   0.538
14054WAT     H142404   0.454   0.281   0.441
14054WAT     H242405   0.346   0.339   0.548
14055WAT      O42406   4.949   0.259   1.177
14055WAT     H142407   5.040   0.246   1.136
14055WAT     H242408   4.948   0.345   1.228
14056WAT      O42409   4.205   7.148   2.294
14056WAT     H142410   4.258   7.193   2.222
14056WAT     H242411   4.189   7.212   2.369
14057WAT      O42412   9.159   7.414   9.874
14057WAT     H142413   9.217   7.336   9.899
14057WAT     H242414   9.070   7.380   9.843
14058WAT      O42415   9.631   4.101   6.871
14058WAT     H142416   9.623   4.200   6.881
14058WAT     H242417   9.619   4.057   6.961
14059WAT      O42418   9.690   4.406   1.998
14059WAT     H142419   9.786   4.435   2.007
14059WAT     H242420   9.682   4.337   1.926
14060WAT      O42421   6.050   8.226   4.232
14060WAT     H142422   5.978   8.188   4.174
14060WAT     H242423   6.114   8.154   4.257
14061WAT      O42424   7.437   7.997   7.236
14061WAT     H142425   7.504   7.978   7.307
14061WAT     H242426   7.430   7.918   7.174
14062WAT      O42427   0.803   4.693   3.774
14062WAT     H142428   0.879   4.647   3.728
14062WAT     H242429   0.728   4.705   3.710
14063WAT      O42430   3.422   6.390   5.039
14063WAT     H142431   3.461   6.300   5.023
14063WAT     H242432   3.438   6.417   5.135
14064WAT      O42433   6.080   6.946   4.991
14064WAT     H142434   6.105   6.949   4.894
14064WAT     H242435   6.158   6.915   5.045
14065WAT      O42436   9.237   7.951   8.207
14065WAT     H142437   9.164   7.934   8.274
14065WAT     H242438   9.223   8.041   8.166
14066WAT      O42439   9.747   8.176   5.148
14066WAT     H142440   9.760   8.132   5.059
14066WAT     H242441   9.682   8.123   5.202
14067WAT      O42442   0.184   6.315   4.056
14067WAT     H142443   0.262   6.267   4.015
14067WAT     H242444   0.207   6.341   4.150
14068WAT      O42445   0.723   8.159   7.618
14068WAT     H142446   0.738   8.061   7.630
14068WAT     H242447   0.626   8.176   7.600
14069WAT      O42448   5.496   8.790   0.124
14069WAT     H142449   5.513   8.769   0.028
14069WAT     H242450   5.439   8.872   0.131
14070WAT      O42451   5.416   8.343   3.033
14070WAT     H142452   5.398   8.258   3.082
14070WAT     H242453   5.513   8.365   3.037
14071WAT      O42454   4.478   1.351   0.834
14071WAT     H142455   4.529   1.410   0.896
14071WAT     H242456   4.393   1.397   0.807
14072WAT      O42457   3.668   3.078   3.626
14072WAT     H142458   3.613   3.135   3.687
14072WAT     H242459   3.742   3.035   3.677
14073WAT      O42460   4.770   8.853   7.650
14073WAT     H142461   4.680   8.832   7.611
14073WAT     H242462   4.836   8.865   7.576
14074WAT      O42463   6.376   6.119   2.530
14074WAT     H142464   6.366   6.093   2.626
14074WAT     H242465   6.352   6.040   2.472
14075WAT      O42466   6.496   6.828   6.219
14075WAT     H142467   6.501   6.815   6.318
14075WAT     H242468   6.458   6.746   6.176
14076WAT      O42469   8.038   0.967   6.542
14076WAT     H142470   8.027   0.979   6.443
14076WAT     H242471   8.130   0.932   6.561
14077WAT      O42472   9.064   5.473   4.668
14077WAT     H142473   8.992   5.486   4.600
14077WAT     H242474   9.074   5.375   4.688
14078WAT      O42475   8.710   5.579   3.395
14078WAT     H142476   8.709   5.543   3.302
14078WAT     H242477   8.633   5.642   3.407
14079WAT      O42478   4.696   1.759   8.901
14079WAT     H142479   4.747   1.714   8.828
14079WAT     H242480   4.738   1.739   8.989
14080WAT      O42481   1.419   2.955   7.488
14080WAT     H142482   1.398   3.034   7.431
14080WAT     H242483   1.454   2.881   7.430
14081WAT      O42484   2.026   9.313   6.499
14081WAT     H142485   2.068   9.252   6.433
14081WAT     H242486   2.065   9.297   6.590
14082WAT      O42487   7.577   3.245   7.749
14082WAT     H142488   7.670   3.218   7.724
14082WAT     H242489   7.578   3.295   7.835
14083WAT      O42490   2.797   0.056   5.469
14083WAT     H142491   2.809  -0.026   5.412
14083WAT     H242492   2.871   0.062   5.535
14084WAT      O42493   7.332   5.412   1.396
14084WAT     H142494   7.391   5.412   1.476
14084WAT     H242495   7.387   5.423   1.313
14085WAT      O42496   8.605   0.201   4.114
14085WAT     H142497   8.572   0.115   4.075
14085WAT     H242498   8.672   0.243   4.053
14086WAT      O42499   1.354   2.107   7.357
14086WAT     H142500   1.286   2.095   7.284
14086WAT     H242501   1.308   2.139   7.440
14087WAT      O42502   2.783   0.444   3.048
14087WAT     H142503   2.787   0.345   3.058
14087WAT     H242504   2.775   0.468   2.951
14088WAT      O42505   3.700   3.503   5.039
14088WAT     H142506   3.790   3.498   5.083
14088WAT     H242507   3.634   3.449   5.091
14089WAT      O42508   5.554   7.536   0.158
14089WAT     H142509   5.558   7.451   0.210
14089WAT     H242510   5.459   7.565   0.148
14090WAT      O42511   1.034   6.803   3.834
14090WAT     H142512   1.012   6.829   3.928
14090WAT     H242513   1.133   6.795   3.823
14091WAT      O42514   3.666   9.614   4.394
14091WAT     H142515   3.574   9.650   4.376
14091WAT     H242516   3.659   9.517   4.418
14092WAT      O42517   3.982   2.051   5.426
14092WAT     H142518   3.987   1.952   5.414
14092WAT     H242519   4.029   2.077   5.510
14093WAT      O42520   8.545   1.111   6.113
14093WAT     H142521   8.642   1.116   6.088
14093WAT     H242522   8.534   1.049   6.191
14094WAT      O42523   3.701   6.003   2.097
14094WAT     H142524   3.698   6.089   2.149
14094WAT     H242525   3.691   6.022   2.000
14095WAT      O42526   8.967   6.464   4.042
14095WAT     H142527   9.022   6.395   4.088
14095WAT     H242528   8.997   6.473   3.947
14096WAT      O42529   3.787   0.112   8.102
14096WAT     H142530   3.706   0.074   8.058
14096WAT     H242531   3.869   0.077   8.058
14097WAT      O42532   1.691   7.272   1.620
14097WAT     H142533   1.703   7.175   1.597
14097WAT     H242534   1.605   7.305   1.582
14098WAT      O42535   2.859   6.848   2.147
14098WAT     H142536   2.834   6.753   2.168
14098WAT     H242537   2.945   6.871   2.193
14099WAT      O42538   3.846   3.175   0.268
14099WAT     H142539   3.855   3.079   0.295
14099WAT     H242540   3.780   3.183   0.193
14100WAT      O42541   8.854   8.457   0.318
14100WAT     H142542   8.761   8.472   0.284
14100WAT     H242543   8.918   8.507   0.259
14101WAT      O42544   5.338   0.071   1.407
14101WAT     H142545   5.373   0.003   1.471
14101WAT     H242546   5.248   0.101   1.436
14102WAT      O42547   8.566   1.797   0.570
14102WAT     H142548   8.618   1.798   0.485
14102WAT     H242549   8.528   1.888   0.588
14103WAT      O42550   3.485   8.808   3.656
14103WAT     H142551   3.475   8.847   3.748
14103WAT     H242552   3.455   8.875   3.588
14104WAT      O42553   0.577   5.772   0.693
14104WAT     H142554   0.651   5.767   0.761
14104WAT     H242555   0.580   5.861   0.648
14105WAT      O42556   0.483   8.808   8.979
14105WAT     H142557   0.578   8.836   8.984
14105WAT     H242558   0.477   8.721   8.929
14106WAT      O42559   4.383   6.232   7.711
14106WAT     H142560   4.315   6.171   7.670
14106WAT     H242561   4.339   6.317   7.740
14107WAT      O42562   7.690   5.995   7.621
14107WAT     H142563   7.643   5.975   7.707
14107WAT     H242564   7.630   5.970   7.544
14108WAT      O42565   7.111   7.529   7.065
14108WAT     H142566   7.170   7.554   7.142
14108WAT     H242567   7.021   7.501   7.100
14109WAT      O42568   8.308   6.858   4.723
14109WAT     H142569   8.223   6.829   4.678
14109WAT     H242570   8.303   6.835   4.820
14110WAT      O42571   7.675   6.135   4.982
14110WAT     H142572   7.593   6.155   5.036
14110WAT     H242573   7.753   6.119   5.042
14111WAT      O42574   8.329   1.232   4.719
14111WAT     H142575   8.360   1.303   4.656
14111WAT     H242576   8.254   1.181   4.676
14112WAT      O42577   2.118   3.083   4.840
14112WAT     H142578   2.170   3.114   4.919
14112WAT     H242579   2.020   3.096   4.856
14113WAT      O42580   9.474   2.265   6.766
14113WAT     H142581   9.498   2.215   6.849
14113WAT     H242582   9.411   2.340   6.788
14114WAT      O42583   3.881   7.344   1.835
14114WAT     H142584   3.916   7.299   1.753
14114WAT     H242585   3.938   7.424   1.856
14115WAT      O42586   2.423   1.741   4.198
14115WAT     H142587   2.511   1.746   4.246
14115WAT     H242588   2.439   1.740   4.099
14116WAT      O42589   7.501   8.911   3.737
14116WAT     H142590   7.438   8.833   3.736
14116WAT     H242591   7.458   8.988   3.785
14117WAT      O42592   6.304   6.398   8.173
14117WAT     H142593   6.316   6.495   8.191
14117WAT     H242594   6.278   6.385   8.078
14118WAT      O42595   9.401   6.103   0.259
14118WAT     H142596   9.404   6.164   0.180
14118WAT     H242597   9.360   6.016   0.232
14119WAT      O42598   6.788   8.156   5.581
14119WAT     H142599   6.716   8.096   5.616
14119WAT     H242600   6.762   8.251   5.597
14120WAT      O42601   6.147   8.653   5.630
14120WAT     H142602   6.118   8.748   5.643
14120WAT     H242603   6.083   8.592   5.676
14121WAT      O42604   3.829   1.380   7.223
14121WAT     H142605   3.760   1.359   7.292
14121WAT     H242606   3.784   1.416   7.141
14122WAT      O42607   2.075   8.989   4.629
14122WAT     H142608   2.064   8.905   4.575
14122WAT     H242609   2.004   8.993   4.699
14123WAT      O42610   7.444   3.006   0.656
14123WAT     H142611   7.394   3.081   0.614
14123WAT     H242612   7.482   3.037   0.744
14124WAT      O42613   5.595   4.270   9.609
14124WAT     H142614   5.542   4.255   9.525
14124WAT     H242615   5.534   4.273   9.687
14125WAT      O42616   8.764   7.879   4.719
14125WAT     H142617   8.828   7.906   4.791
14125WAT     H242618   8.671   7.875   4.756
14126WAT      O42619   1.326   9.780   3.426
14126WAT     H142620   1.394   9.743   3.489
14126WAT     H242621   1.305   9.875   3.452
14127WAT      O42622   6.231   4.895   6.768
14127WAT     H142623   6.257   4.855   6.856
14127WAT     H242624   6.185   4.827   6.712
14128WAT      O42625   7.771   6.192   1.806
14128WAT     H142626   7.815   6.278   1.832
14128WAT     H242627   7.672   6.199   1.821
14129WAT      O42628   7.672   1.979   5.729
14129WAT     H142629   7.594   1.920   5.750
14129WAT     H242630   7.708   2.019   5.813
14130WAT      O42631   6.900   5.649   6.748
14130WAT     H142632   6.909   5.613   6.841
14130WAT     H242633   6.928   5.580   6.682
14131WAT      O42634   2.455   9.342   3.022
14131WAT     H142635   2.547   9.367   3.052
14131WAT     H242636   2.406   9.424   2.993
14132WAT      O42637   0.553   2.227   4.708
14132WAT     H142638   0.593   2.318   4.697
14132WAT     H242639   0.460   2.235   4.742
14133WAT      O42640   5.846   1.782   5.826
14133WAT     H142641   5.774   1.713   5.837
14133WAT     H242642   5.834   1.854   5.894
14134WAT      O42643   4.052   4.656   2.600
14134WAT     H142644   3.966   4.682   2.645
14134WAT     H242645   4.038   4.571   2.550
14135WAT      O42646   9.292   9.721   9.041
14135WAT     H142647   9.310   9.816   9.066
14135WAT     H242648   9.358   9.691   8.972
14136WAT      O42649   5.733   2.721   6.617
14136WAT     H142650   5.760   2.635   6.573
14136WAT     H242651   5.687   2.700   6.703
14137WAT      O42652   9.071   2.736   2.800
14137WAT     H142653   8.972   2.730   2.791
14137WAT     H242654   9.094   2.799   2.875
14138WAT      O42655   0.510   6.895   7.100
14138WAT     H142656   0.446   6.947   7.157
14138WAT     H242657   0.464   6.814   7.065
14139WAT      O42658   0.225   8.912   0.128
14139WAT     H142659   0.152   8.878   0.187
14139WAT     H242660   0.288   8.969   0.182
14140WAT      O42661   6.039   5.192   4.669
14140WAT     H142662   6.129   5.190   4.625
14140WAT     H242663   6.014   5.099   4.697
14141WAT      O42664   1.217   5.160   7.101
14141WAT     H142665   1.301   5.178   7.049
14141WAT     H242666   1.160   5.242   7.102
14142WAT      O42667   5.122   1.937   4.470
14142WAT     H142668   5.218   1.960   4.454
14142WAT     H242669   5.116   1.854   4.525
14143WAT      O42670   7.984   7.728   7.915
14143WAT     H142671   8.034   7.652   7.875
14143WAT     H242672   7.979   7.716   8.015
14144WAT      O42673   6.265   1.575   6.506
14144WAT     H142674   6.287   1.480   6.525
14144WAT     H242675   6.285   1.631   6.586
14145WAT      O42676   5.999   7.637   7.404
14145WAT     H142677   5.990   7.613   7.308
14145WAT     H242678   6.043   7.726   7.412
14146WAT      O42679   5.263   3.425   7.055
14146WAT     H142680   5.352   3.403   7.094
14146WAT     H242681   5.192   3.409   7.124
14147WAT      O42682   3.204   9.193   1.919
14147WAT     H142683   3.139   9.263   1.888
14147WAT     H242684   3.265   9.232   1.987
14148WAT      O42685   3.018   0.685   2.744
14148WAT     H142686   3.061   0.621   2.808
14148WAT     H242687   3.000   0.638   2.657
14149WAT      O42688   8.879   9.083   8.603
14149WAT     H142689   8.836   9.090   8.514
14149WAT     H242690   8.958   9.022   8.597
14150WAT      O42691   5.499   7.057   7.248
14150WAT     H142692   5.428   7.057   7.319
14150WAT     H242693   5.577   7.111   7.279
14151WAT      O42694   8.235   4.663   7.503
14151WAT     H142695   8.285   4.736   7.457
14151WAT     H242696   8.227   4.684   7.600
14152WAT      O42697   4.759   8.412   2.088
14152WAT     H142698   4.700   8.340   2.055
14152WAT     H242699   4.739   8.497   2.040
14153WAT      O42700   3.535   0.970   5.937
14153WAT     H142701   3.448   0.963   5.888
14153WAT     H242702   3.575   1.061   5.920
14154WAT      O42703   4.696   2.350   4.061
14154WAT     H142704   4.621   2.305   4.014
14154WAT     H242705   4.751   2.282   4.110
14155WAT      O42706   8.286   9.253   4.053
14155WAT     H142707   8.326   9.166   4.084
14155WAT     H242708   8.354   9.326   4.061
14156WAT      O42709   1.887   1.641   4.583
14156WAT     H142710   1.900   1.578   4.660
14156WAT     H242711   1.796   1.683   4.590
14157WAT      O42712   1.959   0.092   5.563
14157WAT     H142713   1.889   0.066   5.497
14157WAT     H242714   1.954   0.032   5.642
14158WAT      O42715   0.218   7.680   9.456
14158WAT     H142716   0.159   7.751   9.496
14158WAT     H242717   0.310   7.716   9.444
14159WAT      O42718   2.257   3.648   4.651
14159WAT     H142719   2.212   3.558   4.651
14159WAT     H242720   2.310   3.658   4.736
14160WAT      O42721   2.088   6.269   0.945
14160WAT     H142722   2.171   6.323   0.932
14160WAT     H242723   2.010   6.320   0.907
14161WAT      O42724   4.068   0.511   1.246
14161WAT     H142725   4.084   0.444   1.319
14161WAT     H242726   3.997   0.575   1.275
14162WAT      O42727   2.501   8.749   7.321
14162WAT     H142728   2.533   8.841   7.343
14162WAT     H242729   2.547   8.715   7.239
14163WAT      O42730   1.968   4.139   8.239
14163WAT     H142731   1.907   4.205   8.281
14163WAT     H242732   2.054   4.184   8.213
14164WAT      O42733   7.943   5.387   6.355
14164WAT     H142734   7.888   5.413   6.276
14164WAT     H242735   7.941   5.461   6.422
14165WAT      O42736   9.194   7.726   1.757
14165WAT     H142737   9.175   7.801   1.821
14165WAT     H242738   9.288   7.736   1.723
14166WAT      O42739   1.562   4.851   8.966
14166WAT     H142740   1.510   4.880   9.047
14166WAT     H242741   1.561   4.751   8.959
14167WAT      O42742   1.908   8.840   3.033
14167WAT     H142743   2.006   8.861   3.025
14167WAT     H242744   1.857   8.895   2.967
14168WAT      O42745   6.691   8.764   2.956
14168WAT     H142746   6.595   8.780   2.980
14168WAT     H242747   6.705   8.667   2.936
14169WAT      O42748   5.306   2.590   1.345
14169WAT     H142749   5.232   2.655   1.330
14169WAT     H242750   5.350   2.610   1.433
14170WAT      O42751   3.373   6.555   6.297
14170WAT     H142752   3.310   6.479   6.316
14170WAT     H242753   3.362   6.585   6.202
14171WAT      O42754   9.789   4.917   0.460
14171WAT     H142755   9.767   4.951   0.369
14171WAT     H242756   9.886   4.933   0.479
14172WAT      O42757   7.729   8.213   6.815
14172WAT     H142758   7.749   8.311   6.809
14172WAT     H242759   7.634   8.200   6.842
14173WAT      O42760   2.661   3.895   3.232
14173WAT     H142761   2.585   3.921   3.172
14173WAT     H242762   2.747   3.927   3.193
14174WAT      O42763   7.731   8.998   6.112
14174WAT     H142764   7.703   8.907   6.082
14174WAT     H242765   7.804   8.989   6.180
14175WAT      O42766   0.204   7.643   6.837
14175WAT     H142767   0.300   7.616   6.825
14175WAT     H242768   0.153   7.566   6.875
14176WAT      O42769   3.037   5.918   3.312
14176WAT     H142770   2.949   5.961   3.291
14176WAT     H242771   3.025   5.819   3.317
14177WAT      O42772   1.918   0.462   4.267
14177WAT     H142773   1.819   0.448   4.268
14177WAT     H242774   1.941   0.542   4.322
14178WAT      O42775   4.933   0.945   3.858
14178WAT     H142776   4.856   1.007   3.875
14178WAT     H242777   4.995   0.946   3.937
14179WAT      O42778   7.918   9.607   5.562
14179WAT     H142779   7.889   9.649   5.476
14179WAT     H242780   7.998   9.656   5.598
14180WAT      O42781   0.320   3.793   5.346
14180WAT     H142782   0.316   3.796   5.246
14180WAT     H242783   0.300   3.884   5.382
14181WAT      O42784   9.728   6.466   4.255
14181WAT     H142785   9.801   6.476   4.187
14181WAT     H242786   9.678   6.553   4.262
14182WAT      O42787   1.674   9.282   3.134
14182WAT     H142788   1.629   9.345   3.197
14182WAT     H242789   1.606   9.224   3.089
14183WAT      O42790   6.812   9.305   6.341
14183WAT     H142791   6.885   9.360   6.381
14183WAT     H242792   6.772   9.246   6.411
14184WAT      O42793   1.405   9.447   6.108
14184WAT     H142794   1.428   9.355   6.078
14184WAT     H242795   1.342   9.442   6.186
14185WAT      O42796   4.361   9.153   9.050
14185WAT     H142797   4.323   9.151   9.143
14185WAT     H242798   4.392   9.061   9.025
14186WAT      O42799   4.100   1.912   6.103
14186WAT     H142800   4.129   1.988   6.045
14186WAT     H242801   4.055   1.948   6.185
14187WAT      O42802   7.792   1.555   8.514
14187WAT     H142803   7.823   1.578   8.607
14187WAT     H242804   7.699   1.519   8.518
14188WAT      O42805   6.863   6.894   8.334
14188WAT     H142806   6.842   6.849   8.421
14188WAT     H242807   6.862   6.826   8.260
14189WAT      O42808   3.886   3.281   7.071
14189WAT     H142809   3.843   3.194   7.098
14189WAT     H242810   3.955   3.263   7.002
14190WAT      O42811   6.117   4.841   6.099
14190WAT     H142812   6.190   4.772   6.096
14190WAT     H242813   6.100   4.875   6.006
14191WAT      O42814   8.813   7.482   0.028
14191WAT     H142815   8.893   7.508   0.081
14191WAT     H242816   8.824   7.388  -0.005
14192WAT      O42817   5.303   3.254   2.226
14192WAT     H142818   5.268   3.268   2.319
14192WAT     H242819   5.255   3.177   2.184
14193WAT      O42820   4.459   4.412   4.494
14193WAT     H142821   4.373   4.419   4.545
14193WAT     H242822   4.452   4.338   4.427
14194WAT      O42823   0.005   1.628   7.005
14194WAT     H142824   0.062   1.561   6.957
14194WAT     H242825  -0.064   1.664   6.942
14195WAT      O42826   3.202   8.928   2.010
14195WAT     H142827   3.204   9.024   1.984
14195WAT     H242828   3.290   8.886   1.988
14196WAT      O42829   9.034   0.051   5.884
14196WAT     H142830   8.967   0.044   5.958
14196WAT     H242831   9.102   0.121   5.908
14197WAT      O42832   4.360   9.111   7.136
14197WAT     H142833   4.397   9.075   7.051
14197WAT     H242834   4.269   9.150   7.118
14198WAT      O42835   7.150   2.638   5.629
14198WAT     H142836   7.093   2.556   5.619
14198WAT     H242837   7.213   2.625   5.705
14199WAT      O42838   7.776   4.134   0.285
14199WAT     H142839   7.833   4.203   0.240
14199WAT     H242840   7.693   4.177   0.321
14200WAT      O42841   5.088   4.042   5.013
14200WAT     H142842   5.083   4.040   5.113
14200WAT     H242843   4.996   4.040   4.975
14201WAT      O42844   9.228   7.740   7.357
14201WAT     H142845   9.239   7.724   7.455
14201WAT     H242846   9.133   7.764   7.338
14202WAT      O42847   7.378   7.864   3.376
14202WAT     H142848   7.461   7.913   3.399
14202WAT     H242849   7.376   7.776   3.424
14203WAT      O42850   3.651   3.950   4.734
14203WAT     H142851   3.602   3.873   4.774
14203WAT     H242852   3.638   4.031   4.792
14204WAT      O42853   5.932   2.538   5.140
14204WAT     H142854   6.018   2.534   5.191
14204WAT     H242855   5.887   2.449   5.145
14205WAT      O42856   5.881   6.315   5.492
14205WAT     H142857   5.932   6.265   5.422
14205WAT     H242858   5.783   6.306   5.475
14206WAT      O42859   2.408   1.201   2.248
14206WAT     H142860   2.428   1.292   2.212
14206WAT     H242861   2.480   1.174   2.312
14207WAT      O42862   7.960   5.631   1.538
14207WAT     H142863   7.993   5.561   1.475
14207WAT     H242864   7.877   5.674   1.501
14208WAT      O42865   7.528   8.186   9.869
14208WAT     H142866   7.539   8.106   9.810
14208WAT     H242867   7.594   8.182   9.944
14209WAT      O42868   5.860   2.382   3.691
14209WAT     H142869   5.944   2.343   3.729
14209WAT     H242870   5.849   2.476   3.724
14210WAT      O42871   8.354   2.098   9.124
14210WAT     H142872   8.397   2.084   9.213
14210WAT     H242873   8.281   2.166   9.133
14211WAT      O42874   5.752   8.943   6.934
14211WAT     H142875   5.676   8.897   6.981
14211WAT     H242876   5.815   8.981   7.001
14212WAT      O42877   7.207   4.383   1.292
14212WAT     H142878   7.245   4.454   1.233
14212WAT     H242879   7.206   4.296   1.242
14213WAT      O42880   9.757   2.699   6.964
14213WAT     H142881   9.738   2.769   7.032
14213WAT     H242882   9.671   2.657   6.934
14214WAT      O42883   2.883   5.870   0.587
14214WAT     H142884   2.919   5.809   0.658
14214WAT     H242885   2.824   5.817   0.526
14215WAT      O42886   1.504   0.336   2.509
14215WAT     H142887   1.456   0.327   2.596
14215WAT     H242888   1.601   0.318   2.522
14216WAT      O42889   6.642   8.386   5.621
14216WAT     H142890   6.678   8.478   5.609
14216WAT     H242891   6.575   8.385   5.695
14217WAT      O42892   9.256   8.587   5.293
14217WAT     H142893   9.339   8.637   5.268
14217WAT     H242894   9.269   8.490   5.272
14218WAT      O42895   6.882   8.644   3.907
14218WAT     H142896   6.867   8.743   3.900
14218WAT     H242897   6.799   8.596   3.878
14219WAT      O42898   0.928   8.962   1.804
14219WAT     H142899   0.972   9.051   1.793
14219WAT     H242900   0.928   8.914   1.717
14220WAT      O42901   1.622   1.334   7.026
14220WAT     H142902   1.628   1.238   6.999
14220WAT     H242903   1.658   1.345   7.119
14221WAT      O42904   1.714   2.189   0.608
14221WAT     H142905   1.757   2.208   0.520
14221WAT     H242906   1.730   2.093   0.632
14222WAT      O42907   8.952   8.219   4.673
14222WAT     H142908   8.964   8.163   4.755
14222WAT     H242909   8.876   8.182   4.618
14223WAT      O42910   9.534   3.569   4.590
14223WAT     H142911   9.624   3.525   4.581
14223WAT     H242912   9.492   3.542   4.676
14224WAT      O42913   9.763   2.199   2.373
14224WAT     H142914   9.733   2.265   2.304
14224WAT     H242915   9.762   2.243   2.463
14225WAT      O42916   3.294   5.174   0.935
14225WAT     H142917   3.346   5.234   0.875
14225WAT     H242918   3.231   5.119   0.881
14226WAT      O42919   5.260   7.391   2.603
14226WAT     H142920   5.281   7.298   2.576
14226WAT     H242921   5.217   7.440   2.526
14227WAT      O42922   9.334   5.646   5.535
14227WAT     H142923   9.321   5.722   5.599
14227WAT     H242924   9.427   5.650   5.498
14228WAT      O42925   9.660   9.098   6.235
14228WAT     H142926   9.601   9.174   6.261
14228WAT     H242927   9.675   9.100   6.136
14229WAT      O42928   0.248   3.146   3.983
14229WAT     H142929   0.328   3.191   3.944
14229WAT     H242930   0.222   3.192   4.068
14230WAT      O42931   3.384   4.889   4.372
14230WAT     H142932   3.395   4.921   4.466
14230WAT     H242933   3.467   4.841   4.343
14231WAT      O42934   4.388   8.272   8.363
14231WAT     H142935   4.320   8.199   8.351
14231WAT     H242936   4.440   8.256   8.446
14232WAT      O42937   3.520   7.238   6.917
14232WAT     H142938   3.456   7.245   6.840
14232WAT     H242939   3.469   7.235   7.002
14233WAT      O42940   8.893   3.101   5.041
14233WAT     H142941   8.911   3.115   5.138
14233WAT     H242942   8.810   3.151   5.015
14234WAT      O42943   3.971   4.665   6.363
14234WAT     H142944   3.900   4.731   6.386
14234WAT     H242945   3.936   4.599   6.296
14235WAT      O42946   9.777   7.806   9.762
14235WAT     H142947   9.772   7.857   9.848
14235WAT     H242948   9.689   7.812   9.715
14236WAT      O42949   0.267   0.784   2.778
14236WAT     H142950   0.187   0.737   2.817
14236WAT     H242951   0.321   0.825   2.851
14237WAT      O42952   2.832   6.068   5.212
14237WAT     H142953   2.777   6.114   5.142
14237WAT     H242954   2.877   6.136   5.270
14238WAT      O42955   1.246   2.580   5.332
14238WAT     H142956   1.266   2.528   5.415
14238WAT     H242957   1.329   2.587   5.277
14239WAT      O42958   2.110   4.546   7.222
14239WAT     H142959   2.095   4.600   7.139
14239WAT     H242960   2.193   4.491   7.212
14240WAT      O42961   5.390   7.271   5.638
14240WAT     H142962   5.341   7.264   5.725
14240WAT     H242963   5.347   7.212   5.570
14241WAT      O42964   7.539   7.143   8.346
14241WAT     H142965   7.614   7.150   8.412
14241WAT     H242966   7.470   7.079   8.380
14242WAT      O42967   2.265   5.520   5.261
14242WAT     H142968   2.290   5.446   5.324
14242WAT     H242969   2.182   5.564   5.294
14243WAT      O42970   6.619   1.640   1.094
14243WAT     H142971   6.667   1.725   1.075
14243WAT     H242972   6.532   1.660   1.138
14244WAT      O42973   3.356   0.906   6.372
14244WAT     H142974   3.267   0.884   6.333
14244WAT     H242975   3.428   0.864   6.316
14245WAT      O42976   2.983   0.813   5.952
14245WAT     H142977   3.006   0.725   5.992
14245WAT     H242978   2.925   0.799   5.871
14246WAT      O42979   3.336   3.218   5.566
14246WAT     H142980   3.411   3.181   5.620
14246WAT     H242981   3.290   3.143   5.518
14247WAT      O42982   7.246   6.333   9.772
14247WAT     H142983   7.304   6.338   9.691
14247WAT     H242984   7.165   6.278   9.752
14248WAT      O42985   9.167   4.604   4.157
14248WAT     H142986   9.173   4.677   4.226
14248WAT     H242987   9.188   4.643   4.066
14249WAT      O42988   0.292   5.065   8.143
14249WAT     H142989   0.294   5.134   8.215
14249WAT     H242990   0.301   5.110   8.054
14250WAT      O42991   3.415   5.923   1.529
14250WAT     H142992   3.504   5.878   1.527
14250WAT     H242993   3.395   5.962   1.439
14251WAT      O42994   9.141   9.601   5.370
14251WAT     H142995   9.134   9.560   5.461
14251WAT     H242996   9.096   9.690   5.370
14252WAT      O42997   5.828   7.258   6.588
14252WAT     H142998   5.843   7.160   6.574
14252WAT     H242999   5.825   7.278   6.686
14253WAT      O43000   8.132   7.571   2.926
14253WAT     H143001   8.185   7.653   2.904
14253WAT     H243002   8.043   7.575   2.881
14254WAT      O43003   1.343   8.326   8.043
14254WAT     H143004   1.405   8.249   8.026
14254WAT     H243005   1.329   8.376   7.957
14255WAT      O43006   1.572   5.127   1.042
14255WAT     H143007   1.479   5.143   1.074
14255WAT     H243008   1.629   5.097   1.118
14256WAT      O43009   8.984   4.468   5.599
14256WAT     H143010   8.988   4.384   5.546
14256WAT     H243011   9.069   4.519   5.588
14257WAT      O43012   5.092   7.693   5.860
14257WAT     H143013   5.125   7.614   5.912
14257WAT     H243014   5.092   7.671   5.762
14258WAT      O43015   7.737   0.202   7.294
14258WAT     H143016   7.742   0.299   7.320
14258WAT     H243017   7.829   0.163   7.295
14259WAT      O43018   4.426   9.651   2.629
14259WAT     H143019   4.453   9.653   2.533
14259WAT     H243020   4.397   9.743   2.657
14260WAT      O43021   9.406   9.671   8.679
14260WAT     H143022   9.496   9.668   8.724
14260WAT     H243023   9.336   9.693   8.747
14261WAT      O43024   0.626   6.194   0.794
14261WAT     H143025   0.700   6.170   0.857
14261WAT     H243026   0.539   6.168   0.835
14262WAT      O43027   9.002   3.578   2.972
14262WAT     H143028   8.969   3.639   3.044
14262WAT     H243029   8.982   3.484   2.997
14263WAT      O43030   9.838   3.979   4.895
14263WAT     H143031   9.759   4.018   4.847
14263WAT     H243032   9.894   4.053   4.932
14264WAT      O43033   6.474   5.020   7.076
14264WAT     H143034   6.400   4.964   7.113
14264WAT     H243035   6.530   5.056   7.151
14265WAT      O43036   9.192   6.129   7.356
14265WAT     H143037   9.260   6.059   7.333
14265WAT     H243038   9.217   6.215   7.310
14266WAT      O43039   7.724   3.287   3.468
14266WAT     H143040   7.731   3.247   3.377
14266WAT     H243041   7.676   3.374   3.462
14267WAT      O43042   9.297   8.838   0.421
14267WAT     H143043   9.291   8.760   0.484
14267WAT     H243044   9.244   8.914   0.457
14268WAT      O43045   9.558   1.840   7.147
14268WAT     H143046   9.546   1.932   7.111
14268WAT     H243047   9.579   1.845   7.245
14269WAT      O43048   7.985   2.706   3.848
14269WAT     H143049   7.993   2.701   3.749
14269WAT     H243050   8.076   2.696   3.889
14270WAT      O43051   5.143   1.027   4.010
14270WAT     H143052   5.097   1.110   4.043
14270WAT     H243053   5.237   1.025   4.043
14271WAT      O43054   0.509   8.640   6.940
14271WAT     H143055   0.417   8.606   6.963
14271WAT     H243056   0.537   8.601   6.852
14272WAT      O43057   6.212   4.231   0.128
14272WAT     H143058   6.167   4.300   0.186
14272WAT     H243059   6.170   4.231   0.038
14273WAT      O43060   3.179   1.957   5.973
14273WAT     H143061   3.115   1.985   6.044
14273WAT     H243062   3.130   1.905   5.903
14274WAT      O43063   1.098   8.218   9.066
14274WAT     H143064   1.182   8.269   9.047
14274WAT     H243065   1.034   8.276   9.116
14275WAT      O43066   6.676   2.970   8.115
14275WAT     H143067   6.672   2.982   8.016
14275WAT     H243068   6.648   3.055   8.161
14276WAT      O43069   0.859   0.066   0.373
14276WAT     H143070   0.802  -0.013   0.396
14276WAT     H243071   0.903   0.102   0.455
14277WAT      O43072   0.938   9.058   3.286
14277WAT     H143073   1.027   9.100   3.307
14277WAT     H243074   0.873   9.130   3.262
14278WAT      O43075   4.844   7.431   3.958
14278WAT     H143076   4.744   7.422   3.953
14278WAT     H243077   4.869   7.527   3.951
14279WAT      O43078   0.596   1.763   7.796
14279WAT     H143079   0.686   1.789   7.829
14279WAT     H243080   0.606   1.700   7.719
14280WAT      O43081   2.138   3.560   8.147
14280WAT     H143082   2.163   3.589   8.055
14280WAT     H243083   2.049   3.513   8.144
14281WAT      O43084   9.446   3.574   8.139
14281WAT     H143085   9.539   3.593   8.170
14281WAT     H243086   9.402   3.659   8.110
14282WAT      O43087   4.574   4.809   0.332
14282WAT     H143088   4.522   4.892   0.350
14282WAT     H243089   4.672   4.829   0.338
14283WAT      O43090   7.237   1.905   8.898
14283WAT     H143091   7.234   1.856   8.811
14283WAT     H243092   7.315   1.872   8.952
14284WAT      O43093   7.305   3.770   7.396
14284WAT     H143094   7.304   3.680   7.353
14284WAT     H243095   7.235   3.828   7.353
14285WAT      O43096   1.618   1.589   1.840
14285WAT     H143097   1.637   1.491   1.846
14285WAT     H243098   1.617   1.629   1.932
14286WAT      O43099   5.691   3.924   9.445
14286WAT     H143100   5.600   3.962   9.430
14286WAT     H243101   5.743   3.985   9.506
14287WAT      O43102   5.590   5.476   9.521
14287WAT     H143103   5.499   5.518   9.519
14287WAT     H243104   5.659   5.548   9.528
14288WAT      O43105   7.176   7.734   0.657
14288WAT     H143106   7.211   7.764   0.568
14288WAT     H243107   7.087   7.775   0.673
14289WAT      O43108   7.056   0.369   1.445
14289WAT     H143109   7.061   0.270   1.455
14289WAT     H243110   7.038   0.393   1.350
14290WAT      O43111   9.450   1.077   4.358
14290WAT     H143112   9.358   1.060   4.322
14290WAT     H243113   9.475   1.172   4.341
14291WAT      O43114   0.538   8.725   6.465
14291WAT     H143115   0.491   8.729   6.553
14291WAT     H243116   0.613   8.659   6.470
14292WAT      O43117   6.533   7.299   5.317
14292WAT     H143118   6.460   7.277   5.253
14292WAT     H243119   6.494   7.320   5.407
14293WAT      O43120   0.526   9.033   5.889
14293WAT     H143121   0.535   9.048   5.791
14293WAT     H243122   0.613   9.052   5.934
14294WAT      O43123   4.943   0.310   4.563
14294WAT     H143124   4.976   0.323   4.470
14294WAT     H243125   4.933   0.212   4.581
14295WAT      O43126   7.920   9.664   9.597
14295WAT     H143127   8.006   9.615   9.577
14295WAT     H243128   7.857   9.652   9.521
14296WAT      O43129   2.300   8.983   7.855
14296WAT     H143130   2.253   8.916   7.913
14296WAT     H243131   2.310   8.945   7.763
14297WAT      O43132   6.704   7.920   1.626
14297WAT     H143133   6.798   7.953   1.629
14297WAT     H243134   6.645   7.992   1.590
14298WAT      O43135   4.883   4.807   1.406
14298WAT     H143136   4.974   4.765   1.406
14298WAT     H243137   4.814   4.736   1.419
14299WAT      O43138   3.393   7.471   2.525
14299WAT     H143139   3.433   7.476   2.616
14299WAT     H243140   3.462   7.496   2.457
14300WAT      O43141   7.693   9.641   9.829
14300WAT     H143142   7.640   9.578   9.772
14300WAT     H243143   7.791   9.626   9.814
14301WAT      O43144   4.737   9.345   8.698
14301WAT     H143145   4.807   9.356   8.627
14301WAT     H243146   4.744   9.253   8.737
14302WAT      O43147   8.719   6.897   7.577
14302WAT     H143148   8.753   6.803   7.563
14302WAT     H243149   8.743   6.928   7.669
14303WAT      O43150   3.234   8.353   8.341
14303WAT     H143151   3.154   8.359   8.401
14303WAT     H243152   3.206   8.372   8.247
14304WAT      O43153   7.155   5.611   6.291
14304WAT     H143154   7.116   5.678   6.227
14304WAT     H243155   7.232   5.652   6.340
14305WAT      O43156   7.123   2.172   8.872
14305WAT     H143157   7.172   2.085   8.880
14305WAT     H243158   7.107   2.209   8.963
14306WAT      O43159   8.490   4.158   8.739
14306WAT     H143160   8.466   4.129   8.832
14306WAT     H243161   8.584   4.191   8.738
14307WAT      O43162   7.517   2.993   3.879
14307WAT     H143163   7.567   3.025   3.798
14307WAT     H243164   7.473   3.070   3.925
14308WAT      O43165   2.467   2.620   8.875
14308WAT     H143166   2.397   2.583   8.936
14308WAT     H243167   2.464   2.570   8.788
14309WAT      O43168   0.521   6.101   8.784
14309WAT     H143169   0.567   6.022   8.742
14309WAT     H243170   0.517   6.176   8.718
14310WAT      O43171   1.461   5.301   1.282
14310WAT     H143172   1.415   5.292   1.370
14310WAT     H243173   1.401   5.267   1.209
14311WAT      O43174   7.735   5.991   5.298
14311WAT     H143175   7.639   5.976   5.272
14311WAT     H243176   7.738   6.058   5.373
14312WAT      O43177   8.819   4.515   1.982
14312WAT     H143178   8.737   4.475   1.942
14312WAT     H243179   8.819   4.614   1.967
14313WAT      O43180   1.509   1.315   1.579
14313WAT     H143181   1.608   1.305   1.586
14313WAT     H243182   1.466   1.289   1.665
14314WAT      O43183   4.173   5.542   1.267
14314WAT     H143184   4.075   5.528   1.263
14314WAT     H243185   4.193   5.634   1.302
14315WAT      O43186   5.740   0.419   0.023
14315WAT     H143187   5.747   0.322  -0.000
14315WAT     H243188   5.776   0.474  -0.053
14316WAT      O43189   3.961   5.472   9.804
14316WAT     H143190   4.028   5.399   9.787
14316WAT     H243191   3.946   5.524   9.720
14317WAT      O43192   0.237   2.887   1.530
14317WAT     H143193   0.230   2.881   1.430
14317WAT     H243194   0.323   2.931   1.555
14318WAT      O43195   3.966   9.240   8.952
14318WAT     H143196   3.989   9.182   8.874
14318WAT     H243197   3.995   9.194   9.036
14319WAT      O43198   2.897   9.276   7.817
14319WAT     H143199   2.806   9.302   7.783
14319WAT     H243200   2.935   9.205   7.757
14320WAT      O43201   6.429   6.504   4.571
14320WAT     H143202   6.425   6.414   4.614
14320WAT     H243203   6.434   6.493   4.472
14321WAT      O43204   9.083   6.596   5.681
14321WAT     H143205   9.057   6.669   5.744
14321WAT     H243206   9.153   6.538   5.725
14322WAT      O43207   3.454   6.135   5.177
14322WAT     H143208   3.378   6.079   5.144
14322WAT     H243209   3.495   6.091   5.258
14323WAT      O43210   1.792   5.896   7.437
14323WAT     H143211   1.715   5.900   7.501
14323WAT     H243212   1.869   5.851   7.481
14324WAT      O43213   0.893   8.526   7.707
14324WAT     H143214   0.823   8.541   7.637
14324WAT     H243215   0.968   8.590   7.693
14325WAT      O43216   7.657   3.959   1.654
14325WAT     H143217   7.699   4.029   1.597
14325WAT     H243218   7.565   3.939   1.620
14326WAT      O43219   0.946   3.475   6.772
14326WAT     H143220   0.857   3.495   6.731
14326WAT     H243221   1.017   3.523   6.722
14327WAT      O43222   1.536   4.947   6.038
14327WAT     H143223   1.475   4.871   6.016
14327WAT     H243224   1.589   4.972   5.957
14328WAT      O43225   9.277   5.022   1.760
14328WAT     H143226   9.234   5.073   1.834
14328WAT     H243227   9.215   5.018   1.681
14329WAT      O43228   8.142   5.473   2.349
14329WAT     H143229   8.073   5.401   2.346
14329WAT     H243230   8.230   5.438   2.317
14330WAT      O43231   9.294   7.940   1.169
14330WAT     H143232   9.388   7.944   1.135
14330WAT     H243233   9.244   8.022   1.139
14331WAT      O43234   9.036   6.756   4.482
14331WAT     H143235   8.959   6.726   4.538
14331WAT     H243236   9.029   6.854   4.465
14332WAT      O43237   8.856   4.800   7.334
14332WAT     H143238   8.836   4.711   7.375
14332WAT     H243239   8.892   4.862   7.404
14333WAT      O43240   7.887   5.857   9.411
14333WAT     H143241   7.898   5.813   9.500
14333WAT     H243242   7.930   5.947   9.412
14334WAT      O43243   3.402   7.953   3.282
14334WAT     H143244   3.312   7.994   3.299
14334WAT     H243245   3.405   7.862   3.322
14335WAT      O43246   2.927   8.172   0.547
14335WAT     H143247   2.887   8.124   0.625
14335WAT     H243248   2.978   8.107   0.490
14336WAT      O43249   9.424   5.260   6.188
14336WAT     H143250   9.393   5.346   6.147
14336WAT     H243251   9.345   5.206   6.216
14337WAT      O43252   6.671   9.220   9.186
14337WAT     H143253   6.710   9.285   9.120
14337WAT     H243254   6.701   9.245   9.279
14338WAT      O43255   5.253   6.009   0.159
14338WAT     H143256   5.302   6.046   0.080
14338WAT     H243257   5.154   6.012   0.142
14339WAT      O43258   5.034   9.650   2.792
14339WAT     H143259   5.129   9.646   2.759
14339WAT     H243260   4.972   9.650   2.713
14340WAT      O43261   0.978   4.480   6.169
14340WAT     H143262   1.034   4.546   6.118
14340WAT     H243263   0.996   4.491   6.267
14341WAT      O43264   6.946   3.015   1.708
14341WAT     H143265   6.903   2.991   1.795
14341WAT     H243266   6.919   2.948   1.638
14342WAT      O43267   2.071   6.069   7.376
14342WAT     H143268   2.116   5.982   7.355
14342WAT     H243269   2.140   6.136   7.404
14343WAT      O43270   7.408   7.405   0.305
14343WAT     H143271   7.432   7.480   0.367
14343WAT     H243272   7.338   7.347   0.348
14344WAT      O43273   9.085   8.087   6.709
14344WAT     H143274   9.027   8.021   6.662
14344WAT     H243275   9.136   8.141   6.642
14345WAT      O43276   9.811   0.207   9.443
14345WAT     H143277   9.784   0.262   9.522
14345WAT     H243278   9.810   0.110   9.467
14346WAT      O43279   2.315   7.957   4.321
14346WAT     H143280   2.410   7.939   4.295
14346WAT     H243281   2.270   7.871   4.343
14347WAT      O43282   2.899   9.321   4.684
14347WAT     H143283   2.990   9.290   4.713
14347WAT     H243284   2.838   9.321   4.763
14348WAT      O43285   5.421   3.806   1.571
14348WAT     H143286   5.353   3.864   1.617
14348WAT     H243287   5.407   3.711   1.599
14349WAT      O43288   0.419   0.831   3.018
14349WAT     H143289   0.509   0.872   3.030
14349WAT     H243290   0.357   0.865   3.088
14350WAT      O43291   5.334   4.961   0.364
14350WAT     H143292   5.386   5.025   0.308
14350WAT     H243293   5.244   4.945   0.323
14351WAT      O43294   3.814   5.521   3.933
14351WAT     H143295   3.857   5.536   4.022
14351WAT     H243296   3.739   5.457   3.943
14352WAT      O43297   4.627   5.312   1.516
14352WAT     H143298   4.671   5.348   1.598
14352WAT     H243299   4.653   5.367   1.437
14353WAT      O43300   9.670   8.164   5.629
14353WAT     H143301   9.696   8.230   5.699
14353WAT     H243302   9.733   8.171   5.551
14354WAT      O43303   3.978   0.089   1.471
14354WAT     H143304   3.931   0.140   1.399
14354WAT     H243305   4.073   0.075   1.445
14355WAT      O43306   2.570   4.015   8.342
14355WAT     H143307   2.575   3.918   8.364
14355WAT     H243308   2.518   4.062   8.413
14356WAT      O43309   3.507   6.919   1.970
14356WAT     H143310   3.560   6.987   1.919
14356WAT     H243311   3.433   6.964   2.019
14357WAT      O43312   0.758   8.598   1.536
14357WAT     H143313   0.854   8.571   1.551
14357WAT     H243314   0.755   8.674   1.471
14358WAT      O43315   4.587   1.964   4.891
14358WAT     H143316   4.628   2.041   4.842
14358WAT     H243317   4.622   1.878   4.853
14359WAT      O43318   4.031   0.444   5.991
14359WAT     H143319   3.953   0.407   5.941
14359WAT     H243320   4.020   0.425   6.088
14360WAT      O43321   7.938   2.187   7.776
14360WAT     H143322   7.967   2.240   7.855
14360WAT     H243323   7.838   2.185   7.772
14361WAT      O43324   7.106   6.577   7.540
14361WAT     H143325   7.079   6.506   7.475
14361WAT     H243326   7.028   6.603   7.596
14362WAT      O43327   0.202   7.787   2.198
14362WAT     H143328   0.289   7.742   2.177
14362WAT     H243329   0.156   7.814   2.113
14363WAT      O43330   3.905   8.224   5.214
14363WAT     H143331   3.922   8.252   5.120
14363WAT     H243332   3.833   8.155   5.216
14364WAT      O43333   0.789   8.617   2.255
14364WAT     H143334   0.772   8.698   2.198
14364WAT     H243335   0.707   8.560   2.256
14365WAT      O43336   0.701   0.607   3.620
14365WAT     H143337   0.748   0.574   3.538
14365WAT     H243338   0.622   0.549   3.639
14366WAT      O43339   3.160   0.593   2.118
14366WAT     H143340   3.100   0.645   2.179
14366WAT     H243341   3.199   0.515   2.168
14367WAT      O43342   3.473   2.671   2.081
14367WAT     H143343   3.453   2.598   2.016
14367WAT     H243344   3.400   2.739   2.078
14368WAT      O43345   3.568   9.187   8.549
14368WAT     H143346   3.499   9.242   8.502
14368WAT     H243347   3.627   9.143   8.482
14369WAT      O43348   5.292   5.659   0.349
14369WAT     H143349   5.343   5.580   0.313
14369WAT     H243350   5.195   5.647   0.329
14370WAT      O43351   6.660   6.504   0.819
14370WAT     H143352   6.691   6.574   0.755
14370WAT     H243353   6.590   6.543   0.879
14371WAT      O43354   9.613   3.700   3.214
14371WAT     H143355   9.575   3.649   3.137
14371WAT     H243356   9.657   3.783   3.181
14372WAT      O43357   6.884   3.979   8.796
14372WAT     H143358   6.866   4.042   8.872
14372WAT     H243359   6.818   3.995   8.722
14373WAT      O43360   2.852   2.689   5.040
14373WAT     H143361   2.813   2.755   5.105
14373WAT     H243362   2.803   2.602   5.048
14374WAT      O43363   8.975   3.135   7.763
14374WAT     H143364   8.924   3.069   7.818
14374WAT     H243365   8.912   3.188   7.707
14375WAT      O43366   5.893   1.626   9.110
14375WAT     H143367   5.851   1.717   9.108
14375WAT     H243368   5.881   1.586   9.201
14376WAT      O43369   4.246   6.974   1.092
14376WAT     H143370   4.153   6.996   1.123
14376WAT     H243371   4.284   7.051   1.040
14377WAT      O43372   1.733   6.240   0.375
14377WAT     H143373   1.650   6.221   0.428
14377WAT     H243374   1.764   6.156   0.331
14378WAT      O43375   1.331   6.470   1.064
14378WAT     H143376   1.409   6.449   1.006
14378WAT     H243377   1.252   6.493   1.007
14379WAT      O43378   7.427   4.809   6.740
14379WAT     H143379   7.365   4.793   6.817
14379WAT     H243380   7.521   4.785   6.768
14380WAT      O43381   0.803   6.201   2.083
14380WAT     H143382   0.865   6.141   2.032
14380WAT     H243383   0.714   6.157   2.092
14381WAT      O43384   9.500   4.072   2.374
14381WAT     H143385   9.542   3.999   2.320
14381WAT     H243386   9.506   4.158   2.325
14382WAT      O43387   5.887   7.056   1.590
14382WAT     H143388   5.983   7.076   1.611
14382WAT     H243389   5.830   7.132   1.621
14383WAT      O43390   6.553   0.670   0.451
14383WAT     H143391   6.454   0.662   0.442
14383WAT     H243392   6.578   0.767   0.454
14384WAT      O43393   9.237   1.692   7.547
14384WAT     H143394   9.237   1.659   7.641
14384WAT     H243395   9.221   1.616   7.485
14385WAT      O43396   2.704   9.191   6.615
14385WAT     H143397   2.740   9.239   6.695
14385WAT     H243398   2.721   9.246   6.533
14386WAT      O43399   8.343   6.590   7.591
14386WAT     H143400   8.385   6.680   7.581
14386WAT     H243401   8.260   6.585   7.536
14387WAT      O43402   6.334   7.638   0.797
14387WAT     H143403   6.384   7.672   0.877
14387WAT     H243404   6.291   7.551   0.820
14388WAT      O43405   1.068   2.072   4.531
14388WAT     H143406   1.033   2.109   4.445
14388WAT     H243407   0.998   2.083   4.602
14389WAT      O43408   6.290   7.106   4.790
14389WAT     H143409   6.343   7.098   4.874
14389WAT     H243410   6.320   7.035   4.726
14390WAT      O43411   4.354   6.409   2.413
14390WAT     H143412   4.321   6.340   2.478
14390WAT     H243413   4.315   6.498   2.436
14391WAT      O43414   9.585   3.027   8.736
14391WAT     H143415   9.587   3.095   8.809
14391WAT     H243416   9.534   2.946   8.767
14392WAT      O43417   8.310   5.342   7.289
14392WAT     H143418   8.296   5.296   7.202
14392WAT     H243419   8.387   5.299   7.337
14393WAT      O43420   3.678   3.392   4.551
14393WAT     H143421   3.628   3.313   4.585
14393WAT     H243422   3.750   3.417   4.615
14394WAT      O43423   0.324   9.221   8.495
14394WAT     H143424   0.330   9.176   8.584
14394WAT     H243425   0.414   9.256   8.469
14395WAT      O43426   0.385   1.397   6.216
14395WAT     H143427   0.293   1.422   6.243
14395WAT     H243428   0.451   1.457   6.262
14396WAT      O43429   1.566   2.384   3.350
14396WAT     H143430   1.647   2.410   3.403
14396WAT     H243431   1.489   2.441   3.376
14397WAT      O43432   1.912   4.066   7.968
14397WAT     H143433   1.923   3.968   7.986
14397WAT     H243434   1.914   4.116   8.054
14398WAT      O43435   9.654   0.076   3.415
14398WAT     H143436   9.753   0.084   3.409
14398WAT     H243437   9.611   0.129   3.342
14399WAT      O43438   1.656   7.415   0.246
14399WAT     H143439   1.720   7.480   0.204
14399WAT     H243440   1.705   7.356   0.310
14400WAT      O43441   7.329   0.340   0.459
14400WAT     H143442   7.395   0.351   0.385
14400WAT     H243443   7.315   0.428   0.504
14401WAT      O43444   1.398   0.272   8.768
14401WAT     H143445   1.424   0.318   8.683
14401WAT     H243446   1.356   0.338   8.830
14402WAT      O43447   7.356   1.967   3.520
14402WAT     H143448   7.316   1.997   3.606
14402WAT     H243449   7.283   1.948   3.454
14403WAT      O43450   8.233   0.333   8.587
14403WAT     H143451   8.169   0.380   8.648
14403WAT     H243452   8.238   0.237   8.612
14404WAT      O43453   3.806   8.530   4.979
14404WAT     H143454   3.785   8.566   4.888
14404WAT     H243455   3.830   8.606   5.040
14405WAT      O43456   3.753   7.106   0.806
14405WAT     H143457   3.790   7.016   0.830
14405WAT     H243458   3.662   7.094   0.767
14406WAT      O43459   4.283   2.048   4.781
14406WAT     H143460   4.242   2.078   4.695
14406WAT     H243461   4.373   2.090   4.791
14407WAT      O43462   5.384   4.275   7.359
14407WAT     H143463   5.322   4.311   7.428
14407WAT     H243464   5.332   4.243   7.280
14408WAT      O43465   5.445   9.712   7.427
14408WAT     H143466   5.455   9.730   7.525
14408WAT     H243467   5.361   9.660   7.412
14409WAT      O43468   9.658   8.622   4.840
14409WAT     H143469   9.575   8.581   4.878
14409WAT     H243470   9.717   8.550   4.803
14410WAT      O43471   9.606   5.355   4.277
14410WAT     H143472   9.597   5.447   4.314
14410WAT     H243473   9.702   5.338   4.252
14411WAT      O43474   4.092   5.820   8.397
14411WAT     H143475   4.124   5.750   8.333
14411WAT     H243476   4.057   5.776   8.479
14412WAT      O43477   1.821   1.421   4.749
14412WAT     H143478   1.819   1.339   4.807
14412WAT     H243479   1.781   1.400   4.660
14413WAT      O43480   0.679   1.146   2.078
14413WAT     H143481   0.757   1.097   2.039
14413WAT     H243482   0.704   1.184   2.167
14414WAT      O43483   1.319   0.804   5.290
14414WAT     H143484   1.327   0.880   5.355
14414WAT     H243485   1.359   0.722   5.331
14415WAT      O43486   9.390   9.081   4.736
14415WAT     H143487   9.428   8.989   4.738
14415WAT     H243488   9.359   9.103   4.644
14416WAT      O43489   4.256   0.919   6.400
14416WAT     H143490   4.324   0.925   6.326
14416WAT     H243491   4.182   0.858   6.372
14417WAT      O43492   2.753   1.806   7.138
14417WAT     H143493   2.762   1.885   7.078
14417WAT     H243494   2.666   1.759   7.119
14418WAT      O43495   1.902   4.660   0.559
14418WAT     H143496   1.938   4.729   0.497
14418WAT     H243497   1.858   4.704   0.637
14419WAT      O43498   0.531   4.339   2.236
14419WAT     H143499   0.585   4.255   2.238
14419WAT     H243500   0.513   4.370   2.330
14420WAT      O43501   0.287   1.093   5.806
14420WAT     H143502   0.282   1.127   5.900
14420WAT     H243503   0.221   1.142   5.749
14421WAT      O43504   7.198   4.918   8.915
14421WAT     H143505   7.284   4.958   8.882
14421WAT     H243506   7.127   4.988   8.916
14422WAT      O43507   5.855   2.727   1.260
14422WAT     H143508   5.882   2.681   1.345
14422WAT     H243509   5.761   2.702   1.237
14423WAT      O43510   4.688   1.700   3.190
14423WAT     H143511   4.696   1.775   3.124
14423WAT     H243512   4.643   1.733   3.273
14424WAT      O43513   0.598   1.822   0.045
14424WAT     H143514   0.571   1.728   0.063
14424WAT     H243515   0.616   1.869   0.131
14425WAT      O43516   1.907   6.965   6.772
14425WAT     H143517   1.943   7.047   6.817
14425WAT     H243518   1.816   6.984   6.735
14426WAT      O43519   3.485   3.804   5.298
14426WAT     H143520   3.491   3.872   5.225
14426WAT     H243521   3.455   3.848   5.383
14427WAT      O43522   3.904   5.805   2.932
14427WAT     H143523   3.816   5.799   2.979
14427WAT     H243524   3.903   5.748   2.850
14428WAT      O43525   6.465   0.601   1.950
14428WAT     H143526   6.447   0.547   1.868
14428WAT     H243527   6.564   0.612   1.962
14429WAT      O43528   4.973   7.262   4.554
14429WAT     H143529   4.886   7.311   4.539
14429WAT     H243530   4.979   7.185   4.492
14430WAT      O43531   7.651   2.317   3.006
14430WAT     H143532   7.672   2.249   3.076
14430WAT     H243533   7.736   2.354   2.968
14431WAT      O43534   9.002   0.201   1.026
14431WAT     H143535   8.935   0.170   0.959
14431WAT     H243536   9.049   0.122   1.066
14432WAT      O43537   3.410   5.597   7.375
14432WAT     H143538   3.423   5.676   7.316
14432WAT     H243539   3.473   5.524   7.348
14433WAT      O43540   4.696   1.161   8.175
14433WAT     H143541   4.604   1.152   8.138
14433WAT     H243542   4.761   1.112   8.116
14434WAT      O43543   7.696   0.438   4.466
14434WAT     H143544   7.768   0.459   4.533
14434WAT     H243545   7.702   0.342   4.439
14435WAT      O43546   1.031   3.696   1.802
14435WAT     H143547   1.093   3.619   1.793
14435WAT     H243548   0.994   3.699   1.895
14436WAT      O43549   2.476   5.468   8.772
14436WAT     H143550   2.467   5.398   8.843
14436WAT     H243551   2.426   5.550   8.799
14437WAT      O43552   1.348   5.317   3.439
14437WAT     H143553   1.376   5.292   3.346
14437WAT     H243554   1.328   5.235   3.492
14438WAT      O43555   4.553   1.980   1.395
14438WAT     H143556   4.474   1.919   1.392
14438WAT     H243557   4.591   1.989   1.302
14439WAT      O43558   8.845   9.289   7.167
14439WAT     H143559   8.858   9.190   7.164
14439WAT     H243560   8.842   9.319   7.263
14440WAT      O43561   8.128   4.314   6.967
14440WAT     H143562   8.052   4.276   7.019
14440WAT     H243563   8.111   4.411   6.948
14441WAT      O43564   0.136   1.092   0.872
14441WAT     H143565   0.215   1.121   0.818
14441WAT     H243566   0.163   1.082   0.968
14442WAT      O43567   2.229   0.516   0.106
14442WAT     H143568   2.295   0.445   0.084
14442WAT     H243569   2.199   0.506   0.201
14443WAT      O43570   8.256   2.056   7.256
14443WAT     H143571   8.256   2.145   7.300
14443WAT     H243572   8.211   2.063   7.166
14444WAT      O43573   7.674   5.623   2.678
14444WAT     H143574   7.701   5.655   2.587
14444WAT     H243575   7.686   5.696   2.745
14445WAT      O43576   4.124   2.752   5.735
14445WAT     H143577   4.031   2.787   5.736
14445WAT     H243578   4.140   2.700   5.651
14446WAT      O43579   2.882   5.312   2.644
14446WAT     H143580   2.927   5.400   2.657
14446WAT     H243581   2.924   5.244   2.704
14447WAT      O43582   2.592   4.530   4.949
14447WAT     H143583   2.524   4.541   4.877
14447WAT     H243584   2.561   4.574   5.033
14448WAT      O43585   0.170   1.517   3.942
14448WAT     H143586   0.200   1.426   3.913
14448WAT     H243587   0.074   1.530   3.918
14449WAT      O43588   1.087   4.210   8.352
14449WAT     H143589   1.051   4.118   8.335
14449WAT     H243590   1.053   4.273   8.282
14450WAT      O43591   1.882   1.232   3.821
14450WAT     H143592   1.906   1.280   3.736
14450WAT     H243593   1.785   1.208   3.819
14451WAT      O43594   2.483   9.235   9.659
14451WAT     H143595   2.404   9.219   9.600
14451WAT     H243596   2.509   9.332   9.654
14452WAT      O43597   6.234   2.591   0.590
14452WAT     H143598   6.198   2.511   0.541
14452WAT     H243599   6.163   2.661   0.596
14453WAT      O43600   9.371   5.265   2.536
14453WAT     H143601   9.463   5.253   2.574
14453WAT     H243602   9.309   5.296   2.608
14454WAT      O43603   9.131   6.221   8.468
14454WAT     H143604   9.121   6.265   8.379
14454WAT     H243605   9.204   6.266   8.519
14455WAT      O43606   1.544   8.969   0.979
14455WAT     H143607   1.604   8.960   0.899
14455WAT     H243608   1.530   8.879   1.020
14456WAT      O43609   7.683   5.910   4.800
14456WAT     H143610   7.683   5.986   4.865
14456WAT     H243611   7.594   5.866   4.801
14457WAT      O43612   1.365   7.839   3.241
14457WAT     H143613   1.316   7.782   3.308
14457WAT     H243614   1.329   7.821   3.150
14458WAT      O43615   5.534   1.215   7.383
14458WAT     H143616   5.566   1.121   7.391
14458WAT     H243617   5.613   1.276   7.374
14459WAT      O43618   4.661   4.889   6.675
14459WAT     H143619   4.629   4.804   6.717
14459WAT     H243620   4.757   4.879   6.648
14460WAT      O43621   3.085   5.643   3.316
14460WAT     H143622   3.184   5.648   3.327
14460WAT     H243623   3.062   5.570   3.252
14461WAT      O43624   6.101   8.763   8.227
14461WAT     H143625   6.083   8.824   8.150
14461WAT     H243626   6.027   8.772   8.294
14462WAT      O43627   3.029   5.573   8.428
14462WAT     H143628   2.955   5.536   8.483
14462WAT     H243629   3.068   5.501   8.370
14463WAT      O43630   2.772   5.998   3.236
14463WAT     H143631   2.702   5.939   3.196
14463WAT     H243632   2.765   6.089   3.197
14464WAT      O43633   9.120   0.733   4.848
14464WAT     H143634   9.059   0.796   4.801
14464WAT     H243635   9.070   0.683   4.919
14465WAT      O43636   2.559   4.742   4.296
14465WAT     H143637   2.460   4.743   4.306
14465WAT     H243638   2.583   4.744   4.199
14466WAT      O43639   5.729   9.626   8.534
14466WAT     H143640   5.643   9.676   8.528
14466WAT     H243641   5.734   9.579   8.622
14467WAT      O43642   2.771   8.529   2.649
14467WAT     H143643   2.710   8.565   2.720
14467WAT     H243644   2.735   8.442   2.616
14468WAT      O43645   7.550   5.478   5.260
14468WAT     H143646   7.460   5.514   5.236
14468WAT     H243647   7.555   5.382   5.234
14469WAT      O43648   6.881   5.368   7.110
14469WAT     H143649   6.837   5.326   7.030
14469WAT     H243650   6.925   5.454   7.083
14470WAT      O43651   4.175   8.451   9.601
14470WAT     H143652   4.147   8.376   9.541
14470WAT     H243653   4.264   8.431   9.641
14471WAT      O43654   6.718   6.263   7.655
14471WAT     H143655   6.746   6.180   7.606
14471WAT     H243656   6.740   6.254   7.752
14472WAT      O43657   3.903   7.962   8.942
14472WAT     H143658   3.851   7.940   9.025
14472WAT     H243659   3.991   7.914   8.945
14473WAT      O43660   9.066   2.765   7.561
14473WAT     H143661   8.966   2.764   7.572
14473WAT     H243662   9.106   2.821   7.634
14474WAT      O43663   5.922   4.660   8.461
14474WAT     H143664   5.880   4.719   8.529
14474WAT     H243665   5.948   4.715   8.381
14475WAT      O43666   3.941   2.525   1.873
14475WAT     H143667   3.983   2.574   1.949
14475WAT     H243668   3.849   2.495   1.899
14476WAT      O43669   5.114   3.777   1.136
14476WAT     H143670   5.050   3.765   1.061
14476WAT     H243671   5.157   3.690   1.159
14477WAT      O43672   8.805   2.469   2.860
14477WAT     H143673   8.834   2.506   2.948
14477WAT     H243674   8.705   2.459   2.859
14478WAT      O43675   7.110   8.312   3.036
14478WAT     H143676   7.198   8.359   3.040
14478WAT     H243677   7.077   8.312   2.941
14479WAT      O43678   9.482   5.796   7.697
14479WAT     H143679   9.495   5.711   7.646
14479WAT     H243680   9.396   5.839   7.670
14480WAT      O43681   1.069   5.026   9.342
14480WAT     H143682   1.061   4.938   9.389
14480WAT     H243683   0.988   5.081   9.360
14481WAT      O43684   0.665   3.825   6.849
14481WAT     H143685   0.690   3.728   6.853
14481WAT     H243686   0.572   3.834   6.812
14482WAT      O43687   4.635   2.165   5.778
14482WAT     H143688   4.561   2.163   5.845
14482WAT     H243689   4.598   2.146   5.687
14483WAT      O43690   1.560   6.389   9.176
14483WAT     H143691   1.634   6.451   9.147
14483WAT     H243692   1.478   6.443   9.197
14484WAT      O43693   3.338   5.167   5.369
14484WAT     H143694   3.318   5.136   5.276
14484WAT     H243695   3.260   5.149   5.429
14485WAT      O43696   2.029   6.305   3.346
14485WAT     H143697   2.020   6.370   3.270
14485WAT     H243698   2.120   6.265   3.345
14486WAT      O43699   8.469   6.641   6.040
14486WAT     H143700   8.442   6.559   5.990
14486WAT     H243701   8.431   6.637   6.133
14487WAT      O43702   3.832   7.936   9.746
14487WAT     H143703   3.798   7.884   9.667
14487WAT     H243704   3.755   7.974   9.796
14488WAT      O43705   1.779   9.376   2.153
14488WAT     H143706   1.802   9.293   2.202
14488WAT     H243707   1.723   9.435   2.212
14489WAT      O43708   7.444   7.206   8.857
14489WAT     H143709   7.544   7.210   8.862
14489WAT     H243710   7.415   7.111   8.845
14490WAT      O43711   2.259   4.718   3.991
14490WAT     H143712   2.243   4.804   4.040
14490WAT     H243713   2.216   4.723   3.900
14491WAT      O43714   9.180   2.206   3.543
14491WAT     H143715   9.175   2.118   3.589
14491WAT     H243716   9.092   2.227   3.500
14492WAT      O43717   0.171   6.834   2.923
14492WAT     H143718   0.141   6.929   2.919
14492WAT     H243719   0.192   6.809   3.018
14493WAT      O43720   2.644   2.131   5.857
14493WAT     H143721   2.741   2.119   5.837
14493WAT     H243722   2.608   2.209   5.806
14494WAT      O43723   3.816   9.636   5.253
14494WAT     H143724   3.882   9.565   5.275
14494WAT     H243725   3.843   9.722   5.297
14495WAT      O43726   7.134   8.213   4.309
14495WAT     H143727   7.131   8.179   4.215
14495WAT     H243728   7.161   8.139   4.371
14496WAT      O43729   9.810   5.755   4.308
14496WAT     H143730   9.812   5.801   4.397
14496WAT     H243731   9.763   5.668   4.317
14497WAT      O43732   7.799   1.114   2.781
14497WAT     H143733   7.728   1.182   2.802
14497WAT     H243734   7.761   1.022   2.790
14498WAT      O43735   4.739   6.285   9.047
14498WAT     H143736   4.737   6.185   9.045
14498WAT     H243737   4.823   6.315   9.091
14499WAT      O43738   2.572   0.268   3.354
14499WAT     H143739   2.526   0.305   3.273
14499WAT     H243740   2.522   0.188   3.388
14500WAT      O43741   1.187   6.047   7.642
14500WAT     H143742   1.218   6.137   7.671
14500WAT     H243743   1.087   6.046   7.635
14501WAT      O43744   2.093   9.025   3.334
14501WAT     H143745   2.058   8.981   3.417
14501WAT     H243746   2.027   9.093   3.302
14502WAT      O43747   2.366   8.674   1.525
14502WAT     H143748   2.431   8.612   1.481
14502WAT     H243749   2.377   8.669   1.624
14503WAT      O43750   7.654   9.062   6.456
14503WAT     H143751   7.610   8.984   6.412
14503WAT     H243752   7.599   9.092   6.534
14504WAT      O43753   1.541   5.186   6.205
14504WAT     H143754   1.456   5.222   6.166
14504WAT     H243755   1.567   5.102   6.157
14505WAT      O43756   9.796   0.053   2.042
14505WAT     H143757   9.769  -0.007   1.967
14505WAT     H243758   9.714   0.085   2.090
14506WAT      O43759   0.293   9.248   5.157
14506WAT     H143760   0.374   9.206   5.116
14506WAT     H243761   0.213   9.190   5.139
14507WAT      O43762   8.412   1.138   4.945
14507WAT     H143763   8.507   1.164   4.967
14507WAT     H243764   8.385   1.182   4.859
14508WAT      O43765   5.157   6.757   9.821
14508WAT     H143766   5.161   6.824   9.895
14508WAT     H243767   5.163   6.665   9.860
14509WAT      O43768   6.671   4.564   5.268
14509WAT     H143769   6.663   4.550   5.169
14509WAT     H243770   6.740   4.503   5.305
14510WAT      O43771   7.809   7.946   8.230
14510WAT     H143772   7.837   8.029   8.182
14510WAT     H243773   7.729   7.966   8.286
14511WAT      O43774   1.381   8.999   1.293
14511WAT     H143775   1.386   8.901   1.311
14511WAT     H243776   1.463   9.044   1.327
14512WAT      O43777   1.976   9.570   9.245
14512WAT     H143778   2.040   9.644   9.226
14512WAT     H243779   1.904   9.569   9.176
14513WAT      O43780   2.508   4.694   6.290
14513WAT     H143781   2.559   4.608   6.278
14513WAT     H243782   2.509   4.745   6.203
14514WAT      O43783   7.044   7.493   2.144
14514WAT     H143784   7.083   7.493   2.237
14514WAT     H243785   7.071   7.578   2.098
14515WAT      O43786   3.314   4.992   2.598
14515WAT     H143787   3.293   5.089   2.590
14515WAT     H243788   3.275   4.956   2.682
14516WAT      O43789   1.003   2.487   2.901
14516WAT     H143790   1.074   2.417   2.914
14516WAT     H243791   0.913   2.443   2.901
14517WAT      O43792   4.886   7.138   0.387
14517WAT     H143793   4.967   7.116   0.440
14517WAT     H243794   4.860   7.233   0.404
14518WAT      O43795   3.341   9.370   5.361
14518WAT     H143796   3.415   9.404   5.420
14518WAT     H243797   3.311   9.443   5.300
14519WAT      O43798   0.436   2.122   3.126
14519WAT     H143799   0.404   2.173   3.206
14519WAT     H243800   0.489   2.043   3.156
14520WAT      O43801   6.135   5.913   6.251
14520WAT     H143802   6.041   5.935   6.223
14520WAT     H243803   6.161   5.971   6.328
14521WAT      O43804   3.420   6.551   8.554
14521WAT     H143805   3.409   6.528   8.457
14521WAT     H243806   3.509   6.596   8.567
14522WAT      O43807   4.743   4.157   7.868
14522WAT     H143808   4.726   4.097   7.790
14522WAT     H243809   4.841   4.174   7.875
14523WAT      O43810   0.286   2.219   8.096
14523WAT     H143811   0.259   2.313   8.119
14523WAT     H243812   0.292   2.210   7.996
14524WAT      O43813   5.391   2.549   7.202
14524WAT     H143814   5.423   2.549   7.297
14524WAT     H243815   5.403   2.640   7.163
14525WAT      O43816   1.144   3.632   6.685
14525WAT     H143817   1.108   3.725   6.679
14525WAT     H243818   1.233   3.628   6.640
14526WAT      O43819   7.247   0.740   6.031
14526WAT     H143820   7.274   0.702   5.943
14526WAT     H243821   7.182   0.679   6.075
14527WAT      O43822   8.423   6.062   6.659
14527WAT     H143823   8.385   6.110   6.580
14527WAT     H243824   8.358   5.992   6.690
14528WAT      O43825   8.604   9.325   7.626
14528WAT     H143826   8.551   9.389   7.682
14528WAT     H243827   8.669   9.277   7.685
14529WAT      O43828   3.637   2.912   1.223
14529WAT     H143829   3.599   2.889   1.312
14529WAT     H243830   3.593   2.995   1.189
14530WAT      O43831   5.048   4.441   9.345
14530WAT     H143832   4.983   4.377   9.387
14530WAT     H243833   4.998   4.513   9.297
14531WAT      O43834   4.276   8.501   0.814
14531WAT     H143835   4.266   8.452   0.900
14531WAT     H243836   4.371   8.499   0.784
14532WAT      O43837   1.263   4.025   2.379
14532WAT     H143838   1.264   3.936   2.335
14532WAT     H243839   1.179   4.073   2.356
14533WAT      O43840   0.272   4.221   1.405
14533WAT     H143841   0.321   4.306   1.425
14533WAT     H243842   0.248   4.218   1.308
14534WAT      O43843   5.121   0.738   8.433
14534WAT     H143844   5.174   0.769   8.512
14534WAT     H243845   5.147   0.645   8.409
14535WAT      O43846   6.995   2.847   4.734
14535WAT     H143847   6.988   2.872   4.637
14535WAT     H243848   7.084   2.804   4.751
14536WAT      O43849   2.194   5.522   8.985
14536WAT     H143850   2.244   5.589   8.931
14536WAT     H243851   2.127   5.568   9.043
14537WAT      O43852   1.990   9.730   4.489
14537WAT     H143853   1.931   9.746   4.410
14537WAT     H243854   1.951   9.658   4.546
14538WAT      O43855   2.996   1.276   0.323
14538WAT     H143856   3.079   1.252   0.373
14538WAT     H243857   3.000   1.372   0.295
14539WAT      O43858   6.648   0.455   8.744
14539WAT     H143859   6.646   0.453   8.644
14539WAT     H243860   6.587   0.385   8.781
14540WAT      O43861   2.082   3.143   1.506
14540WAT     H143862   2.172   3.158   1.548
14540WAT     H243863   2.015   3.122   1.577
14541WAT      O43864   5.600   0.833   0.231
14541WAT     H143865   5.560   0.746   0.261
14541WAT     H243866   5.649   0.875   0.307
14542WAT      O43867   9.240   8.845   9.485
14542WAT     H143868   9.200   8.933   9.457
14542WAT     H243869   9.311   8.819   9.420
14543WAT      O43870   4.553   8.017   9.100
14543WAT     H143871   4.456   8.038   9.096
14543WAT     H243872   4.573   7.941   9.038
14544WAT      O43873   0.520   4.997   3.377
14544WAT     H143874   0.467   5.025   3.457
14544WAT     H243875   0.519   4.897   3.370
14545WAT      O43876   5.565   1.619   0.109
14545WAT     H143877   5.603   1.635   0.017
14545WAT     H243878   5.551   1.707   0.154
14546WAT      O43879   7.153   1.470   9.452
14546WAT     H143880   7.083   1.435   9.515
14546WAT     H243881   7.238   1.420   9.465
14547WAT      O43882   1.354   2.864   4.168
14547WAT     H143883   1.367   2.961   4.191
14547WAT     H243884   1.330   2.856   4.072
14548WAT      O43885   6.459   6.472   3.771
14548WAT     H143886   6.510   6.543   3.820
14548WAT     H243887   6.450   6.391   3.828
14549WAT      O43888   8.440   1.296   8.487
14549WAT     H143889   8.366   1.255   8.434
14549WAT     H243890   8.447   1.251   8.576
14550WAT      O43891   7.413   9.026   2.945
14550WAT     H143892   7.326   9.048   2.900
14550WAT     H243893   7.439   8.932   2.922
14551WAT      O43894   7.201   1.994   1.580
14551WAT     H143895   7.103   2.004   1.566
14551WAT     H243896   7.242   2.084   1.597
14552WAT      O43897   2.251   4.307   3.139
14552WAT     H143898   2.155   4.334   3.145
14552WAT     H243899   2.257   4.209   3.124
14553WAT      O43900   6.485   6.015   1.365
14553WAT     H143901   6.529   6.024   1.276
14553WAT     H243902   6.553   6.021   1.437
14554WAT      O43903   8.157   2.268   1.796
14554WAT     H143904   8.168   2.338   1.867
14554WAT     H243905   8.189   2.303   1.708
14555WAT      O43906   7.868   4.486   8.076
14555WAT     H143907   7.874   4.425   7.997
14555WAT     H243908   7.801   4.450   8.141
14556WAT      O43909   6.328   2.734   1.463
14556WAT     H143910   6.354   2.692   1.550
14556WAT     H243911   6.277   2.818   1.480
14557WAT      O43912   7.329   3.695   7.815
14557WAT     H143913   7.359   3.776   7.764
14557WAT     H243914   7.408   3.640   7.840
14558WAT      O43915   1.095   9.511   7.577
14558WAT     H143916   1.018   9.460   7.617
14558WAT     H243917   1.103   9.600   7.621
14559WAT      O43918   4.986   7.799   2.805
14559WAT     H143919   5.071   7.761   2.769
14559WAT     H243920   4.950   7.866   2.741
14560WAT      O43921   4.236   6.563   1.322
14560WAT     H143922   4.257   6.522   1.233
14560WAT     H243923   4.281   6.510   1.394
14561WAT      O43924   7.730   5.657   6.730
14561WAT     H143925   7.669   5.579   6.740
14561WAT     H243926   7.678   5.742   6.733
14562WAT      O43927   8.490   8.108   8.227
14562WAT     H143928   8.483   8.175   8.153
14562WAT     H243929   8.546   8.146   8.301
14563WAT      O43930   9.773   2.113   6.222
14563WAT     H143931   9.813   2.193   6.177
14563WAT     H243932   9.678   2.102   6.192
14564WAT      O43933   4.557   4.381   1.841
14564WAT     H143934   4.568   4.377   1.940
14564WAT     H243935   4.627   4.440   1.802
14565WAT      O43936   0.999   8.246   5.699
14565WAT     H143937   0.954   8.284   5.780
14565WAT     H243938   0.967   8.294   5.618
14566WAT      O43939   1.791   7.966   9.348
14566WAT     H143940   1.714   8.006   9.300
14566WAT     H243941   1.859   7.935   9.283
14567WAT      O43942   7.692   2.800   4.925
14567WAT     H143943   7.709   2.702   4.926
14567WAT     H243944   7.703   2.835   4.833
14568WAT      O43945   8.318   0.099   7.431
14568WAT     H143946   8.358   0.016   7.470
14568WAT     H243947   8.223   0.081   7.403
14569WAT      O43948   4.216   3.083   7.157
14569WAT     H143949   4.196   2.995   7.114
14569WAT     H243950   4.166   3.090   7.243
14570WAT      O43951   6.638   2.546   2.422
14570WAT     H143952   6.539   2.546   2.437
14570WAT     H243953   6.676   2.634   2.453
14571WAT      O43954   7.018   4.100   6.208
14571WAT     H143955   7.093   4.051   6.163
14571WAT     H243956   7.015   4.194   6.174
14572WAT      O43957   6.192   5.620   6.815
14572WAT     H143958   6.245   5.701   6.840
14572WAT     H243959   6.153   5.633   6.724
14573WAT      O43960   4.153   6.487   7.421
14573WAT     H143961   4.247   6.480   7.388
14573WAT     H243962   4.151   6.471   7.520
14574WAT      O43963   7.589   8.746   3.459
14574WAT     H143964   7.623   8.685   3.388
14574WAT     H243965   7.494   8.725   3.479
14575WAT      O43966   4.688   2.902   9.888
14575WAT     H143967   4.767   2.962   9.874
14575WAT     H243968   4.616   2.928   9.824
14576WAT      O43969   0.557   5.995   0.507
14576WAT     H143970   0.570   5.973   0.410
14576WAT     H243971   0.571   6.093   0.521
14577WAT      O43972   1.756   1.921   8.442
14577WAT     H143973   1.708   1.905   8.356
14577WAT     H243974   1.852   1.938   8.424
14578WAT      O43975   5.797   4.973   0.879
14578WAT     H143976   5.763   4.914   0.952
14578WAT     H243977   5.772   5.067   0.898
14579WAT      O43978   8.709   7.282   6.403
14579WAT     H143979   8.746   7.195   6.437
14579WAT     H243980   8.609   7.282   6.412
14580WAT      O43981   3.394   4.281   1.364
14580WAT     H143982   3.483   4.297   1.322
14580WAT     H243983   3.360   4.366   1.405
14581WAT      O43984   8.483   2.637   8.731
14581WAT     H143985   8.516   2.696   8.804
14581WAT     H243986   8.543   2.557   8.724
14582WAT      O43987   8.713   9.246   1.986
14582WAT     H143988   8.658   9.290   1.916
14582WAT     H243989   8.746   9.157   1.953
14583WAT      O43990   4.122   1.435   2.161
14583WAT     H143991   4.121   1.502   2.087
14583WAT     H243992   4.029   1.403   2.179
14584WAT      O43993   4.117   4.746   6.906
14584WAT     H143994   4.064   4.708   6.981
14584WAT     H243995   4.161   4.831   6.935
14585WAT      O43996   3.770   4.422   9.491
14585WAT     H143997   3.780   4.362   9.411
14585WAT     H243998   3.775   4.517   9.462
14586WAT      O43999   6.006   3.520   0.969
14586WAT     H144000   6.001   3.552   0.874
14586WAT     H244001   6.080   3.568   1.016
14587WAT      O44002   8.848   7.463   7.200
14587WAT     H144003   8.806   7.446   7.289
14587WAT     H244004   8.947   7.471   7.211
14588WAT      O44005   0.944   0.778   5.476
14588WAT     H144006   0.925   0.717   5.553
14588WAT     H244007   0.976   0.866   5.510
14589WAT      O44008   0.242   8.686   8.170
14589WAT     H144009   0.264   8.672   8.266
14589WAT     H244010   0.320   8.727   8.123
14590WAT      O44011   3.664   6.077   1.832
14590WAT     H144012   3.671   6.173   1.804
14590WAT     H244013   3.714   6.020   1.768
14591WAT      O44014   4.228   6.821   6.431
14591WAT     H144015   4.173   6.738   6.425
14591WAT     H244016   4.316   6.806   6.385
14592WAT      O44017   6.645   4.716   9.064
14592WAT     H144018   6.590   4.695   8.983
14592WAT     H244019   6.592   4.694   9.146
14593WAT      O44020   6.173   6.547   2.696
14593WAT     H144021   6.098   6.558   2.631
14593WAT     H244022   6.140   6.497   2.776
14594WAT      O44023   4.802   8.041   8.085
14594WAT     H144024   4.806   8.140   8.075
14594WAT     H244025   4.888   8.008   8.124
14595WAT      O44026   6.972   4.724   9.814
14595WAT     H144027   7.064   4.697   9.785
14595WAT     H244028   6.915   4.642   9.826
14596WAT      O44029   6.979   0.605   8.135
14596WAT     H144030   6.910   0.678   8.134
14596WAT     H244031   6.942   0.526   8.184
14597WAT      O44032   0.568   3.104   0.980
14597WAT     H144033   0.524   3.113   0.890
14597WAT     H244034   0.534   3.022   1.025
14598WAT      O44035   2.110   8.736   1.799
14598WAT     H144036   2.202   8.699   1.786
14598WAT     H244037   2.115   8.815   1.860
14599WAT      O44038   3.133   7.494   2.033
14599WAT     H144039   3.121   7.404   2.074
14599WAT     H244040   3.085   7.497   1.945
14600WAT      O44041   4.693   4.803   9.469
14600WAT     H144042   4.646   4.882   9.508
14600WAT     H244043   4.636   4.722   9.480
14601WAT      O44044   5.592   3.971   1.829
14601WAT     H144045   5.650   4.035   1.879
14601WAT     H244046   5.571   4.008   1.739
14602WAT      O44047   7.923   1.941   2.690
14602WAT     H144048   8.008   1.924   2.640
14602WAT     H244049   7.845   1.905   2.638
14603WAT      O44050   4.088   6.749   4.756
14603WAT     H144051   4.074   6.732   4.854
14603WAT     H244052   4.017   6.700   4.704
14604WAT      O44053   8.464   1.715   2.931
14604WAT     H144054   8.418   1.742   2.845
14604WAT     H244055   8.559   1.692   2.912
14605WAT      O44056   0.692   4.112   8.820
14605WAT     H144057   0.734   4.083   8.906
14605WAT     H244058   0.687   4.212   8.818
14606WAT      O44059   3.919   2.577   6.447
14606WAT     H144060   3.995   2.541   6.392
14606WAT     H244061   3.879   2.503   6.502
14607WAT      O44062   7.294   8.093   9.131
14607WAT     H144063   7.383   8.087   9.085
14607WAT     H244064   7.222   8.104   9.062
14608WAT      O44065   4.524   5.857   5.650
14608WAT     H144066   4.557   5.794   5.579
14608WAT     H244067   4.471   5.930   5.607
14609WAT      O44068   4.451   2.833   3.877
14609WAT     H144069   4.403   2.860   3.793
14609WAT     H244070   4.508   2.753   3.859
14610WAT      O44071   3.358   6.003   8.880
14610WAT     H144072   3.302   6.056   8.944
14610WAT     H244073   3.399   6.065   8.813
14611WAT      O44074   7.518   3.432   0.714
14611WAT     H144075   7.475   3.465   0.630
14611WAT     H244076   7.451   3.381   0.769
14612WAT      O44077   2.084   5.828   4.907
14612WAT     H144078   2.175   5.812   4.869
14612WAT     H244079   2.024   5.866   4.837
14613WAT      O44080   1.120   6.084   4.340
14613WAT     H144081   1.172   6.029   4.274
14613WAT     H244082   1.151   6.063   4.432
14614WAT      O44083   4.321   5.216   8.743
14614WAT     H144084   4.391   5.210   8.815
14614WAT     H244085   4.349   5.160   8.665
14615WAT      O44086   5.099   2.293   0.859
14615WAT     H144087   5.164   2.260   0.928
14615WAT     H244088   5.070   2.217   0.801
14616WAT      O44089   1.722   8.545   9.752
14616WAT     H144090   1.814   8.508   9.764
14616WAT     H244091   1.655   8.482   9.790
14617WAT      O44092   9.522   6.218   2.067
14617WAT     H144093   9.451   6.161   2.108
14617WAT     H244094   9.579   6.258   2.139
14618WAT      O44095   3.657   3.444   0.317
14618WAT     H144096   3.675   3.413   0.224
14618WAT     H244097   3.734   3.499   0.350
14619WAT      O44098   6.769   2.843   4.873
14619WAT     H144099   6.853   2.843   4.820
14619WAT     H244100   6.791   2.839   4.971
14620WAT      O44101   5.071   0.916   2.053
14620WAT     H144102   5.052   0.875   2.142
14620WAT     H244103   5.165   0.897   2.027
14621WAT      O44104   2.402   7.802   9.569
14621WAT     H144105   2.401   7.750   9.483
14621WAT     H244106   2.340   7.880   9.560
14622WAT      O44107   5.043   7.253   4.819
14622WAT     H144108   4.982   7.306   4.877
14622WAT     H244109   5.024   7.273   4.723
14623WAT      O44110   3.969   0.986   9.774
14623WAT     H144111   3.872   1.007   9.788
14623WAT     H244112   4.020   1.071   9.764
14624WAT      O44113   5.771   8.005   3.677
14624WAT     H144114   5.717   8.083   3.710
14624WAT     H244115   5.750   7.989   3.580
14625WAT      O44116   5.144   7.712   5.226
14625WAT     H144117   5.214   7.693   5.294
14625WAT     H244118   5.067   7.649   5.238
14626WAT      O44119   3.129   7.730   7.172
14626WAT     H144120   3.177   7.671   7.107
14626WAT     H244121   3.193   7.797   7.209
14627WAT      O44122   1.687   7.766   1.184
14627WAT     H144123   1.623   7.838   1.211
14627WAT     H244124   1.694   7.698   1.258
14628WAT      O44125   2.831   0.441   5.067
14628WAT     H144126   2.768   0.481   5.001
14628WAT     H244127   2.809   0.344   5.080
14629WAT      O44128   8.510   2.302   8.086
14629WAT     H144129   8.528   2.297   8.184
14629WAT     H244130   8.571   2.239   8.038
14630WAT      O44131   4.876   7.903   0.080
14630WAT     H144132   4.807   7.868   0.016
14630WAT     H244133   4.913   7.827   0.134
14631WAT      O44134   4.134   3.599   0.673
14631WAT     H144135   4.151   3.522   0.611
14631WAT     H244136   4.199   3.595   0.749
14632WAT      O44137   5.707   4.755   7.147
14632WAT     H144138   5.699   4.806   7.061
14632WAT     H244139   5.680   4.814   7.223
14633WAT      O44140   3.830   6.873   5.195
14633WAT     H144141   3.808   6.794   5.251
14633WAT     H244142   3.827   6.848   5.098
14634WAT      O44143   6.900   4.620   9.151
14634WAT     H144144   6.965   4.619   9.075
14634WAT     H244145   6.812   4.655   9.119
14635WAT      O44146   7.400   1.870   4.316
14635WAT     H144147   7.401   1.857   4.217
14635WAT     H244148   7.305   1.874   4.348
14636WAT      O44149   0.556   6.387   9.570
14636WAT     H144150   0.467   6.418   9.605
14636WAT     H244151   0.628   6.449   9.601
14637WAT      O44152   3.436   5.453   3.722
14637WAT     H144153   3.434   5.547   3.755
14637WAT     H244154   3.531   5.421   3.720
14638WAT      O44155   5.438   9.340   7.644
14638WAT     H144156   5.485   9.311   7.727
14638WAT     H244157   5.381   9.419   7.665
14639WAT      O44158   8.929   0.087   7.250
14639WAT     H144159   8.887   0.177   7.261
14639WAT     H244160   8.859   0.020   7.223
14640WAT      O44161   2.847   6.554   4.985
14640WAT     H144162   2.807   6.645   4.997
14640WAT     H244163   2.946   6.559   4.992
14641WAT      O44164   6.990   6.641   0.141
14641WAT     H144165   6.893   6.662   0.152
14641WAT     H244166   7.001   6.566   0.076
14642WAT      O44167   6.106   3.971   8.033
14642WAT     H144168   6.072   3.980   7.940
14642WAT     H244169   6.187   3.913   8.033
14643WAT      O44170   8.796   4.062   3.183
14643WAT     H144171   8.770   4.110   3.100
14643WAT     H244172   8.893   4.037   3.179
14644WAT      O44173   7.685   6.231   7.293
14644WAT     H144174   7.629   6.260   7.370
14644WAT     H244175   7.731   6.311   7.254
14645WAT      O44176   4.469   5.398   3.140
14645WAT     H144177   4.512   5.319   3.183
14645WAT     H244178   4.529   5.478   3.151
14646WAT      O44179   5.861   3.700   7.792
14646WAT     H144180   5.775   3.721   7.839
14646WAT     H244181   5.881   3.603   7.800
14647WAT      O44182   8.844   1.898   0.930
14647WAT     H144183   8.794   1.821   0.892
14647WAT     H244184   8.850   1.971   0.862
14648WAT      O44185   9.539   1.882   0.306
14648WAT     H144186   9.512   1.845   0.395
14648WAT     H244187   9.619   1.833   0.272
14649WAT      O44188   2.159   2.978   6.882
14649WAT     H144189   2.155   2.906   6.952
14649WAT     H244190   2.125   3.064   6.920
14650WAT      O44191   7.962   1.379   5.765
14650WAT     H144192   7.896   1.454   5.766
14650WAT     H244193   7.941   1.315   5.840
14651WAT      O44194   3.899   3.386   7.586
14651WAT     H144195   3.957   3.351   7.512
14651WAT     H244196   3.827   3.443   7.547
14652WAT      O44197   9.673   7.968   3.004
14652WAT     H144198   9.587   7.924   2.980
14652WAT     H244199   9.700   8.030   2.931
14653WAT      O44200   5.665   0.899   3.664
14653WAT     H144201   5.683   0.870   3.571
14653WAT     H244202   5.570   0.929   3.672
14654WAT      O44203   5.946   2.582   7.170
14654WAT     H144204   5.931   2.644   7.247
14654WAT     H244205   5.983   2.635   7.093
14655WAT      O44206   9.237   1.086   8.790
14655WAT     H144207   9.150   1.131   8.770
14655WAT     H244208   9.301   1.102   8.715
14656WAT      O44209   3.869   0.137   0.008
14656WAT     H144210   3.884   0.227   0.048
14656WAT     H244211   3.910   0.067   0.066
14657WAT      O44212   2.937   5.827   4.022
14657WAT     H144213   2.922   5.728   4.015
14657WAT     H244214   2.891   5.873   3.946
14658WAT      O44215   1.850   5.145   7.124
14658WAT     H144216   1.868   5.047   7.126
14658WAT     H244217   1.756   5.163   7.152
14659WAT      O44218   3.233   4.476   7.138
14659WAT     H144219   3.212   4.379   7.147
14659WAT     H244220   3.328   4.492   7.166
14660WAT      O44221   2.871   3.290   2.343
14660WAT     H144222   2.930   3.315   2.420
14660WAT     H244223   2.906   3.331   2.260
14661WAT      O44224   0.076   5.009   9.327
14661WAT     H144225   0.112   4.931   9.379
14661WAT     H244226   0.093   5.094   9.377
14662WAT      O44227   2.839   9.546   7.310
14662WAT     H144228   2.871   9.459   7.273
14662WAT     H244229   2.916   9.611   7.312
14663WAT      O44230   0.212   0.574   4.802
14663WAT     H144231   0.159   0.522   4.869
14663WAT     H244232   0.294   0.522   4.777
14664WAT      O44233   9.486   4.684   5.797
14664WAT     H144234   9.446   4.599   5.763
14664WAT     H244235   9.513   4.742   5.720
14665WAT      O44236   4.102   6.914   2.188
14665WAT     H144237   4.124   6.999   2.236
14665WAT     H244238   4.032   6.864   2.239
14666WAT      O44239   3.559   6.707   0.389
14666WAT     H144240   3.508   6.755   0.460
14666WAT     H244241   3.551   6.758   0.302
14667WAT      O44242   1.615   7.587   6.752
14667WAT     H144243   1.521   7.607   6.726
14667WAT     H244244   1.631   7.619   6.846
14668WAT      O44245   9.631   5.671   0.826
14668WAT     H144246   9.682   5.603   0.773
14668WAT     H244247   9.590   5.738   0.764
14669WAT      O44248   6.697   4.541   6.125
14669WAT     H144249   6.667   4.559   6.031
14669WAT     H244250   6.623   4.499   6.177
14670WAT      O44251   3.363   2.384   7.869
14670WAT     H144252   3.268   2.354   7.877
14670WAT     H244253   3.366   2.483   7.855
14671WAT      O44254   0.629   2.276   0.255
14671WAT     H144255   0.549   2.303   0.309
14671WAT     H244256   0.710   2.324   0.289
14672WAT      O44257   4.423   0.778   3.203
14672WAT     H144258   4.494   0.778   3.273
14672WAT     H244259   4.373   0.864   3.206
14673WAT      O44260   7.342   3.523   4.556
14673WAT     H144261   7.333   3.475   4.468
14673WAT     H244262   7.273   3.595   4.561
14674WAT      O44263   5.114   9.362   4.240
14674WAT     H144264   5.071   9.274   4.220
14674WAT     H244265   5.069   9.404   4.319
14675WAT      O44266   6.000   9.244   8.539
14675WAT     H144267   6.005   9.327   8.484
14675WAT     H244268   6.068   9.178   8.506
14676WAT      O44269   8.345   1.009   9.141
14676WAT     H144270   8.359   0.981   9.046
14676WAT     H244271   8.376   1.103   9.153
14677WAT      O44272   7.117   8.348   2.737
14677WAT     H144273   7.209   8.386   2.738
14677WAT     H244274   7.122   8.250   2.719
14678WAT      O44275   1.584   2.231   4.918
14678WAT     H144276   1.603   2.253   4.823
14678WAT     H244277   1.564   2.133   4.927
14679WAT      O44278   7.470   8.987   0.271
14679WAT     H144279   7.393   9.043   0.242
14679WAT     H244280   7.484   8.913   0.205
14680WAT      O44281   5.667   1.202   2.718
14680WAT     H144282   5.584   1.231   2.766
14680WAT     H244283   5.747   1.232   2.770
14681WAT      O44284   8.914   4.374   4.744
14681WAT     H144285   8.985   4.353   4.811
14681WAT     H244286   8.954   4.423   4.667
14682WAT      O44287   3.187   1.215   3.593
14682WAT     H144288   3.100   1.195   3.548
14682WAT     H244289   3.184   1.307   3.632
14683WAT      O44290   4.145   0.627   3.221
14683WAT     H144291   4.228   0.678   3.200
14683WAT     H244292   4.138   0.548   3.161
14684WAT      O44293   7.697   2.495   3.621
14684WAT     H144294   7.770   2.553   3.586
14684WAT     H244295   7.730   2.401   3.631
14685WAT      O44296   5.925   2.951   9.364
14685WAT     H144297   5.826   2.957   9.377
14685WAT     H244298   5.965   2.891   9.434
14686WAT      O44299   4.826   1.729   7.532
14686WAT     H144300   4.739   1.778   7.530
14686WAT     H244301   4.809   1.632   7.547
14687WAT      O44302   7.237   5.065   5.542
14687WAT     H144303   7.300   5.131   5.501
14687WAT     H244304   7.157   5.113   5.576
14688WAT      O44305   0.791   2.141   9.708
14688WAT     H144306   0.799   2.200   9.627
14688WAT     H244307   0.732   2.186   9.775
14689WAT      O44308   9.812   9.353   8.414
14689WAT     H144309   9.893   9.332   8.358
14689WAT     H244310   9.826   9.440   8.461
14690WAT      O44311   0.182   2.454   5.742
14690WAT     H144312   0.141   2.504   5.667
14690WAT     H244313   0.233   2.517   5.801
14691WAT      O44314   8.253   7.167   9.566
14691WAT     H144315   8.266   7.087   9.625
14691WAT     H244316   8.190   7.143   9.492
14692WAT      O44317   4.900   2.568   9.366
14692WAT     H144318   4.992   2.530   9.374
14692WAT     H244319   4.833   2.500   9.396
14693WAT      O44320   3.749   3.523   1.306
14693WAT     H144321   3.759   3.426   1.326
14693WAT     H244322   3.741   3.575   1.392
14694WAT      O44323   9.813   7.550   4.982
14694WAT     H144324   9.869   7.628   4.954
14694WAT     H244325   9.870   7.467   4.984
14695WAT      O44326   9.214   7.253   8.077
14695WAT     H144327   9.220   7.338   8.129
14695WAT     H244328   9.174   7.182   8.134
14696WAT      O44329   2.082   0.636   9.814
14696WAT     H144330   1.987   0.624   9.839
14696WAT     H244331   2.141   0.587   9.879
14697WAT      O44332   0.187   0.017   5.397
14697WAT     H144333   0.160   0.089   5.333
14697WAT     H244334   0.175   0.049   5.490
14698WAT      O44335   8.068   5.533   0.842
14698WAT     H144336   7.993   5.484   0.887
14698WAT     H244337   8.155   5.490   0.865
14699WAT      O44338   2.475   0.388   0.802
14699WAT     H144339   2.549   0.387   0.870
14699WAT     H244340   2.425   0.301   0.806
14700WAT      O44341   8.627   8.734   8.693
14700WAT     H144342   8.554   8.785   8.740
14700WAT     H244343   8.617   8.745   8.594
14701WAT      O44344   5.398   2.040   7.275
14701WAT     H144345   5.340   2.115   7.308
14701WAT     H244346   5.365   2.010   7.185
14702WAT      O44347   8.230   5.394   9.268
14702WAT     H144348   8.178   5.445   9.337
14702WAT     H244349   8.300   5.339   9.314
14703WAT      O44350   9.106   3.731   9.276
14703WAT     H144351   9.144   3.772   9.359
14703WAT     H244352   9.017   3.772   9.256
14704WAT      O44353   7.211   3.353   1.037
14704WAT     H144354   7.253   3.291   0.970
14704WAT     H244355   7.283   3.393   1.094
14705WAT      O44356   3.160   9.187   5.320
14705WAT     H144357   3.162   9.100   5.370
14705WAT     H244358   3.238   9.243   5.347
14706WAT      O44359   2.235   5.872   4.562
14706WAT     H144360   2.231   5.787   4.614
14706WAT     H244361   2.302   5.934   4.603
14707WAT      O44362   2.403   8.726   5.537
14707WAT     H144363   2.381   8.818   5.506
14707WAT     H244364   2.333   8.662   5.504
14708WAT      O44365   8.269   7.220   7.584
14708WAT     H144366   8.169   7.217   7.577
14708WAT     H244367   8.296   7.306   7.628
14709WAT      O44368   2.723   8.026   6.231
14709WAT     H144369   2.675   7.943   6.261
14709WAT     H244370   2.732   8.089   6.308
14710WAT      O44371   4.479   9.295   1.629
14710WAT     H144372   4.468   9.286   1.530
14710WAT     H244373   4.392   9.320   1.671
14711WAT      O44374   8.266   1.618   6.336
14711WAT     H144375   8.234   1.532   6.297
14711WAT     H244376   8.187   1.676   6.358
14712WAT      O44377   3.192   0.069   0.273
14712WAT     H144378   3.148   0.113   0.352
14712WAT     H244379   3.228  -0.020   0.300
14713WAT      O44380   7.540   0.130   3.635
14713WAT     H144381   7.484   0.048   3.621
14713WAT     H244382   7.557   0.142   3.732
14714WAT      O44383   6.764   5.778   0.405
14714WAT     H144384   6.804   5.759   0.494
14714WAT     H244385   6.665   5.789   0.415
14715WAT      O44386   5.966   5.043  -0.002
14715WAT     H144387   6.057   5.041   0.040
14715WAT     H244388   5.899   5.009   0.064
14716WAT      O44389   7.873   3.664   8.390
14716WAT     H144390   7.812   3.592   8.356
14716WAT     H244391   7.828   3.713   8.465
14717WAT      O44392   5.501   7.803   5.565
14717WAT     H144393   5.439   7.846   5.631
14717WAT     H244394   5.586   7.777   5.610
14718WAT      O44395   5.635   5.039   7.986
14718WAT     H144396   5.542   5.004   8.000
14718WAT     H244397   5.645   5.069   7.891
14719WAT      O44398   6.229   9.808   2.620
14719WAT     H144399   6.181   9.722   2.637
14719WAT     H244400   6.327   9.792   2.619
14720WAT      O44401   9.002   7.724   5.148
14720WAT     H144402   8.949   7.809   5.156
14720WAT     H244403   9.042   7.701   5.236
14721WAT      O44404   3.977   9.103   7.756
14721WAT     H144405   3.980   9.036   7.830
14721WAT     H244406   4.030   9.184   7.783
14722WAT      O44407   5.384   6.773   3.682
14722WAT     H144408   5.343   6.860   3.654
14722WAT     H244409   5.339   6.698   3.634
14723WAT      O44410   5.172   1.474   5.218
14723WAT     H144411   5.171   1.391   5.274
14723WAT     H244412   5.119   1.546   5.263
14724WAT      O44413   5.628   6.295   0.667
14724WAT     H144414   5.611   6.340   0.579
14724WAT     H244415   5.664   6.362   0.732
14725WAT      O44416   0.969   2.499   8.135
14725WAT     H144417   0.885   2.451   8.161
14725WAT     H244418   0.972   2.588   8.181
14726WAT      O44419   8.290   9.142   1.522
14726WAT     H144420   8.294   9.074   1.595
14726WAT     H244421   8.318   9.231   1.557
14727WAT      O44422   0.107   9.326   0.122
14727WAT     H144423   0.113   9.245   0.063
14727WAT     H244424   0.117   9.298   0.218
14728WAT      O44425   3.958   3.994   5.934
14728WAT     H144426   3.940   4.042   6.020
14728WAT     H244427   4.029   3.925   5.948
14729WAT      O44428   5.783   7.419   4.238
14729WAT     H144429   5.814   7.328   4.208
14729WAT     H244430   5.798   7.485   4.164
14730WAT      O44431   6.996   1.830   7.658
14730WAT     H144432   6.962   1.736   7.659
14730WAT     H244433   7.092   1.830   7.627
14731WAT      O44434   7.834   2.202   8.887
14731WAT     H144435   7.750   2.203   8.941
14731WAT     H244436   7.901   2.142   8.931
14732WAT      O44437   7.617   0.861   9.766
14732WAT     H144438   7.675   0.911   9.830
14732WAT     H244439   7.609   0.765   9.796
14733WAT      O44440   9.371   5.561   2.811
14733WAT     H144441   9.290   5.533   2.759
14733WAT     H244442   9.350   5.643   2.863
14734WAT      O44443   7.268   6.252   9.016
14734WAT     H144444   7.238   6.158   8.995
14734WAT     H244445   7.233   6.314   8.946
14735WAT      O44446   7.398   8.650   3.794
14735WAT     H144447   7.343   8.682   3.716
14735WAT     H244448   7.412   8.552   3.787
14736WAT      O44449   1.550   2.594   9.782
14736WAT     H144450   1.459   2.602   9.742
14736WAT     H244451   1.609   2.666   9.746
14737WAT      O44452   4.859   5.986   7.806
14737WAT     H144453   4.927   5.917   7.779
14737WAT     H244454   4.811   6.019   7.725
14738WAT      O44455   6.126   6.634   4.331
14738WAT     H144456   6.100   6.538   4.345
14738WAT     H244457   6.109   6.660   4.236
14739WAT      O44458   3.020   6.383   9.883
14739WAT     H144459   3.115   6.405   9.858
14739WAT     H244460   2.986   6.313   9.820
14740WAT      O44461   8.265   4.863   9.760
14740WAT     H144462   8.184   4.812   9.730
14740WAT     H244463   8.342   4.843   9.698
14741WAT      O44464   5.181   1.035   9.403
14741WAT     H144465   5.175   0.936   9.410
14741WAT     H244466   5.243   1.070   9.473
14742WAT      O44467   1.219   5.293   5.603
14742WAT     H144468   1.162   5.215   5.579
14742WAT     H244469   1.164   5.376   5.605
14743WAT      O44470   5.681   6.226   8.698
14743WAT     H144471   5.658   6.240   8.602
14743WAT     H244472   5.779   6.207   8.706
14744WAT      O44473   7.472   3.845   8.617
14744WAT     H144474   7.454   3.775   8.548
14744WAT     H244475   7.535   3.913   8.580
14745WAT      O44476   2.233   1.284   7.784
14745WAT     H144477   2.228   1.327   7.874
14745WAT     H244478   2.196   1.192   7.789
14746WAT      O44479   2.491   0.977   8.485
14746WAT     H144480   2.526   0.883   8.491
14746WAT     H244481   2.391   0.976   8.492
14747WAT      O44482   1.008   9.680   0.151
14747WAT     H144483   0.918   9.720   0.167
14747WAT     H244484   0.999   9.581   0.136
14748WAT      O44485   8.684   0.971   2.703
14748WAT     H144486   8.779   0.947   2.681
14748WAT     H244487   8.681   1.062   2.743
14749WAT      O44488   4.969   3.799   9.777
14749WAT     H144489   4.999   3.891   9.801
14749WAT     H244490   4.871   3.800   9.756
14750WAT      O44491   9.669   8.332   9.084
14750WAT     H144492   9.739   8.263   9.065
14750WAT     H244493   9.608   8.340   9.005
14751WAT      O44494   4.537   5.128   0.450
14751WAT     H144495   4.630   5.165   0.449
14751WAT     H244496   4.480   5.186   0.509
14752WAT      O44497   3.924   3.959   3.014
14752WAT     H144498   3.870   3.995   2.938
14752WAT     H244499   3.924   4.024   3.090
14753WAT      O44500   8.819   0.153   4.761
14753WAT     H144501   8.767   0.230   4.727
14753WAT     H244502   8.782   0.068   4.724
14754WAT      O44503   7.495   7.550   6.866
14754WAT     H144504   7.554   7.613   6.815
14754WAT     H244505   7.507   7.565   6.964
14755WAT      O44506   1.024   8.595   1.558
14755WAT     H144507   1.093   8.539   1.603
14755WAT     H244508   1.034   8.690   1.589
14756WAT      O44509   3.240   0.677   7.202
14756WAT     H144510   3.203   0.597   7.249
14756WAT     H244511   3.277   0.742   7.269
14757WAT      O44512   8.115   8.775   6.486
14757WAT     H144513   8.212   8.778   6.462
14757WAT     H244514   8.103   8.794   6.583
14758WAT      O44515   0.389   7.520   9.245
14758WAT     H144516   0.404   7.556   9.153
14758WAT     H244517   0.296   7.484   9.252
14759WAT      O44518   9.458   2.831   6.473
14759WAT     H144519   9.394   2.855   6.401
14759WAT     H244520   9.477   2.911   6.529
14760WAT      O44521   3.828   1.421   2.295
14760WAT     H144522   3.891   1.478   2.349
14760WAT     H244523   3.754   1.388   2.354
14761WAT      O44524   3.564   1.859   1.443
14761WAT     H144525   3.512   1.805   1.510
14761WAT     H244526   3.509   1.937   1.413
14762WAT      O44527   2.521   0.683   8.402
14762WAT     H144528   2.574   0.729   8.330
14762WAT     H244529   2.571   0.602   8.433
14763WAT      O44530   3.959   5.116   3.480
14763WAT     H144531   4.018   5.188   3.517
14763WAT     H244532   3.893   5.088   3.549
14764WAT      O44533   2.534   6.786   1.530
14764WAT     H144534   2.510   6.851   1.458
14764WAT     H244535   2.479   6.804   1.612
14765WAT      O44536   6.349   6.180   6.172
14765WAT     H144537   6.361   6.231   6.087
14765WAT     H244538   6.311   6.090   6.151
14766WAT      O44539   2.681   5.222   2.401
14766WAT     H144540   2.748   5.244   2.472
14766WAT     H244541   2.701   5.276   2.319
14767WAT      O44542   8.799   9.393   3.157
14767WAT     H144543   8.845   9.326   3.215
14767WAT     H244544   8.700   9.376   3.159
14768WAT      O44545   9.795   4.426   6.747
14768WAT     H144546   9.883   4.389   6.774
14768WAT     H244547   9.802   4.526   6.737
14769WAT      O44548   7.682   6.463   2.881
14769WAT     H144549   7.613   6.462   2.808
14769WAT     H244550   7.639   6.493   2.966
14770WAT      O44551   5.410   3.938   7.035
14770WAT     H144552   5.413   3.934   6.935
14770WAT     H244553   5.375   3.852   7.071
14771WAT      O44554   4.453   7.964   1.780
14771WAT     H144555   4.433   7.890   1.716
14771WAT     H244556   4.501   8.037   1.732
14772WAT      O44557   0.439   1.059   7.324
14772WAT     H144558   0.484   1.002   7.393
14772WAT     H244559   0.449   1.155   7.349
14773WAT      O44560   1.467   8.505   4.651
14773WAT     H144561   1.501   8.411   4.659
14773WAT     H244562   1.503   8.560   4.727
14774WAT      O44563   1.166   8.640   6.039
14774WAT     H144564   1.136   8.547   6.021
14774WAT     H244565   1.093   8.704   6.014
14775WAT      O44566   1.146   5.786   3.655
14775WAT     H144567   1.170   5.700   3.609
14775WAT     H244568   1.057   5.776   3.700
14776WAT      O44569   2.270   3.107   9.079
14776WAT     H144570   2.206   3.109   9.155
14776WAT     H244571   2.356   3.065   9.108
14777WAT      O44572   5.709   8.813   0.345
14777WAT     H144573   5.740   8.718   0.350
14777WAT     H244574   5.626   8.818   0.290
14778WAT      O44575   9.338   8.868   2.676
14778WAT     H144576   9.251   8.849   2.630
14778WAT     H244577   9.413   8.859   2.611
14779WAT      O44578   9.659   4.091   4.237
14779WAT     H144579   9.665   4.013   4.175
14779WAT     H244580   9.749   4.111   4.274
14780WAT      O44581   8.503   1.309   3.564
14780WAT     H144582   8.578   1.357   3.519
14780WAT     H244583   8.420   1.317   3.509
14781WAT      O44584   0.837   3.418   7.674
14781WAT     H144585   0.831   3.399   7.772
14781WAT     H244586   0.907   3.360   7.633
14782WAT      O44587   0.719   4.173   2.755
14782WAT     H144588   0.640   4.179   2.694
14782WAT     H244589   0.720   4.083   2.800
14783WAT      O44590   1.969   4.070   1.855
14783WAT     H144591   2.036   4.114   1.794
14783WAT     H244592   1.971   4.115   1.944
14784WAT      O44593   6.244   8.541   1.578
14784WAT     H144594   6.281   8.615   1.522
14784WAT     H244595   6.152   8.565   1.609
14785WAT      O44596   5.610   1.760   2.235
14785WAT     H144597   5.621   1.662   2.224
14785WAT     H244598   5.694   1.799   2.273
14786WAT      O44599   8.757   0.682   1.391
14786WAT     H144600   8.662   0.671   1.420
14786WAT     H244601   8.778   0.780   1.382
14787WAT      O44602   4.811   1.320   6.872
14787WAT     H144603   4.813   1.388   6.798
14787WAT     H244604   4.726   1.269   6.868
14788WAT      O44605   4.699   2.610   4.059
14788WAT     H144606   4.748   2.656   4.133
14788WAT     H244607   4.689   2.513   4.080
14789WAT      O44608   5.965   3.117   0.029
14789WAT     H144609   5.965   3.106  -0.070
14789WAT     H244610   6.009   3.204   0.053
14790WAT      O44611   7.038   5.818   2.048
14790WAT     H144612   7.011   5.911   2.021
14790WAT     H244613   7.084   5.822   2.137
14791WAT      O44614   5.359   5.653   7.830
14791WAT     H144615   5.366   5.555   7.813
14791WAT     H244616   5.333   5.700   7.745
14792WAT      O44617   8.230   8.842   0.533
14792WAT     H144618   8.278   8.754   0.531
14792WAT     H244619   8.229   8.876   0.627
14793WAT      O44620   2.326   7.981   1.868
14793WAT     H144621   2.232   7.984   1.904
14793WAT     H244622   2.368   7.894   1.893
14794WAT      O44623   6.536   3.235   1.651
14794WAT     H144624   6.476   3.213   1.729
14794WAT     H244625   6.595   3.312   1.675
14795WAT      O44626   4.529   8.155   3.458
14795WAT     H144627   4.448   8.160   3.516
14795WAT     H244628   4.538   8.240   3.406
14796WAT      O44629   2.233   7.360   9.013
14796WAT     H144630   2.222   7.290   9.083
14796WAT     H244631   2.236   7.317   8.923
14797WAT      O44632   1.167   7.194   3.876
14797WAT     H144633   1.255   7.156   3.904
14797WAT     H244634   1.157   7.286   3.912
14798WAT      O44635   0.277   5.847   9.387
14798WAT     H144636   0.291   5.939   9.424
14798WAT     H244637   0.323   5.840   9.299
14799WAT      O44638   2.740   7.454   4.895
14799WAT     H144639   2.780   7.383   4.837
14799WAT     H244640   2.656   7.419   4.938
14800WAT      O44641   6.257   4.582   8.331
14800WAT     H144642   6.315   4.645   8.278
14800WAT     H244643   6.165   4.582   8.293
14801WAT      O44644   3.303   2.779   3.130
14801WAT     H144645   3.215   2.742   3.099
14801WAT     H244646   3.287   2.859   3.188
14802WAT      O44647   3.076   3.862   0.881
14802WAT     H144648   3.089   3.766   0.903
14802WAT     H244649   3.095   3.917   0.962
14803WAT      O44650   2.275   6.498   0.198
14803WAT     H144651   2.241   6.469   0.108
14803WAT     H244652   2.320   6.420   0.242
14804WAT      O44653   8.061   9.427   1.392
14804WAT     H144654   8.007   9.450   1.311
14804WAT     H244655   8.077   9.510   1.445
14805WAT      O44656   1.893   7.591   6.891
14805WAT     H144657   1.806   7.637   6.876
14805WAT     H244658   1.886   7.531   6.971
14806WAT      O44659   8.078   1.847   5.874
14806WAT     H144660   8.045   1.831   5.781
14806WAT     H244661   8.104   1.943   5.884
14807WAT      O44662   5.520   5.232   6.625
14807WAT     H144663   5.560   5.177   6.698
14807WAT     H244664   5.579   5.310   6.606
14808WAT      O44665   2.669   7.739   5.165
14808WAT     H144666   2.753   7.717   5.116
14808WAT     H244667   2.607   7.788   5.103
14809WAT      O44668   3.380   0.763   2.277
14809WAT     H144669   3.317   0.766   2.199
14809WAT     H244670   3.335   0.721   2.355
14810WAT      O44671   6.265   8.056   4.258
14810WAT     H144672   6.254   7.996   4.337
14810WAT     H244673   6.279   8.001   4.176
14811WAT      O44674   7.456   5.137   5.830
14811WAT     H144675   7.485   5.118   5.924
14811WAT     H244676   7.414   5.055   5.792
14812WAT      O44677   1.553   7.673   5.707
14812WAT     H144678   1.581   7.713   5.619
14812WAT     H244679   1.587   7.730   5.782
14813WAT      O44680   3.435   2.456   4.495
14813WAT     H144681   3.388   2.498   4.572
14813WAT     H244682   3.386   2.375   4.466
14814WAT      O44683   5.609   6.093   8.326
14814WAT     H144684   5.687   6.040   8.359
14814WAT     H244685   5.641   6.160   8.258
14815WAT      O44686   3.400   7.486   5.787
14815WAT     H144687   3.475   7.444   5.837
14815WAT     H244688   3.408   7.586   5.791
14816WAT      O44689   0.473   6.890   4.752
14816WAT     H144690   0.453   6.941   4.836
14816WAT     H244691   0.572   6.876   4.744
14817WAT      O44692   5.984   4.369   0.244
14817WAT     H144693   6.007   4.447   0.303
14817WAT     H244694   5.905   4.392   0.187
14818WAT      O44695   8.526   6.325   9.013
14818WAT     H144696   8.557   6.420   9.014
14818WAT     H244697   8.427   6.322   9.019
14819WAT      O44698   2.849   7.907   7.938
14819WAT     H144699   2.932   7.916   7.993
14819WAT     H244700   2.778   7.967   7.974
14820WAT      O44701   7.635   4.443   9.081
14820WAT     H144702   7.605   4.498   9.002
14820WAT     H244703   7.704   4.377   9.052
14821WAT      O44704   4.908   3.500   7.316
14821WAT     H144705   4.993   3.448   7.304
14821WAT     H244706   4.851   3.487   7.235
14822WAT      O44707   3.768   7.040   8.806
14822WAT     H144708   3.811   6.971   8.865
14822WAT     H244709   3.691   6.999   8.758
14823WAT      O44710   5.774   8.719   7.345
14823WAT     H144711   5.723   8.638   7.316
14823WAT     H244712   5.847   8.737   7.279
14824WAT      O44713   9.244   1.036   8.351
14824WAT     H144714   9.172   1.083   8.403
14824WAT     H244715   9.287   0.967   8.410
14825WAT      O44716   8.128   7.608   1.969
14825WAT     H144717   8.123   7.703   2.002
14825WAT     H244718   8.067   7.598   1.890
14826WAT      O44719   9.134   7.331   0.557
14826WAT     H144720   9.159   7.422   0.590
14826WAT     H244721   9.157   7.324   0.459
14827WAT      O44722   8.932   5.830   5.267
14827WAT     H144723   8.969   5.744   5.230
14827WAT     H244724   8.914   5.894   5.192
14828WAT      O44725   5.752   2.176   8.745
14828WAT     H144726   5.664   2.205   8.706
14828WAT     H244727   5.773   2.233   8.825
14829WAT      O44728   5.165   1.698   5.691
14829WAT     H144729   5.199   1.786   5.724
14829WAT     H244730   5.218   1.669   5.611
14830WAT      O44731   3.662   9.425   1.371
14830WAT     H144732   3.739   9.366   1.396
14830WAT     H244733   3.579   9.369   1.361
14831WAT      O44734   5.097   6.775   8.220
14831WAT     H144735   5.154   6.771   8.138
14831WAT     H244736   5.068   6.683   8.246
14832WAT      O44737   5.471   5.164   0.229
14832WAT     H144738   5.520   5.162   0.142
14832WAT     H244739   5.536   5.175   0.304
14833WAT      O44740   2.388   7.669   7.615
14833WAT     H144741   2.397   7.687   7.517
14833WAT     H244742   2.302   7.708   7.649
14834WAT      O44743   7.323   5.294   3.427
14834WAT     H144744   7.338   5.202   3.391
14834WAT     H244745   7.390   5.313   3.498
14835WAT      O44746   7.654   9.658   4.097
14835WAT     H144747   7.663   9.574   4.151
14835WAT     H244748   7.721   9.725   4.129
14836WAT      O44749   2.382   0.316   1.158
14836WAT     H144750   2.440   0.384   1.204
14836WAT     H244751   2.321   0.363   1.095
14837WAT      O44752   0.500   5.805   8.520
14837WAT     H144753   0.569   5.851   8.577
14837WAT     H244754   0.460   5.870   8.456
14838WAT      O44755   4.328   6.898   0.706
14838WAT     H144756   4.292   6.834   0.638
14838WAT     H244757   4.318   6.859   0.797
14839WAT      O44758   5.692   3.259   1.579
14839WAT     H144759   5.678   3.218   1.489
14839WAT     H244760   5.694   3.188   1.649
14840WAT      O44761   4.296   8.387   0.523
14840WAT     H144762   4.341   8.382   0.613
14840WAT     H244763   4.197   8.381   0.535
14841WAT      O44764   2.621   9.528   8.545
14841WAT     H144765   2.546   9.484   8.594
14841WAT     H244766   2.590   9.617   8.510
14842WAT      O44767   1.005   1.653   0.548
14842WAT     H144768   1.056   1.739   0.536
14842WAT     H244769   0.939   1.643   0.473
14843WAT      O44770   6.168   2.704   8.766
14843WAT     H144771   6.113   2.621   8.764
14843WAT     H244772   6.121   2.775   8.819
14844WAT      O44773   8.121   2.164   8.875
14844WAT     H144774   8.165   2.205   8.954
14844WAT     H244775   8.155   2.206   8.791
14845WAT      O44776   0.707   2.868   3.311
14845WAT     H144777   0.631   2.842   3.251
14845WAT     H244778   0.790   2.819   3.283
14846WAT      O44779   3.593   9.808   0.336
14846WAT     H144780   3.634   9.751   0.408
14846WAT     H244781   3.628   9.781   0.247
14847WAT      O44782   7.055   1.288   9.001
14847WAT     H144783   7.117   1.334   8.938
14847WAT     H244784   6.993   1.229   8.950
14848WAT      O44785   6.635   0.970   6.294
14848WAT     H144786   6.681   1.057   6.275
14848WAT     H244787   6.688   0.918   6.361
14849WAT      O44788   3.828   0.769   0.011
14849WAT     H144789   3.906   0.830   0.024
14849WAT     H244790   3.743   0.817   0.032
14850WAT      O44791   7.869   7.568   9.889
14850WAT     H144792   7.912   7.478   9.887
14850WAT     H244793   7.849   7.598   9.796
14851WAT      O44794   9.068   4.097   7.251
14851WAT     H144795   8.982   4.145   7.268
14851WAT     H244796   9.082   4.088   7.153
14852WAT      O44797   0.778   5.504   2.541
14852WAT     H144798   0.697   5.474   2.491
14852WAT     H244799   0.860   5.470   2.496
14853WAT      O44800   7.712   7.651   6.743
14853WAT     H144801   7.789   7.639   6.807
14853WAT     H244802   7.748   7.664   6.651
14854WAT      O44803   6.167   3.976   3.533
14854WAT     H144804   6.260   4.003   3.508
14854WAT     H244805   6.108   3.981   3.453
14855WAT      O44806   0.292   2.899   0.630
14855WAT     H144807   0.250   2.872   0.543
14855WAT     H244808   0.225   2.891   0.703
14856WAT      O44809   6.913   8.885   7.694
14856WAT     H144810   6.896   8.973   7.738
14856WAT     H244811   6.841   8.866   7.627
14857WAT      O44812   7.443   4.057   0.474
14857WAT     H144813   7.365   4.038   0.414
14857WAT     H244814   7.496   4.132   0.436
14858WAT      O44815   4.355   4.061   2.676
14858WAT     H144816   4.351   3.961   2.673
14858WAT     H244817   4.262   4.098   2.670
14859WAT      O44818   3.399   3.469   8.298
14859WAT     H144819   3.495   3.474   8.270
14859WAT     H244820   3.358   3.559   8.292
14860WAT      O44821   9.623   1.834   1.236
14860WAT     H144822   9.568   1.767   1.186
14860WAT     H244823   9.573   1.865   1.316
14861WAT      O44824   9.644   7.528   9.497
14861WAT     H144825   9.555   7.487   9.474
14861WAT     H244826   9.648   7.620   9.460
14862WAT      O44827   1.655   3.753   2.444
14862WAT     H144828   1.676   3.738   2.347
14862WAT     H244829   1.682   3.672   2.496
14863WAT      O44830   5.095   0.800   1.248
14863WAT     H144831   5.128   0.735   1.179
14863WAT     H244832   4.995   0.798   1.249
14864WAT      O44833   8.124   9.527   3.072
14864WAT     H144834   8.067   9.462   3.122
14864WAT     H244835   8.085   9.619   3.081
14865WAT      O44836   4.828   4.147   0.054
14865WAT     H144837   4.923   4.119   0.041
14865WAT     H244838   4.772   4.112  -0.021
14866WAT      O44839   0.842   7.104   0.081
14866WAT     H144840   0.816   7.178   0.019
14866WAT     H244841   0.904   7.140   0.151
14867WAT      O44842   0.679   1.502   5.865
14867WAT     H144843   0.604   1.506   5.800
14867WAT     H244844   0.682   1.587   5.918
14868WAT      O44845   7.043   3.946   6.900
14868WAT     H144846   7.018   4.036   6.863
14868WAT     H244847   7.101   3.958   6.981
14869WAT      O44848   5.970   0.623   4.910
14869WAT     H144849   5.988   0.528   4.885
14869WAT     H244850   6.038   0.654   4.976
14870WAT      O44851   3.815   0.070   1.694
14870WAT     H144852   3.885   0.075   1.623
14870WAT     H244853   3.836   0.134   1.767
14871WAT      O44854   0.276   7.932   9.224
14871WAT     H144855   0.337   7.918   9.301
14871WAT     H244856   0.325   7.913   9.139
14872WAT      O44857   9.405   1.982   8.714
14872WAT     H144858   9.364   2.001   8.804
14872WAT     H244859   9.455   1.896   8.719
14873WAT      O44860   0.335   7.072   7.251
14873WAT     H144861   0.278   7.054   7.171
14873WAT     H244862   0.298   7.150   7.302
14874WAT      O44863   5.553   3.184   4.145
14874WAT     H144864   5.592   3.116   4.083
14874WAT     H244865   5.458   3.203   4.118
14875WAT      O44866   6.598   6.806   9.755
14875WAT     H144867   6.544   6.757   9.686
14875WAT     H244868   6.629   6.893   9.718
14876WAT      O44869   7.919   3.271   7.799
14876WAT     H144870   7.931   3.341   7.869
14876WAT     H244871   8.001   3.215   7.793
14877WAT      O44872   9.538   4.811   6.825
14877WAT     H144873   9.451   4.795   6.777
14877WAT     H244874   9.520   4.826   6.922
14878WAT      O44875   1.689   1.636   2.163
14878WAT     H144876   1.680   1.585   2.249
14878WAT     H244877   1.785   1.644   2.140
14879WAT      O44878   7.828   3.397   2.927
14879WAT     H144879   7.739   3.363   2.897
14879WAT     H244880   7.817   3.485   2.974
14880WAT      O44881   7.779   3.677   6.724
14880WAT     H144882   7.810   3.586   6.753
14880WAT     H244883   7.755   3.675   6.626
14881WAT      O44884   9.835   2.777   6.253
14881WAT     H144885   9.914   2.717   6.267
14881WAT     H244886   9.867   2.871   6.239
14882WAT      O44887   0.526   9.450   3.708
14882WAT     H144888   0.478   9.457   3.796
14882WAT     H244889   0.557   9.541   3.679
14883WAT      O44890   5.655   2.245   7.476
14883WAT     H144891   5.642   2.162   7.531
14883WAT     H244892   5.738   2.292   7.505
14884WAT      O44893   2.622   2.916   4.178
14884WAT     H144894   2.566   2.837   4.152
14884WAT     H244895   2.706   2.885   4.223
14885WAT      O44896   5.151   9.430   2.075
14885WAT     H144897   5.162   9.386   2.164
14885WAT     H244898   5.124   9.525   2.088
14886WAT      O44899   8.913   5.991   9.308
14886WAT     H144900   8.960   5.930   9.245
14886WAT     H244901   8.814   5.974   9.302
14887WAT      O44902   1.778   5.592   6.734
14887WAT     H144903   1.791   5.690   6.719
14887WAT     H244904   1.688   5.565   6.701
14888WAT      O44905   0.031   5.733   8.439
14888WAT     H144906  -0.063   5.705   8.458
14888WAT     H244907   0.048   5.823   8.479
14889WAT      O44908   0.214   6.828   4.674
14889WAT     H144909   0.211   6.836   4.574
14889WAT     H244910   0.308   6.846   4.706
14890WAT      O44911   6.929   3.331   0.503
14890WAT     H144912   6.876   3.259   0.459
14890WAT     H244913   6.906   3.419   0.463
14891WAT      O44914   3.189   4.753   4.933
14891WAT     H144915   3.243   4.831   4.902
14891WAT     H244916   3.211   4.734   5.029
14892WAT      O44917   7.929   3.763   0.819
14892WAT     H144918   7.838   3.722   0.806
14892WAT     H244919   7.963   3.795   0.731
14893WAT      O44920   6.630   8.558   1.053
14893WAT     H144921   6.609   8.465   1.023
14893WAT     H244922   6.720   8.559   1.098
14894WAT      O44923   7.769   5.420   9.623
14894WAT     H144924   7.792   5.485   9.695
14894WAT     H244925   7.771   5.327   9.661
14895WAT      O44926   6.386   2.524   9.807
14895WAT     H144927   6.429   2.438   9.779
14895WAT     H244928   6.287   2.512   9.808
14896WAT      O44929   1.752   6.554   4.030
14896WAT     H144930   1.749   6.650   4.059
14896WAT     H244931   1.832   6.539   3.971
14897WAT      O44932   0.464   0.834   5.231
14897WAT     H144933   0.508   0.923   5.222
14897WAT     H244934   0.521   0.774   5.287
14898WAT      O44935   2.711   2.459   9.621
14898WAT     H144936   2.739   2.508   9.539
14898WAT     H244937   2.656   2.380   9.596
14899WAT      O44938   7.614   5.150   0.799
14899WAT     H144939   7.584   5.202   0.720
14899WAT     H244940   7.677   5.078   0.771
14900WAT      O44941   3.160   6.246   1.592
14900WAT     H144942   3.165   6.315   1.521
14900WAT     H244943   3.239   6.255   1.654
14901WAT      O44944   0.618   5.393   6.636
14901WAT     H144945   0.584   5.300   6.651
14901WAT     H244946   0.681   5.417   6.710
14902WAT      O44947   3.127   9.698   5.429
14902WAT     H144948   3.198   9.678   5.361
14902WAT     H244949   3.037   9.689   5.388
14903WAT      O44950   0.369   6.196   4.693
14903WAT     H144951   0.331   6.280   4.655
14903WAT     H244952   0.313   6.118   4.665
14904WAT      O44953   3.129   8.624   8.119
14904WAT     H144954   3.101   8.531   8.092
14904WAT     H244955   3.228   8.633   8.107
14905WAT      O44956   1.471   4.741   0.424
14905WAT     H144957   1.452   4.791   0.339
14905WAT     H244958   1.521   4.800   0.488
14906WAT      O44959   0.432   5.653   0.294
14906WAT     H144960   0.368   5.729   0.305
14906WAT     H244961   0.525   5.685   0.310
14907WAT      O44962   8.411   9.310   6.645
14907WAT     H144963   8.315   9.285   6.628
14907WAT     H244964   8.465   9.227   6.661
14908WAT      O44965   4.592   6.447   2.706
14908WAT     H144966   4.578   6.546   2.709
14908WAT     H244967   4.612   6.420   2.612
14909WAT      O44968   0.086   1.464   9.191
14909WAT     H144969   0.050   1.409   9.266
14909WAT     H244970   0.016   1.474   9.121
14910WAT      O44971   0.410   5.087   2.009
14910WAT     H144972   0.327   5.136   1.984
14910WAT     H244973   0.415   5.079   2.109
14911WAT      O44974   2.219   5.811   8.507
14911WAT     H144975   2.214   5.852   8.598
14911WAT     H244976   2.154   5.736   8.501
14912WAT      O44977   5.669   2.918   8.646
14912WAT     H144978   5.739   2.958   8.586
14912WAT     H244979   5.582   2.915   8.598
14913WAT      O44980   2.734   6.333   1.011
14913WAT     H144981   2.725   6.410   0.949
14913WAT     H244982   2.772   6.254   0.963
14914WAT      O44983   2.905   5.875   4.405
14914WAT     H144984   2.869   5.821   4.481
14914WAT     H244985   2.884   5.830   4.319
14915WAT      O44986   1.683   4.012   5.128
14915WAT     H144987   1.754   4.039   5.193
14915WAT     H244988   1.714   3.931   5.078
14916WAT      O44989   9.715   0.362   9.128
14916WAT     H144990   9.745   0.423   9.055
14916WAT     H244991   9.666   0.415   9.198
14917WAT      O44992   6.171   7.010   0.122
14917WAT     H144993   6.264   6.974   0.116
14917WAT     H244994   6.173   7.102   0.160
14918WAT      O44995   6.429   7.545   7.507
14918WAT     H144996   6.348   7.491   7.525
14918WAT     H244997   6.505   7.485   7.483
14919WAT      O44998   6.731   4.275   7.238
14919WAT     H144999   6.789   4.299   7.316
14919WAT     H245000   6.635   4.278   7.265
14920WAT      O45001   9.512   0.760   2.060
14920WAT     H145002   9.609   0.746   2.081
14920WAT     H245003   9.465   0.797   2.140
14921WAT      O45004   4.896   8.957   1.558
14921WAT     H145005   4.883   9.003   1.645
14921WAT     H245006   4.935   8.866   1.573
14922WAT      O45007   0.212   5.229   1.917
14922WAT     H145008   0.128   5.209   1.968
14922WAT     H245009   0.201   5.314   1.866
14923WAT      O45010   2.941   1.305   7.774
14923WAT     H145011   2.930   1.320   7.872
14923WAT     H245012   2.975   1.212   7.758
14924WAT      O45013   5.107   5.912   8.002
14924WAT     H145014   5.091   5.814   7.987
14924WAT     H245015   5.185   5.941   7.947
14925WAT      O45016   0.370   6.188   3.894
14925WAT     H145017   0.373   6.226   3.802
14925WAT     H245018   0.438   6.116   3.903
14926WAT      O45019   1.975   4.045   2.184
14926WAT     H145020   1.878   4.022   2.175
14926WAT     H245021   1.985   4.121   2.248
14927WAT      O45022   2.672   0.022   9.642
14927WAT     H145023   2.756   0.005   9.590
14927WAT     H245024   2.690   0.088   9.714
14928WAT      O45025   9.417   8.530   8.954
14928WAT     H145026   9.339   8.586   8.982
14928WAT     H245027   9.408   8.508   8.856
14929WAT      O45028   8.749   1.081   8.103
14929WAT     H145029   8.806   1.161   8.122
14929WAT     H245030   8.802   0.998   8.118
14930WAT      O45031   1.745   2.153   9.105
14930WAT     H145032   1.686   2.128   9.182
14930WAT     H245033   1.708   2.113   9.021
14931WAT      O45034   2.717   9.833   8.228
14931WAT     H145035   2.689   9.923   8.261
14931WAT     H245036   2.765   9.784   8.300
14932WAT      O45037   4.727   5.982   3.763
14932WAT     H145038   4.730   6.065   3.819
14932WAT     H245039   4.802   5.984   3.697
14933WAT      O45040   5.483   5.075   4.446
14933WAT     H145041   5.488   4.990   4.394
14933WAT     H245042   5.415   5.136   4.404
14934WAT      O45043   1.026   4.055   1.526
14934WAT     H145044   1.087   3.991   1.573
14934WAT     H245045   1.057   4.148   1.541
14935WAT      O45046   1.725   5.057   9.187
14935WAT     H145047   1.757   5.151   9.174
14935WAT     H245048   1.797   5.003   9.231
14936WAT      O45049   2.675   1.027   3.317
14936WAT     H145050   2.763   0.989   3.348
14936WAT     H245051   2.625   0.957   3.266
14937WAT      O45052   8.795   2.680   2.462
14937WAT     H145053   8.826   2.598   2.511
14937WAT     H245054   8.842   2.760   2.497
14938WAT      O45055   5.839   0.246   1.679
14938WAT     H145056   5.934   0.254   1.647
14938WAT     H245057   5.837   0.188   1.761
14939WAT      O45058   3.436   0.128   6.263
14939WAT     H145059   3.371   0.161   6.331
14939WAT     H245060   3.386   0.098   6.181
14940WAT      O45061   3.828   5.644   2.714
14940WAT     H145062   3.854   5.719   2.653
14940WAT     H245063   3.757   5.589   2.670
14941WAT      O45064   5.208   3.310   5.048
14941WAT     H145065   5.187   3.217   5.079
14941WAT     H245066   5.160   3.376   5.105
14942WAT      O45067   1.699   0.407   5.556
14942WAT     H145068   1.750   0.369   5.479
14942WAT     H245069   1.617   0.453   5.523
14943WAT      O45070   0.440   1.909   0.428
14943WAT     H145071   0.357   1.949   0.388
14943WAT     H245072   0.455   1.948   0.518
14944WAT      O45073   3.282   1.913   8.394
14944WAT     H145074   3.321   1.825   8.368
14944WAT     H245075   3.188   1.920   8.360
14945WAT      O45076   6.705   1.794   0.723
14945WAT     H145077   6.678   1.710   0.676
14945WAT     H245078   6.726   1.864   0.656
14946WAT      O45079   8.226   0.447   5.628
14946WAT     H145080   8.286   0.367   5.635
14946WAT     H245081   8.266   0.523   5.679
14947WAT      O45082   7.704   5.182   1.723
14947WAT     H145083   7.646   5.169   1.643
14947WAT     H245084   7.706   5.279   1.748
14948WAT      O45085   8.193   4.841   8.149
14948WAT     H145086   8.120   4.874   8.208
14948WAT     H245087   8.235   4.918   8.102
14949WAT      O45088   7.164   9.050   2.825
14949WAT     H145089   7.120   8.960   2.831
14949WAT     H245090   7.096   9.121   2.840
14950WAT      O45091   8.051   7.162   5.988
14950WAT     H145092   7.977   7.105   5.950
14950WAT     H245093   8.013   7.226   6.054
14951WAT      O45094   8.659   0.922   3.192
14951WAT     H145095   8.698   1.011   3.214
14951WAT     H245096   8.728   0.851   3.204
14952WAT      O45097   7.621   1.944   2.568
14952WAT     H145098   7.666   2.033   2.558
14952WAT     H245099   7.648   1.884   2.493
14953WAT      O45100   0.257   4.366   1.719
14953WAT     H145101   0.217   4.325   1.801
14953WAT     H245102   0.353   4.341   1.712
14954WAT      O45103   6.149   9.792   5.066
14954WAT     H145104   6.164   9.745   5.153
14954WAT     H245105   6.226   9.852   5.046
14955WAT      O45106   1.953   6.960   0.721
14955WAT     H145107   2.008   6.880   0.744
14955WAT     H245108   1.856   6.933   0.713
14956WAT      O45109   2.885   7.339   8.670
14956WAT     H145110   2.985   7.339   8.668
14956WAT     H245111   2.854   7.353   8.764
14957WAT      O45112   0.682   6.133   8.344
14957WAT     H145113   0.737   6.068   8.292
14957WAT     H245114   0.688   6.113   8.441
14958WAT      O45115   6.055   6.954   7.005
14958WAT     H145116   6.136   6.963   7.063
14958WAT     H245117   6.080   6.914   6.918
14959WAT      O45118   0.868   4.915   7.556
14959WAT     H145119   0.788   4.945   7.608
14959WAT     H245120   0.854   4.937   7.459
14960WAT      O45121   5.344   2.504   3.376
14960WAT     H145122   5.343   2.554   3.463
14960WAT     H245123   5.427   2.526   3.326
14961WAT      O45124   5.181   1.661   4.539
14961WAT     H145125   5.230   1.613   4.612
14961WAT     H245126   5.203   1.620   4.451
14962WAT      O45127   2.811   8.537   4.772
14962WAT     H145128   2.740   8.525   4.703
14962WAT     H245129   2.856   8.450   4.790
14963WAT      O45130   4.623   7.769   2.450
14963WAT     H145131   4.705   7.822   2.431
14963WAT     H245132   4.632   7.677   2.411
14964WAT      O45133   6.211   9.674   8.741
14964WAT     H145134   6.223   9.578   8.767
14964WAT     H245135   6.201   9.681   8.642
14965WAT      O45136   6.602   6.741   2.559
14965WAT     H145137   6.526   6.676   2.546
14965WAT     H245138   6.677   6.716   2.498
14966WAT      O45139   8.429   3.413   6.764
14966WAT     H145140   8.417   3.406   6.863
14966WAT     H245141   8.340   3.406   6.719
14967WAT      O45142   5.702   7.193   7.352
14967WAT     H145143   5.664   7.239   7.432
14967WAT     H245144   5.796   7.224   7.337
14968WAT      O45145   4.166   6.761   2.869
14968WAT     H145146   4.203   6.810   2.948
14968WAT     H245147   4.223   6.781   2.789
14969WAT      O45148   0.057   0.396   4.994
14969WAT     H145149   0.148   0.411   5.035
14969WAT     H245150   0.002   0.341   5.057
14970WAT      O45151   7.320   6.476   7.311
14970WAT     H145152   7.385   6.525   7.369
14970WAT     H245153   7.257   6.541   7.269
14971WAT      O45154   1.430   8.782   4.190
14971WAT     H145155   1.464   8.707   4.134
14971WAT     H245156   1.445   8.760   4.287
14972WAT      O45157   4.624   5.600   6.294
14972WAT     H145158   4.643   5.503   6.281
14972WAT     H245159   4.661   5.629   6.382
14973WAT      O45160   4.003   5.272   8.415
14973WAT     H145161   4.067   5.214   8.365
14973WAT     H245162   3.997   5.361   8.371
14974WAT      O45163   4.094   6.886   9.304
14974WAT     H145164   4.062   6.980   9.293
14974WAT     H245165   4.188   6.887   9.338
14975WAT      O45166   8.119   4.136   3.836
14975WAT     H145167   8.178   4.215   3.851
14975WAT     H245168   8.039   4.142   3.897
14976WAT      O45169   9.847   7.968   3.194
14976WAT     H145170   9.778   7.968   3.122
14976WAT     H245171   9.808   8.007   3.278
14977WAT      O45172   5.602   1.862   8.937
14977WAT     H145173   5.552   1.945   8.914
14977WAT     H245174   5.690   1.887   8.979
14978WAT      O45175   7.214   1.343   5.806
14978WAT     H145176   7.204   1.250   5.843
14978WAT     H245177   7.124   1.385   5.798
14979WAT      O45178   3.816   2.665   4.753
14979WAT     H145179   3.900   2.648   4.701
14979WAT     H245180   3.755   2.586   4.743
14980WAT      O45181   3.018   6.588   2.427
14980WAT     H145182   2.979   6.637   2.505
14980WAT     H245183   2.975   6.620   2.343
14981WAT      O45184   6.021   7.616   7.782
14981WAT     H145185   6.118   7.635   7.768
14981WAT     H245186   6.012   7.529   7.831
14982WAT      O45187   5.700   2.297   4.494
14982WAT     H145188   5.601   2.310   4.492
14982WAT     H245189   5.720   2.208   4.535
14983WAT      O45190   8.542   1.262   0.874
14983WAT     H145191   8.442   1.264   0.886
14983WAT     H245192   8.569   1.337   0.813
14984WAT      O45193   5.575   5.442   5.117
14984WAT     H145194   5.591   5.497   5.198
14984WAT     H245195   5.521   5.361   5.141
14985WAT      O45196   9.648   6.829   0.013
14985WAT     H145197   9.708   6.757   0.049
14985WAT     H245198   9.655   6.910   0.070
14986WAT      O45199   8.354   5.593   9.084
14986WAT     H145200   8.326   5.686   9.063
14986WAT     H245201   8.312   5.563   9.170
14987WAT      O45202   5.773   6.425   2.902
14987WAT     H145203   5.692   6.453   2.849
14987WAT     H245204   5.789   6.492   2.975
14988WAT      O45205   0.873   3.302   0.013
14988WAT     H145206   0.940   3.338   0.078
14988WAT     H245207   0.914   3.228  -0.040
14989WAT      O45208   4.476   6.239   5.733
14989WAT     H145209   4.513   6.238   5.641
14989WAT     H245210   4.522   6.308   5.788
14990WAT      O45211   4.760   2.881   1.696
14990WAT     H145212   4.717   2.956   1.647
14990WAT     H245213   4.858   2.879   1.676
14991WAT      O45214   5.538   3.174   5.051
14991WAT     H145215   5.523   3.253   5.110
14991WAT     H245216   5.459   3.113   5.056
14992WAT      O45217   3.752   1.398   5.765
14992WAT     H145218   3.717   1.466   5.830
14992WAT     H245219   3.851   1.406   5.759
14993WAT      O45220   2.284   6.571   4.547
14993WAT     H145221   2.277   6.649   4.485
14993WAT     H245222   2.197   6.523   4.550
14994WAT      O45223   1.066   1.989   3.195
14994WAT     H145224   1.154   1.954   3.226
14994WAT     H245225   1.071   2.009   3.097
14995WAT      O45226   8.983   8.168   8.027
14995WAT     H145227   9.081   8.165   8.007
14995WAT     H245228   8.932   8.190   7.944
14996WAT      O45229   2.948   3.684   7.817
14996WAT     H145230   2.896   3.729   7.890
14996WAT     H245231   2.942   3.738   7.733
14997WAT      O45232   0.669   6.601   0.533
14997WAT     H145233   0.727   6.653   0.596
14997WAT     H245234   0.710   6.600   0.442
14998WAT      O45235   0.496   0.575   3.947
14998WAT     H145236   0.571   0.632   3.914
14998WAT     H245237   0.502   0.567   4.047
14999WAT      O45238   9.247   1.534   6.956
14999WAT     H145239   9.328   1.590   6.972
14999WAT     H245240   9.261   1.477   6.875
15000WAT      O45241   0.724   9.208   1.041
15000WAT     H145242   0.643   9.154   1.018
15000WAT     H245243   0.696   9.302   1.061
15001WAT      O45244   0.066   6.931   1.479
15001WAT     H145245   0.016   7.001   1.427
15001WAT     H245246   0.158   6.922   1.442
15002WAT      O45247   5.201   1.287   1.334
15002WAT     H145248   5.120   1.338   1.364
15002WAT     H245249   5.172   1.203   1.288
15003WAT      O45250   5.135   2.679   4.264
15003WAT     H145251   5.154   2.581   4.254
15003WAT     H245252   5.219   2.726   4.293
15004WAT      O45253   3.044   8.210   7.478
15004WAT     H145254   3.090   8.211   7.389
15004WAT     H245255   2.969   8.143   7.476
15005WAT      O45256   2.451   0.195   5.812
15005WAT     H145257   2.456   0.176   5.910
15005WAT     H245258   2.395   0.125   5.768
15006WAT      O45259   9.508   7.624   0.071
15006WAT     H145260   9.554   7.710   0.051
15006WAT     H245261   9.477   7.582  -0.015
15007WAT      O45262   1.104   1.739   6.680
15007WAT     H145263   1.071   1.738   6.586
15007WAT     H245264   1.119   1.645   6.711
15008WAT      O45265   7.593   5.125   0.076
15008WAT     H145266   7.617   5.028   0.074
15008WAT     H245267   7.520   5.140   0.142
15009WAT      O45268   1.587   4.982   1.297
15009WAT     H145269   1.497   4.989   1.254
15009WAT     H245270   1.587   5.035   1.383
15010WAT      O45271   9.340   7.178   3.879
15010WAT     H145272   9.377   7.265   3.847
15010WAT     H245273   9.414   7.123   3.918
15011WAT      O45274   8.813   7.575   4.960
15011WAT     H145275   8.867   7.548   4.880
15011WAT     H245276   8.869   7.633   5.020
15012WAT      O45277   9.386   0.831   4.369
15012WAT     H145278   9.407   0.926   4.389
15012WAT     H245279   9.468   0.786   4.332
15013WAT      O45280   3.667   5.022   0.960
15013WAT     H145281   3.747   5.043   0.903
15013WAT     H245282   3.694   5.023   1.056
15014WAT      O45283   7.466   8.564   8.502
15014WAT     H145284   7.557   8.525   8.515
15014WAT     H245285   7.425   8.526   8.420
15015WAT      O45286   2.244   2.248   0.360
15015WAT     H145287   2.168   2.223   0.420
15015WAT     H245288   2.327   2.257   0.414
15016WAT      O45289   7.201   8.673   6.369
15016WAT     H145290   7.117   8.725   6.382
15016WAT     H245291   7.229   8.678   6.273
15017WAT      O45292   0.957   3.858   8.601
15017WAT     H145293   0.861   3.886   8.608
15017WAT     H245294   0.971   3.809   8.515
15018WAT      O45295   0.668   7.620   3.507
15018WAT     H145296   0.686   7.524   3.483
15018WAT     H245297   0.738   7.679   3.467
15019WAT      O45298   0.033   0.967   7.311
15019WAT     H145299  -0.018   1.052   7.322
15019WAT     H245300   0.107   0.981   7.245
15020WAT      O45301   3.408   3.145   9.124
15020WAT     H145302   3.424   3.148   9.222
15020WAT     H245303   3.481   3.195   9.077
15021WAT      O45304   0.173   6.442   4.315
15021WAT     H145305   0.090   6.491   4.342
15021WAT     H245306   0.238   6.444   4.391
15022WAT      O45307   2.960   5.855   7.041
15022WAT     H145308   2.939   5.945   7.003
15022WAT     H245309   2.997   5.866   7.134
15023WAT      O45310   9.744   7.979   4.055
15023WAT     H145311   9.785   7.903   4.105
15023WAT     H245312   9.652   7.955   4.026
15024WAT      O45313   0.504   4.736   0.038
15024WAT     H145314   0.534   4.814   0.092
15024WAT     H245315   0.485   4.658   0.098
15025WAT      O45316   9.227   6.359   0.209
15025WAT     H145317   9.135   6.341   0.173
15025WAT     H245318   9.222   6.373   0.307
15026WAT      O45319   1.854   4.026   9.520
15026WAT     H145320   1.902   4.113   9.523
15026WAT     H245321   1.874   3.979   9.434
15027WAT      O45322   4.771   0.836   6.814
15027WAT     H145323   4.721   0.813   6.731
15027WAT     H245324   4.708   0.838   6.892
15028WAT      O45325   8.386   8.505   6.679
15028WAT     H145326   8.308   8.564   6.699
15028WAT     H245327   8.452   8.554   6.621
15029WAT      O45328   3.030   3.303   4.420
15029WAT     H145329   3.075   3.224   4.379
15029WAT     H245330   2.934   3.282   4.437
15030WAT      O45331   5.303   6.815   0.551
15030WAT     H145332   5.335   6.720   0.544
15030WAT     H245333   5.231   6.821   0.620
15031WAT      O45334   8.116   4.200   0.719
15031WAT     H145335   8.045   4.183   0.651
15031WAT     H245336   8.082   4.263   0.789
15032WAT      O45337   3.866   9.431   0.472
15032WAT     H145338   3.909   9.455   0.385
15032WAT     H245339   3.824   9.513   0.513
15033WAT      O45340   7.922   0.952   5.914
15033WAT     H145341   7.888   0.967   5.821
15033WAT     H245342   7.863   0.888   5.961
15034WAT      O45343   2.249   3.053   1.287
15034WAT     H145344   2.340   3.094   1.286
15034WAT     H245345   2.195   3.094   1.361
15035WAT      O45346   7.135   0.980   3.516
15035WAT     H145347   7.193   0.984   3.434
15035WAT     H245348   7.123   1.072   3.553
15036WAT      O45349   5.681   6.987   4.794
15036WAT     H145350   5.720   6.911   4.742
15036WAT     H245351   5.590   7.008   4.758
15037WAT      O45352   7.470   8.659   9.030
15037WAT     H145353   7.534   8.584   9.047
15037WAT     H245354   7.439   8.697   9.117
15038WAT      O45355   9.640   6.938   2.620
15038WAT     H145356   9.608   7.027   2.652
15038WAT     H245357   9.740   6.934   2.626
15039WAT      O45358   7.910   9.552   9.325
15039WAT     H145359   7.874   9.460   9.340
15039WAT     H245360   8.010   9.549   9.319
15040WAT      O45361   1.024   2.035   9.560
15040WAT     H145362   1.048   1.944   9.595
15040WAT     H245363   0.957   2.077   9.621
15041WAT      O45364   6.415   3.431   6.494
15041WAT     H145365   6.500   3.474   6.525
15041WAT     H245366   6.337   3.474   6.540
15042WAT      O45367   1.750   8.300   8.069
15042WAT     H145368   1.689   8.350   8.007
15042WAT     H245369   1.835   8.279   8.021
15043WAT      O45370   4.841   7.558   5.591
15043WAT     H145371   4.754   7.579   5.636
15043WAT     H245372   4.824   7.508   5.506
15044WAT      O45373   3.851   5.874   7.278
15044WAT     H145374   3.841   5.867   7.377
15044WAT     H245375   3.942   5.908   7.255
15045WAT      O45376   5.188   7.688   0.774
15045WAT     H145377   5.235   7.635   0.844
15045WAT     H245378   5.238   7.772   0.755
15046WAT      O45379   7.060   2.265   7.912
15046WAT     H145380   7.080   2.252   7.815
15046WAT     H245381   6.962   2.254   7.927
15047WAT      O45382   7.634   0.147   7.968
15047WAT     H145383   7.672   0.072   8.021
15047WAT     H245384   7.537   0.158   7.990
15048WAT      O45385   2.804   5.367   5.961
15048WAT     H145386   2.882   5.305   5.948
15048WAT     H245387   2.822   5.428   6.039
15049WAT      O45388   3.633   7.931   7.047
15049WAT     H145389   3.714   7.898   7.095
15049WAT     H245390   3.608   7.866   6.975
15050WAT      O45391   5.176   6.661   3.310
15050WAT     H145392   5.091   6.608   3.307
15050WAT     H245393   5.161   6.749   3.266
15051WAT      O45394   5.860   9.294   5.685
15051WAT     H145395   5.772   9.338   5.670
15051WAT     H245396   5.931   9.363   5.697
15052WAT      O45397   0.501   7.057   3.214
15052WAT     H145398   0.511   6.964   3.178
15052WAT     H245399   0.487   7.053   3.313
15053WAT      O45400   3.260   5.874   7.650
15053WAT     H145401   3.292   5.883   7.744
15053WAT     H245402   3.337   5.889   7.587
15054WAT      O45403   2.537   6.554   5.636
15054WAT     H145404   2.564   6.633   5.691
15054WAT     H245405   2.440   6.561   5.613
15055WAT      O45406   4.429   9.713   6.598
15055WAT     H145407   4.425   9.614   6.607
15055WAT     H245408   4.482   9.738   6.517
15056WAT      O45409   9.876   9.615   4.429
15056WAT     H145410   9.841   9.705   4.454
15056WAT     H245411   9.874   9.556   4.509
15057WAT      O45412   6.501   9.719   4.156
15057WAT     H145413   6.538   9.807   4.184
15057WAT     H245414   6.528   9.700   4.061
15058WAT      O45415   5.213   1.611   7.340
15058WAT     H145416   5.124   1.656   7.349
15058WAT     H245417   5.200   1.512   7.334
15059WAT      O45418   5.439   7.319   0.586
15059WAT     H145419   5.501   7.269   0.646
15059WAT     H245420   5.345   7.287   0.600
15060WAT      O45421   1.759   2.719   2.928
15060WAT     H145422   1.741   2.817   2.918
15060WAT     H245423   1.693   2.680   2.992
15061WAT      O45424   2.330   4.777   2.272
15061WAT     H145425   2.384   4.820   2.345
15061WAT     H245426   2.383   4.776   2.187
15062WAT      O45427   7.091   1.018   4.946
15062WAT     H145428   7.067   1.066   4.862
15062WAT     H245429   7.108   0.922   4.927
15063WAT      O45430   9.368   2.488   0.739
15063WAT     H145431   9.417   2.536   0.812
15063WAT     H245432   9.429   2.423   0.694
15064WAT      O45433   8.842   8.221   7.793
15064WAT     H145434   8.753   8.192   7.760
15064WAT     H245435   8.914   8.178   7.738
15065WAT      O45436   1.913   8.279   3.929
15065WAT     H145437   1.919   8.190   3.973
15065WAT     H245438   1.925   8.351   3.997
15066WAT      O45439   3.258   4.673   5.195
15066WAT     H145440   3.187   4.723   5.245
15066WAT     H245441   3.343   4.675   5.247
15067WAT      O45442   0.264   3.309   1.667
15067WAT     H145443   0.231   3.332   1.575
15067WAT     H245444   0.197   3.249   1.711
15068WAT      O45445   1.356   5.192   4.578
15068WAT     H145446   1.382   5.288   4.582
15068WAT     H245447   1.434   5.137   4.550
15069WAT      O45448   5.607   2.878   0.713
15069WAT     H145449   5.598   2.893   0.812
15069WAT     H245450   5.517   2.885   0.670
15070WAT      O45451   6.161   7.693   5.967
15070WAT     H145452   6.115   7.760   6.025
15070WAT     H245453   6.093   7.634   5.924
15071WAT      O45454   1.905   8.252   1.362
15071WAT     H145455   1.895   8.181   1.432
15071WAT     H245456   2.001   8.256   1.332
15072WAT      O45457   9.400   0.294   0.819
15072WAT     H145458   9.400   0.242   0.905
15072WAT     H245459   9.321   0.356   0.818
15073WAT      O45460   9.866   7.736   0.928
15073WAT     H145461   9.789   7.788   0.891
15073WAT     H245462   9.857   7.728   1.027
15074WAT      O45463   0.503   2.436   2.675
15074WAT     H145464   0.406   2.421   2.693
15074WAT     H245465   0.533   2.375   2.601
15075WAT      O45466   9.664   5.010   1.099
15075WAT     H145467   9.739   5.052   1.149
15075WAT     H245468   9.619   4.942   1.156
15076WAT      O45469   0.152   6.868   6.743
15076WAT     H145470   0.149   6.867   6.843
15076WAT     H245471   0.222   6.932   6.712
15077WAT      O45472   4.947   3.099   3.167
15077WAT     H145473   4.995   3.184   3.188
15077WAT     H245474   5.004   3.043   3.107
15078WAT      O45475   8.015   4.342   2.402
15078WAT     H145476   7.994   4.322   2.306
15078WAT     H245477   7.942   4.398   2.441
15079WAT      O45478   1.926   0.147   8.569
15079WAT     H145479   1.940   0.133   8.667
15079WAT     H245480   1.857   0.083   8.535
15080WAT      O45481   6.433   3.318   7.934
15080WAT     H145482   6.521   3.363   7.917
15080WAT     H245483   6.440   3.261   8.016
15081WAT      O45484   9.078   0.330   2.102
15081WAT     H145485   9.087   0.415   2.155
15081WAT     H245486   8.992   0.285   2.126
15082WAT      O45487   9.030   2.608   4.632
15082WAT     H145488   9.088   2.681   4.595
15082WAT     H245489   8.991   2.555   4.556
15083WAT      O45490   7.608   7.872   9.626
15083WAT     H145491   7.630   7.776   9.612
15083WAT     H245492   7.666   7.908   9.700
15084WAT      O45493   1.329   2.562   7.620
15084WAT     H145494   1.244   2.511   7.633
15084WAT     H245495   1.407   2.501   7.638
15085WAT      O45496   4.721   0.626   4.126
15085WAT     H145497   4.736   0.527   4.118
15085WAT     H245498   4.791   0.665   4.186
15086WAT      O45499   5.425   0.040   9.651
15086WAT     H145500   5.340   0.032   9.704
15086WAT     H245501   5.454   0.136   9.651
15087WAT      O45502   3.618   0.129   1.516
15087WAT     H145503   3.693   0.097   1.575
15087WAT     H245504   3.644   0.116   1.420
15088WAT      O45505   2.817   5.934   5.607
15088WAT     H145506   2.903   5.891   5.580
15088WAT     H245507   2.781   5.888   5.688
15089WAT      O45508   7.934   3.868   5.448
15089WAT     H145509   7.930   3.845   5.351
15089WAT     H245510   8.027   3.856   5.482
15090WAT      O45511   5.831   8.092   4.092
15090WAT     H145512   5.747   8.146   4.083
15090WAT     H245513   5.815   8.014   4.152
15091WAT      O45514   2.781   6.697   3.996
15091WAT     H145515   2.769   6.796   3.989
15091WAT     H245516   2.853   6.677   4.063
15092WAT      O45517   6.533   1.180   0.069
15092WAT     H145518   6.550   1.175   0.167
15092WAT     H245519   6.528   1.276   0.041
15093WAT      O45520   0.287   9.665   1.300
15093WAT     H145521   0.293   9.752   1.348
15093WAT     H245522   0.326   9.674   1.208
15094WAT      O45523   0.214   3.357   2.566
15094WAT     H145524   0.214   3.455   2.551
15094WAT     H245525   0.284   3.314   2.508
15095WAT      O45526   3.286   6.992   6.673
15095WAT     H145527   3.195   6.959   6.694
15095WAT     H245528   3.290   7.022   6.578
15096WAT      O45529   5.322   9.448   0.551
15096WAT     H145530   5.355   9.431   0.644
15096WAT     H245531   5.272   9.535   0.549
15097WAT      O45532   1.992   5.320   3.327
15097WAT     H145533   1.905   5.311   3.376
15097WAT     H245534   2.010   5.417   3.310
15098WAT      O45535   1.538   3.860   6.533
15098WAT     H145536   1.516   3.871   6.436
15098WAT     H245537   1.530   3.949   6.579
15099WAT      O45538   0.750   1.641   2.277
15099WAT     H145539   0.819   1.677   2.339
15099WAT     H245540   0.661   1.639   2.323
15100WAT      O45541   6.568   5.758   0.053
15100WAT     H145542   6.552   5.732  -0.042
15100WAT     H245543   6.657   5.724   0.082
15101WAT      O45544   2.396   3.550   3.167
15101WAT     H145545   2.341   3.622   3.124
15101WAT     H245546   2.488   3.586   3.186
15102WAT      O45547   5.151   0.851   4.525
15102WAT     H145548   5.241   0.829   4.487
15102WAT     H245549   5.154   0.839   4.624
15103WAT      O45550   0.187   1.706   9.148
15103WAT     H145551   0.155   1.613   9.128
15103WAT     H245552   0.283   1.715   9.120
15104WAT      O45553   8.284   7.502   5.369
15104WAT     H145554   8.336   7.565   5.426
15104WAT     H245555   8.212   7.460   5.424
15105WAT      O45556   9.702   9.044   4.913
15105WAT     H145557   9.616   9.083   4.947
15105WAT     H245558   9.693   8.945   4.905
15106WAT      O45559   0.070   8.497   2.241
15106WAT     H145560   0.144   8.488   2.174
15106WAT     H245561   0.079   8.425   2.310
15107WAT      O45562   1.832   1.609   6.182
15107WAT     H145563   1.811   1.535   6.117
15107WAT     H245564   1.802   1.582   6.273
15108WAT      O45565   6.704   4.526   5.009
15108WAT     H145566   6.790   4.510   4.961
15108WAT     H245567   6.632   4.470   4.968
15109WAT      O45568   4.205   8.682   8.016
15109WAT     H145569   4.280   8.746   8.029
15109WAT     H245570   4.210   8.610   8.085
15110WAT      O45571   0.059   2.072   6.824
15110WAT     H145572   0.076   1.986   6.872
15110WAT     H245573  -0.025   2.064   6.770
15111WAT      O45574   9.892   6.217   1.423
15111WAT     H145575   9.855   6.126   1.405
15111WAT     H245576   9.838   6.285   1.372
15112WAT      O45577   6.569   8.227   4.929
15112WAT     H145578   6.503   8.222   4.854
15112WAT     H245579   6.521   8.248   5.014
15113WAT      O45580   7.226   7.683   6.003
15113WAT     H145581   7.162   7.756   5.980
15113WAT     H245582   7.252   7.634   5.920
15114WAT      O45583   5.301   3.893   7.573
15114WAT     H145584   5.246   3.908   7.491
15114WAT     H245585   5.397   3.913   7.552
15115WAT      O45586   8.179   1.136   5.093
15115WAT     H145587   8.123   1.074   5.037
15115WAT     H245588   8.271   1.141   5.055
15116WAT      O45589   7.427   4.932   6.237
15116WAT     H145590   7.477   4.930   6.323
15116WAT     H245591   7.442   4.846   6.188
15117WAT      O45592   8.364   6.849   5.884
15117WAT     H145593   8.421   6.837   5.802
15117WAT     H245594   8.388   6.779   5.951
15118WAT      O45595   1.385   6.249   6.502
15118WAT     H145596   1.354   6.276   6.411
15118WAT     H245597   1.394   6.330   6.559
15119WAT      O45598   8.433   8.237   5.617
15119WAT     H145599   8.407   8.334   5.619
15119WAT     H245600   8.372   8.185   5.677
15120WAT      O45601   4.215   2.127   7.734
15120WAT     H145602   4.301   2.130   7.683
15120WAT     H245603   4.151   2.194   7.695
15121WAT      O45604   9.183   5.315   2.723
15121WAT     H145605   9.128   5.252   2.669
15121WAT     H245606   9.124   5.386   2.762
15122WAT      O45607   1.521   6.996   8.469
15122WAT     H145608   1.428   7.009   8.435
15122WAT     H245609   1.575   6.947   8.401
15123WAT      O45610   5.080   1.225   9.213
15123WAT     H145611   5.138   1.164   9.268
15123WAT     H245612   5.137   1.275   9.148
15124WAT      O45613   9.022   7.514   6.400
15124WAT     H145614   8.936   7.534   6.448
15124WAT     H245615   9.097   7.508   6.466
15125WAT      O45616   5.224   3.450   1.813
15125WAT     H145617   5.246   3.458   1.716
15125WAT     H245618   5.221   3.353   1.839
15126WAT      O45619   1.566   7.687   3.836
15126WAT     H145620   1.556   7.685   3.737
15126WAT     H245621   1.660   7.713   3.860
15127WAT      O45622   1.162   0.865   4.630
15127WAT     H145623   1.151   0.871   4.531
15127WAT     H245624   1.234   0.929   4.659
15128WAT      O45625   1.870   6.569   5.481
15128WAT     H145626   1.844   6.613   5.568
15128WAT     H245627   1.812   6.489   5.466
15129WAT      O45628   8.371   4.035   2.610
15129WAT     H145629   8.349   4.129   2.587
15129WAT     H245630   8.392   4.028   2.707
15130WAT      O45631   2.408   9.724   7.694
15130WAT     H145632   2.441   9.744   7.602
15130WAT     H245633   2.366   9.806   7.733
15131WAT      O45634   2.157   7.185   9.201
15131WAT     H145635   2.142   7.092   9.168
15131WAT     H245636   2.162   7.185   9.301
15132WAT      O45637   6.440   6.958   2.588
15132WAT     H145638   6.477   7.035   2.641
15132WAT     H245639   6.499   6.878   2.599
15133WAT      O45640   2.165   4.234   5.132
15133WAT     H145641   2.115   4.176   5.069
15133WAT     H245642   2.260   4.202   5.138
15134WAT      O45643   4.581   8.199   4.197
15134WAT     H145644   4.625   8.255   4.267
15134WAT     H245645   4.639   8.121   4.175
15135WAT      O45646   4.361   6.663   4.241
15135WAT     H145647   4.412   6.579   4.223
15135WAT     H245648   4.264   6.646   4.224
15136WAT      O45649   7.357   5.728   9.859
15136WAT     H145650   7.380   5.824   9.847
15136WAT     H245651   7.274   5.720   9.915
15137WAT      O45652   6.851   5.317   6.195
15137WAT     H145653   6.774   5.254   6.206
15137WAT     H245654   6.935   5.265   6.177
15138WAT      O45655   8.960   3.521   3.562
15138WAT     H145656   8.912   3.441   3.525
15138WAT     H245657   9.045   3.535   3.511
15139WAT      O45658   9.861   5.190   4.547
15139WAT     H145659   9.933   5.132   4.583
15139WAT     H245660   9.892   5.233   4.462
15140WAT      O45661   3.653   7.640   2.549
15140WAT     H145662   3.647   7.620   2.451
15140WAT     H245663   3.597   7.719   2.571
15141WAT      O45664   1.805   9.415   6.430
15141WAT     H145665   1.832   9.510   6.414
15141WAT     H245666   1.885   9.361   6.455
15142WAT      O45667   0.756   3.134   5.392
15142WAT     H145668   0.683   3.198   5.367
15142WAT     H245669   0.785   3.083   5.311
15143WAT      O45670   8.327   7.714   4.899
15143WAT     H145671   8.347   7.808   4.928
15143WAT     H245672   8.412   7.669   4.873
15144WAT      O45673   7.359   0.731   4.232
15144WAT     H145674   7.438   0.691   4.277
15144WAT     H245675   7.382   0.823   4.200
15145WAT      O45676   7.724   8.253   2.893
15145WAT     H145677   7.785   8.267   2.971
15145WAT     H245678   7.697   8.341   2.855
15146WAT      O45679   8.758   3.939   2.156
15146WAT     H145680   8.760   3.881   2.074
15146WAT     H245681   8.697   4.017   2.140
15147WAT      O45682   0.365   3.677   7.327
15147WAT     H145683   0.413   3.727   7.254
15147WAT     H245684   0.285   3.729   7.355
15148WAT      O45685   0.701   8.495   7.459
15148WAT     H145686   0.602   8.510   7.457
15148WAT     H245687   0.723   8.414   7.405
15149WAT      O45688   8.365   0.808   1.872
15149WAT     H145689   8.331   0.821   1.779
15149WAT     H245690   8.448   0.861   1.886
15150WAT      O45691   1.023   7.903   6.050
15150WAT     H145692   0.965   7.853   6.114
15150WAT     H245693   1.112   7.921   6.092
15151WAT      O45694   0.062   6.672   2.725
15151WAT     H145695   0.103   6.688   2.635
15151WAT     H245696   0.082   6.750   2.785
15152WAT      O45697   4.117   8.475   7.330
15152WAT     H145698   4.047   8.473   7.401
15152WAT     H245699   4.132   8.570   7.301
15153WAT      O45700   3.434   3.859   1.068
15153WAT     H145701   3.353   3.916   1.085
15153WAT     H245702   3.516   3.915   1.077
15154WAT      O45703   2.011   0.471   1.749
15154WAT     H145704   2.088   0.535   1.743
15154WAT     H245705   1.960   0.471   1.663
15155WAT      O45706   1.757   0.719   5.087
15155WAT     H145707   1.702   0.773   5.150
15155WAT     H245708   1.838   0.771   5.061
15156WAT      O45709   0.632   0.647   7.131
15156WAT     H145710   0.722   0.689   7.117
15156WAT     H245711   0.566   0.718   7.155
15157WAT      O45712   3.894   7.475   8.441
15157WAT     H145713   3.875   7.498   8.346
15157WAT     H245714   3.814   7.432   8.482
15158WAT      O45715   0.563   8.929   1.788
15158WAT     H145716   0.470   8.942   1.822
15158WAT     H245717   0.628   8.971   1.851
15159WAT      O45718   6.993   8.397   5.749
15159WAT     H145719   6.950   8.416   5.660
15159WAT     H245720   7.032   8.305   5.747
15160WAT      O45721   6.499   2.513   3.223
15160WAT     H145722   6.491   2.586   3.291
15160WAT     H245723   6.578   2.531   3.164
15161WAT      O45724   3.899   3.822   4.800
15161WAT     H145725   3.926   3.810   4.895
15161WAT     H245726   3.824   3.888   4.795
15162WAT      O45727   7.991   3.397   9.487
15162WAT     H145728   7.958   3.413   9.394
15162WAT     H245729   7.920   3.351   9.541
15163WAT      O45730   8.653   2.000   1.508
15163WAT     H145731   8.679   1.903   1.501
15163WAT     H245732   8.575   2.009   1.570
15164WAT      O45733   3.207   9.626   8.717
15164WAT     H145734   3.213   9.661   8.624
15164WAT     H245735   3.275   9.554   8.731
15165WAT      O45736   9.370   7.086   2.883
15165WAT     H145737   9.358   7.163   2.947
15165WAT     H245738   9.459   7.043   2.900
15166WAT      O45739   4.869   3.675   7.509
15166WAT     H145740   4.819   3.638   7.587
15166WAT     H245741   4.873   3.606   7.437
15167WAT      O45742   8.453   2.208   4.805
15167WAT     H145743   8.360   2.213   4.842
15167WAT     H245744   8.448   2.198   4.705
15168WAT      O45745   7.107   9.834   1.664
15168WAT     H145746   7.059   9.760   1.711
15168WAT     H245747   7.041   9.889   1.612
15169WAT      O45748   1.118   8.560   5.693
15169WAT     H145749   1.124   8.557   5.593
15169WAT     H245750   1.028   8.595   5.719
15170WAT      O45751   7.932   0.699   0.800
15170WAT     H145752   7.874   0.618   0.789
15170WAT     H245753   8.023   0.680   0.765
15171WAT      O45754   4.334   7.424  -0.002
15171WAT     H145755   4.328   7.524  -0.004
15171WAT     H245756   4.408   7.396   0.058
15172WAT      O45757   8.944   7.640   2.472
15172WAT     H145758   8.866   7.651   2.533
15172WAT     H245759   8.927   7.564   2.410
15173WAT      O45760   6.145   8.140   3.842
15173WAT     H145761   6.241   8.111   3.847
15173WAT     H245762   6.085   8.062   3.862
15174WAT      O45763   4.436   3.708   5.852
15174WAT     H145764   4.508   3.663   5.904
15174WAT     H245765   4.415   3.654   5.770
15175WAT      O45766   8.230   2.856   7.352
15175WAT     H145767   8.312   2.835   7.299
15175WAT     H245768   8.183   2.771   7.377
15176WAT      O45769   6.881   1.982   2.242
15176WAT     H145770   6.831   2.036   2.309
15176WAT     H245771   6.979   1.984   2.264
15177WAT      O45772   1.373   4.869   8.107
15177WAT     H145773   1.310   4.797   8.135
15177WAT     H245774   1.457   4.864   8.162
15178WAT      O45775   2.837   4.344   2.553
15178WAT     H145776   2.832   4.358   2.454
15178WAT     H245777   2.901   4.270   2.573
15179WAT      O45778   9.865   1.801   4.578
15179WAT     H145779   9.941   1.797   4.643
15179WAT     H245780   9.898   1.779   4.486
15180WAT      O45781   7.771   8.965   1.112
15180WAT     H145782   7.753   9.006   1.022
15180WAT     H245783   7.870   8.966   1.129
15181WAT      O45784   9.182   3.867   9.869
15181WAT     H145785   9.200   3.768   9.868
15181WAT     H245786   9.231   3.910   9.793
15182WAT      O45787   6.852   1.481   1.391
15182WAT     H145788   6.791   1.446   1.321
15182WAT     H245789   6.878   1.575   1.369
15183WAT      O45790   3.919   7.570   9.392
15183WAT     H145791   3.941   7.511   9.315
15183WAT     H245792   3.990   7.563   9.462
15184WAT      O45793   1.671   5.411   9.455
15184WAT     H145794   1.581   5.378   9.482
15184WAT     H245795   1.707   5.471   9.527
15185WAT      O45796   0.118   1.487   6.264
15185WAT     H145797   0.060   1.568   6.267
15185WAT     H245798   0.060   1.406   6.252
15186WAT      O45799   9.088   2.971   6.453
15186WAT     H145800   9.161   2.990   6.387
15186WAT     H245801   9.029   3.051   6.462
15187WAT      O45802   1.270   7.360   3.470
15187WAT     H145803   1.365   7.336   3.493
15187WAT     H245804   1.208   7.296   3.514
15188WAT      O45805   3.492   3.873   2.949
15188WAT     H145806   3.485   3.776   2.926
15188WAT     H245807   3.400   3.911   2.963
15189WAT      O45808   2.821   2.903   1.134
15189WAT     H145809   2.920   2.902   1.149
15189WAT     H245810   2.792   2.995   1.108
15190WAT      O45811   5.528   1.574   9.503
15190WAT     H145812   5.615   1.575   9.454
15190WAT     H245813   5.455   1.600   9.440
15191WAT      O45814   9.123   2.070   4.235
15191WAT     H145815   9.221   2.059   4.219
15191WAT     H245816   9.105   2.060   4.333
15192WAT      O45817   7.658   1.988   1.115
15192WAT     H145818   7.592   1.921   1.149
15192WAT     H245819   7.701   1.955   1.031
15193WAT      O45820   7.582   8.746   7.415
15193WAT     H145821   7.676   8.744   7.449
15193WAT     H245822   7.519   8.735   7.492
15194WAT      O45823   5.754   3.436   0.970
15194WAT     H145824   5.715   3.526   0.951
15194WAT     H245825   5.853   3.441   0.967
15195WAT      O45826   1.794   2.617   0.915
15195WAT     H145827   1.869   2.588   0.856
15195WAT     H245828   1.771   2.543   0.978
15196WAT      O45829   8.725   9.645   4.000
15196WAT     H145830   8.666   9.565   3.990
15196WAT     H245831   8.668   9.728   4.001
15197WAT      O45832   2.729   6.772   5.134
15197WAT     H145833   2.759   6.816   5.218
15197WAT     H245834   2.707   6.841   5.065
15198WAT      O45835   5.612   8.643   9.788
15198WAT     H145836   5.664   8.557   9.792
15198WAT     H245837   5.518   8.624   9.761
15199WAT      O45838   0.965   8.117   2.701
15199WAT     H145839   0.937   8.209   2.671
15199WAT     H245840   0.953   8.109   2.800
15200WAT      O45841   9.368   3.155   4.010
15200WAT     H145842   9.405   3.154   4.103
15200WAT     H245843   9.278   3.198   4.011
15201WAT      O45844   3.081   9.390   0.792
15201WAT     H145845   2.994   9.344   0.773
15201WAT     H245846   3.142   9.378   0.714
15202WAT      O45847   6.144   2.069   1.529
15202WAT     H145848   6.149   2.055   1.628
15202WAT     H245849   6.236   2.080   1.492
15203WAT      O45850   3.042   6.175   8.169
15203WAT     H145851   2.970   6.143   8.107
15203WAT     H245852   3.009   6.171   8.263
15204WAT      O45853   8.279   5.407   5.342
15204WAT     H145854   8.297   5.424   5.439
15204WAT     H245855   8.342   5.337   5.308
15205WAT      O45856   2.619   9.694   3.627
15205WAT     H145857   2.685   9.735   3.564
15205WAT     H245858   2.633   9.595   3.630
15206WAT      O45859   0.168   2.192   2.349
15206WAT     H145860   0.197   2.126   2.281
15206WAT     H245861   0.078   2.167   2.385
15207WAT      O45862   4.463   9.678   4.000
15207WAT     H145863   4.562   9.687   4.012
15207WAT     H245864   4.444   9.622   3.920
15208WAT      O45865   5.125   4.832   0.227
15208WAT     H145866   5.085   4.838   0.135
15208WAT     H245867   5.207   4.775   0.223
15209WAT      O45868   7.847   8.817   2.645
15209WAT     H145869   7.834   8.783   2.738
15209WAT     H245870   7.937   8.861   2.638
15210WAT      O45871   9.834   4.834   8.060
15210WAT     H145872   9.908   4.821   8.126
15210WAT     H245873   9.799   4.745   8.030
15211WAT      O45874   5.741   7.802   3.217
15211WAT     H145875   5.645   7.788   3.191
15211WAT     H245876   5.800   7.754   3.152
15212WAT      O45877   9.654   7.246   8.676
15212WAT     H145878   9.724   7.233   8.605
15212WAT     H245879   9.571   7.196   8.651
15213WAT      O45880   0.186   0.427   1.596
15213WAT     H145881   0.121   0.479   1.540
15213WAT     H245882   0.274   0.475   1.597
15214WAT      O45883   7.508   1.502   8.210
15214WAT     H145884   7.593   1.501   8.158
15214WAT     H245885   7.458   1.417   8.194
15215WAT      O45886   8.711   5.398   8.088
15215WAT     H145887   8.747   5.410   8.181
15215WAT     H245888   8.642   5.326   8.087
15216WAT      O45889   7.090   9.313   8.859
15216WAT     H145890   7.038   9.398   8.861
15216WAT     H245891   7.162   9.316   8.928
15217WAT      O45892   2.849   7.739   2.395
15217WAT     H145893   2.891   7.669   2.337
15217WAT     H245894   2.753   7.751   2.368
15218WAT      O45895   9.087   4.102   8.662
15218WAT     H145896   9.122   4.185   8.620
15218WAT     H245897   9.127   4.022   8.616
15219WAT      O45898   7.275   1.280   9.798
15219WAT     H145899   7.224   1.344   9.855
15219WAT     H245900   7.352   1.244   9.849
15220WAT      O45901   5.238   1.503   4.303
15220WAT     H145902   5.144   1.479   4.279
15220WAT     H245903   5.301   1.457   4.240
15221WAT      O45904   3.048   2.290   5.358
15221WAT     H145905   3.015   2.239   5.279
15221WAT     H245906   3.148   2.293   5.357
15222WAT      O45907   7.937   7.316   2.666
15222WAT     H145908   7.928   7.414   2.685
15222WAT     H245909   7.858   7.268   2.703
15223WAT      O45910   3.620   0.691   9.531
15223WAT     H145911   3.663   0.602   9.536
15223WAT     H245912   3.588   0.708   9.438
15224WAT      O45913   2.640   6.592   0.164
15224WAT     H145914   2.674   6.591   0.070
15224WAT     H245915   2.658   6.504   0.207
15225WAT      O45916   4.486   2.998   2.942
15225WAT     H145917   4.402   3.004   2.997
15225WAT     H245918   4.504   2.902   2.919
15226WAT      O45919   3.968   1.067   0.968
15226WAT     H145920   4.048   1.087   0.912
15226WAT     H245921   3.916   1.151   0.983
15227WAT      O45922   4.114   3.253   1.686
15227WAT     H145923   4.164   3.338   1.699
15227WAT     H245924   4.022   3.273   1.653
15228WAT      O45925   3.529   1.539   2.884
15228WAT     H145926   3.517   1.599   2.963
15228WAT     H245927   3.550   1.446   2.916
15229WAT      O45928   1.273   6.299   0.551
15229WAT     H145929   1.302   6.284   0.456
15229WAT     H245930   1.350   6.281   0.612
15230WAT      O45931   4.551   9.734   6.333
15230WAT     H145932   4.477   9.668   6.319
15230WAT     H245933   4.584   9.765   6.244
15231WAT      O45934   4.087   2.738   0.060
15231WAT     H145935   4.176   2.754   0.103
15231WAT     H245936   4.082   2.789  -0.025
15232WAT      O45937   3.068   4.705   4.079
15232WAT     H145938   3.108   4.766   4.147
15232WAT     H245939   2.976   4.736   4.056
15233WAT      O45940   0.410   0.499   2.220
15233WAT     H145941   0.448   0.534   2.306
15233WAT     H245942   0.357   0.572   2.176
15234WAT      O45943   2.078   8.931   3.801
15234WAT     H145944   2.108   8.844   3.841
15234WAT     H245945   2.058   8.996   3.875
15235WAT      O45946   9.175   9.054   2.812
15235WAT     H145947   9.262   9.009   2.793
15235WAT     H245948   9.185   9.113   2.892
15236WAT      O45949   6.930   0.969   0.523
15236WAT     H145950   6.894   0.879   0.547
15236WAT     H245951   6.923   1.030   0.601
15237WAT      O45952   6.908   7.955   2.409
15237WAT     H145953   6.842   7.994   2.345
15237WAT     H245954   6.965   8.028   2.446
15238WAT      O45955   5.137   1.033   5.101
15238WAT     H145956   5.075   1.000   5.030
15238WAT     H245957   5.217   0.974   5.106
15239WAT      O45958   4.445   6.785   8.652
15239WAT     H145959   4.406   6.693   8.653
15239WAT     H245960   4.540   6.782   8.682
15240WAT      O45961   0.252   1.493   0.860
15240WAT     H145962   0.287   1.573   0.908
15240WAT     H245963   0.322   1.458   0.798
15241WAT      O45964   2.483   1.207   8.770
15241WAT     H145965   2.532   1.277   8.718
15241WAT     H245966   2.501   1.117   8.729
15242WAT      O45967   1.346   4.005   8.238
15242WAT     H145968   1.253   3.972   8.258
15242WAT     H245969   1.408   3.976   8.311
15243WAT      O45970   1.478   3.318   5.279
15243WAT     H145971   1.378   3.309   5.284
15243WAT     H245972   1.503   3.361   5.192
15244WAT      O45973   2.524   7.331   8.287
15244WAT     H145974   2.614   7.353   8.325
15244WAT     H245975   2.479   7.416   8.258
15245WAT      O45976   9.030   5.806   8.252
15245WAT     H145977   9.007   5.760   8.167
15245WAT     H245978   9.101   5.755   8.300
15246WAT      O45979   4.801   1.441   4.879
15246WAT     H145980   4.792   1.510   4.951
15246WAT     H245981   4.863   1.473   4.808
15247WAT      O45982   8.487   0.994   6.947
15247WAT     H145983   8.586   0.986   6.936
15247WAT     H245984   8.461   0.965   7.039
15248WAT      O45985   9.502   8.847   4.732
15248WAT     H145986   9.555   8.784   4.789
15248WAT     H245987   9.405   8.820   4.734
15249WAT      O45988   4.689   8.704   1.976
15249WAT     H145989   4.696   8.720   2.074
15249WAT     H245990   4.780   8.698   1.936
15250WAT      O45991   4.330   0.999   1.674
15250WAT     H145992   4.411   0.987   1.732
15250WAT     H245993   4.247   0.984   1.728
15251WAT      O45994   8.418   9.583   6.998
15251WAT     H145995   8.470   9.506   7.035
15251WAT     H245996   8.358   9.620   7.069
15252WAT      O45997   5.448   9.558   4.546
15252WAT     H145998   5.520   9.583   4.611
15252WAT     H245999   5.446   9.625   4.471
15253WAT      O46000   9.246   2.550   7.965
15253WAT     H146001   9.193   2.516   7.887
15253WAT     H246002   9.344   2.537   7.946
15254WAT      O46003   3.926   7.840   9.300
15254WAT     H146004   3.882   7.824   9.212
15254WAT     H246005   3.944   7.752   9.345
15255WAT      O46006   9.160   7.491   9.367
15255WAT     H146007   9.183   7.545   9.286
15255WAT     H246008   9.065   7.510   9.393
15256WAT      O46009   0.878   0.647   1.017
15256WAT     H146010   0.947   0.713   0.989
15256WAT     H246011   0.853   0.589   0.940
15257WAT      O46012   0.755   1.663   1.779
15257WAT     H146013   0.743   1.697   1.872
15257WAT     H246014   0.679   1.603   1.756
15258WAT      O46015   2.016   2.543   3.881
15258WAT     H146016   2.035   2.638   3.854
15258WAT     H246017   2.097   2.488   3.866
15259WAT      O46018   2.463   3.201   8.388
15259WAT     H146019   2.414   3.286   8.369
15259WAT     H246020   2.413   3.124   8.347
15260WAT      O46021   6.200   3.206   9.516
15260WAT     H146022   6.202   3.300   9.480
15260WAT     H246023   6.273   3.153   9.474
15261WAT      O46024   4.877   6.677   5.519
15261WAT     H146025   4.890   6.772   5.549
15261WAT     H246026   4.798   6.672   5.458
15262WAT      O46027   1.522   2.531   5.292
15262WAT     H146028   1.602   2.480   5.324
15262WAT     H246029   1.500   2.504   5.198
15263WAT      O46030   9.301   3.392   6.991
15263WAT     H146031   9.269   3.399   7.086
15263WAT     H246032   9.229   3.425   6.930
15264WAT      O46033   7.881   6.924   9.047
15264WAT     H146034   7.905   6.907   9.142
15264WAT     H246035   7.903   7.019   9.024
15265WAT      O46036   9.344   1.072   7.483
15265WAT     H146037   9.410   1.135   7.444
15265WAT     H246038   9.383   0.980   7.487
15266WAT      O46039   3.251   6.485   9.862
15266WAT     H146040   3.263   6.546   9.941
15266WAT     H246041   3.238   6.539   9.779
15267WAT      O46042   9.258   1.813   1.156
15267WAT     H146043   9.246   1.843   1.250
15267WAT     H246044   9.187   1.748   1.131
15268WAT      O46045   3.173   0.984   4.099
15268WAT     H146046   3.170   1.002   4.000
15268WAT     H246047   3.182   0.886   4.115
15269WAT      O46048   6.824   1.207   0.980
15269WAT     H146049   6.786   1.124   0.939
15269WAT     H246050   6.771   1.286   0.952
15270WAT      O46051   2.269   9.130   3.675
15270WAT     H146052   2.337   9.155   3.743
15270WAT     H246053   2.198   9.074   3.717
15271WAT      O46054   9.563   9.561   8.888
15271WAT     H146055   9.624   9.614   8.946
15271WAT     H246056   9.617   9.503   8.826
15272WAT      O46057   1.048   9.034   0.456
15272WAT     H146058   1.125   9.069   0.511
15272WAT     H246059   1.033   8.938   0.478
15273WAT      O46060   5.761   1.509   9.372
15273WAT     H146061   5.737   1.423   9.326
15273WAT     H246062   5.821   1.489   9.450
15274WAT      O46063   2.437   7.790   4.881
15274WAT     H146064   2.530   7.774   4.848
15274WAT     H246065   2.371   7.763   4.811
15275WAT      O46066   4.538   5.631   3.472
15275WAT     H146067   4.451   5.584   3.487
15275WAT     H246068   4.614   5.571   3.495
15276WAT      O46069   2.527   2.665   7.984
15276WAT     H146070   2.431   2.670   7.956
15276WAT     H246071   2.558   2.570   7.982
15277WAT      O46072   8.524   1.503   6.223
15277WAT     H146073   8.575   1.553   6.292
15277WAT     H246074   8.586   1.474   6.150
15278WAT      O46075   5.930   4.656   7.282
15278WAT     H146076   6.002   4.615   7.226
15278WAT     H246077   5.852   4.680   7.224
15279WAT      O46078   9.529   0.524   8.933
15279WAT     H146079   9.441   0.477   8.940
15279WAT     H246080   9.572   0.501   8.845
15280WAT      O46081   3.132   9.492   3.961
15280WAT     H146082   3.077   9.436   4.023
15280WAT     H246083   3.106   9.588   3.972
15281WAT      O46084   2.054   0.629   3.866
15281WAT     H146085   2.087   0.626   3.961
15281WAT     H246086   2.093   0.709   3.820
15282WAT      O46087   8.058   3.503   0.712
15282WAT     H146088   8.017   3.473   0.798
15282WAT     H246089   8.124   3.576   0.730
15283WAT      O46090   7.520   9.113   4.714
15283WAT     H146091   7.445   9.148   4.770
15283WAT     H246092   7.495   9.023   4.678
15284WAT      O46093   1.437   9.357   2.242
15284WAT     H146094   1.488   9.279   2.206
15284WAT     H246095   1.501   9.430   2.267
15285WAT      O46096   6.138   2.447   0.813
15285WAT     H146097   6.073   2.511   0.855
15285WAT     H246098   6.185   2.492   0.738
15286WAT      O46099   9.007   4.730   8.561
15286WAT     H146100   8.918   4.719   8.605
15286WAT     H246101   8.999   4.794   8.484
15287WAT      O46102   5.988   1.086   3.169
15287WAT     H146103   5.898   1.050   3.194
15287WAT     H246104   5.986   1.186   3.172
15288WAT      O46105   8.801   4.562   1.031
15288WAT     H146106   8.843   4.490   1.086
15288WAT     H246107   8.870   4.627   1.001
15289WAT      O46108   8.601   1.083   6.421
15289WAT     H146109   8.649   1.041   6.498
15289WAT     H246110   8.657   1.157   6.384
15290WAT      O46111   5.143   7.357   8.216
15290WAT     H146112   5.098   7.427   8.273
15290WAT     H246113   5.141   7.270   8.264
15291WAT      O46114   9.172   2.063   6.955
15291WAT     H146115   9.267   2.087   6.977
15291WAT     H246116   9.127   2.030   7.038
15292WAT      O46117   3.866   6.430   2.617
15292WAT     H146118   3.917   6.450   2.701
15292WAT     H246119   3.864   6.511   2.559
15293WAT      O46120   0.181   3.214   5.837
15293WAT     H146121   0.085   3.194   5.853
15293WAT     H246122   0.225   3.135   5.795
15294WAT      O46123   8.425   3.058   1.262
15294WAT     H146124   8.345   3.110   1.234
15294WAT     H246125   8.450   2.993   1.189
15295WAT      O46126   0.947   8.714   9.763
15295WAT     H146127   0.849   8.735   9.762
15295WAT     H246128   0.961   8.615   9.758
15296WAT      O46129   4.492   2.452   4.732
15296WAT     H146130   4.471   2.455   4.634
15296WAT     H246131   4.435   2.520   4.780
15297WAT      O46132   9.420   8.894   9.748
15297WAT     H146133   9.460   8.924   9.661
15297WAT     H246134   9.473   8.932   9.824
15298WAT      O46135   6.981   6.928   2.552
15298WAT     H146136   6.931   6.842   2.546
15298WAT     H246137   6.919   7.001   2.580
15299WAT      O46138   4.483   9.306   1.960
15299WAT     H146139   4.541   9.339   2.035
15299WAT     H246140   4.538   9.250   1.898
15300WAT      O46141   4.958   9.775   7.881
15300WAT     H146142   4.863   9.783   7.852
15300WAT     H246143   5.018   9.788   7.802
15301WAT      O46144   8.681   2.244   3.873
15301WAT     H146145   8.744   2.308   3.918
15301WAT     H246146   8.617   2.207   3.940
15302WAT      O46147   4.879   6.585   2.127
15302WAT     H146148   4.884   6.497   2.175
15302WAT     H246149   4.874   6.569   2.029
15303WAT      O46150   2.426   6.069   6.000
15303WAT     H146151   2.344   6.123   5.981
15303WAT     H246152   2.409   5.973   5.975
15304WAT      O46153   2.223   3.479   9.701
15304WAT     H146154   2.316   3.446   9.688
15304WAT     H246155   2.214   3.521   9.791
15305WAT      O46156   5.614   2.410   0.565
15305WAT     H146157   5.677   2.332   0.553
15305WAT     H246158   5.667   2.493   0.579
15306WAT      O46159   3.559   6.211   8.534
15306WAT     H146160   3.503   6.260   8.602
15306WAT     H246161   3.634   6.270   8.505
15307WAT      O46162   6.747   0.011   8.940
15307WAT     H146163   6.669   0.042   8.994
15307WAT     H246164   6.828   0.004   8.999
15308WAT      O46165   2.432   6.332   0.334
15308WAT     H146166   2.521   6.347   0.291
15308WAT     H246167   2.432   6.374   0.425
15309WAT      O46168   6.650   3.642   8.567
15309WAT     H146169   6.566   3.672   8.522
15309WAT     H246170   6.728   3.660   8.506
15310WAT      O46171   0.972   4.003   0.858
15310WAT     H146172   0.911   3.926   0.840
15310WAT     H246173   1.065   3.970   0.872
15311WAT      O46174   1.450   8.689   9.863
15311WAT     H146175   1.528   8.695   9.800
15311WAT     H246176   1.484   8.671   9.955
15312WAT      O46177   9.006   6.884   7.812
15312WAT     H146178   8.996   6.796   7.858
15312WAT     H246179   9.097   6.889   7.770
15313WAT      O46180   4.183   1.490   6.292
15313WAT     H146181   4.132   1.449   6.217
15313WAT     H246182   4.259   1.544   6.256
15314WAT      O46183   4.971   3.732   4.030
15314WAT     H146184   4.898   3.682   3.983
15314WAT     H246185   4.957   3.727   4.129
15315WAT      O46186   4.049   6.481   6.388
15315WAT     H146187   4.080   6.411   6.453
15315WAT     H246188   3.950   6.493   6.397
15316WAT      O46189   1.673   5.714   8.288
15316WAT     H146190   1.586   5.710   8.336
15316WAT     H246191   1.726   5.792   8.320
15317WAT      O46192   8.746   5.401   4.031
15317WAT     H146193   8.691   5.484   4.034
15317WAT     H246194   8.825   5.412   4.091
15318WAT      O46195   1.063   4.491   5.579
15318WAT     H146196   1.030   4.492   5.673
15318WAT     H246197   1.022   4.568   5.529
15319WAT      O46198   0.799   8.128   2.133
15319WAT     H146199   0.815   8.227   2.141
15319WAT     H246200   0.789   8.089   2.224
15320WAT      O46201   3.568   0.275   4.488
15320WAT     H146202   3.523   0.287   4.577
15320WAT     H246203   3.506   0.303   4.415
15321WAT      O46204   8.284   8.890   3.742
15321WAT     H146205   8.365   8.891   3.801
15321WAT     H246206   8.296   8.954   3.666
15322WAT      O46207   2.837   1.210   7.253
15322WAT     H146208   2.818   1.154   7.173
15322WAT     H246209   2.796   1.167   7.334
15323WAT      O46210   7.990   5.837   4.326
15323WAT     H146211   8.030   5.752   4.292
15323WAT     H246212   8.045   5.873   4.400
15324WAT      O46213   0.911   0.737   6.349
15324WAT     H146214   0.879   0.812   6.407
15324WAT     H246215   0.852   0.657   6.363
15325WAT      O46216   1.766   6.386   7.844
15325WAT     H146217   1.733   6.378   7.750
15325WAT     H246218   1.760   6.296   7.889
15326WAT      O46219   0.404   5.324   4.037
15326WAT     H146220   0.452   5.308   4.124
15326WAT     H246221   0.455   5.391   3.983
15327WAT      O46222   4.036   8.824   2.944
15327WAT     H146223   3.987   8.778   3.018
15327WAT     H246224   4.032   8.923   2.957
15328WAT      O46225   3.010   7.461   0.455
15328WAT     H146226   2.975   7.551   0.429
15328WAT     H246227   2.935   7.396   0.460
15329WAT      O46228   7.306   5.563   5.183
15329WAT     H146229   7.297   5.527   5.090
15329WAT     H246230   7.215   5.569   5.225
15330WAT      O46231   5.646   3.796   3.798
15330WAT     H146232   5.689   3.854   3.867
15330WAT     H246233   5.689   3.706   3.797
15331WAT      O46234   7.821   2.620   4.035
15331WAT     H146235   7.779   2.703   4.072
15331WAT     H246236   7.886   2.646   3.964
15332WAT      O46237   1.707   1.714   3.227
15332WAT     H146238   1.783   1.650   3.215
15332WAT     H246239   1.633   1.691   3.164
15333WAT      O46240   7.246   0.564   8.035
15333WAT     H146241   7.150   0.547   8.053
15333WAT     H246242   7.267   0.660   8.052
15334WAT      O46243   7.252   8.389   8.995
15334WAT     H146244   7.193   8.435   8.929
15334WAT     H246245   7.248   8.290   8.980
15335WAT      O46246   1.157   8.192   2.990
15335WAT     H146247   1.207   8.183   3.075
15335WAT     H246248   1.059   8.176   3.006
15336WAT      O46249   5.161   5.287   8.677
15336WAT     H146250   5.150   5.247   8.768
15336WAT     H246251   5.225   5.232   8.623
15337WAT      O46252   3.833   2.839   0.607
15337WAT     H146253   3.905   2.877   0.549
15337WAT     H246254   3.753   2.817   0.551
15338WAT      O46255   9.383   0.769   0.136
15338WAT     H146256   9.336   0.694   0.183
15338WAT     H246257   9.322   0.809   0.068
15339WAT      O46258   9.524   7.847   2.312
15339WAT     H146259   9.556   7.755   2.288
15339WAT     H246260   9.588   7.890   2.375
15340WAT      O46261   7.343   0.004   8.411
15340WAT     H146262   7.279  -0.038   8.346
15340WAT     H246263   7.421   0.041   8.362
15341WAT      O46264   8.472   9.818   5.659
15341WAT     H146265   8.466   9.795   5.562
15341WAT     H246266   8.445   9.739   5.714
15342WAT      O46267   8.676   7.386   1.006
15342WAT     H146268   8.643   7.477   0.982
15342WAT     H246269   8.622   7.350   1.082
15343WAT      O46270   7.329   9.404   7.577
15343WAT     H146271   7.355   9.405   7.480
15343WAT     H246272   7.280   9.320   7.598
15344WAT      O46273   9.482   4.002   3.907
15344WAT     H146274   9.429   4.079   3.875
15344WAT     H246275   9.431   3.917   3.892
15345WAT      O46276   1.354   2.783   7.027
15345WAT     H146277   1.352   2.876   6.992
15345WAT     H246278   1.448   2.754   7.043
15346WAT      O46279   9.729   9.516   5.236
15346WAT     H146280   9.639   9.487   5.268
15346WAT     H246281   9.720   9.566   5.149
15347WAT      O46282   6.755   3.470   4.392
15347WAT     H146283   6.834   3.474   4.453
15347WAT     H246284   6.750   3.380   4.350
15348WAT      O46285   0.173   0.012   8.771
15348WAT     H146286   0.201  -0.065   8.829
15348WAT     H246287   0.151   0.091   8.829
15349WAT      O46288   8.691   6.800   5.908
15349WAT     H146289   8.619   6.774   5.973
15349WAT     H246290   8.659   6.877   5.853
15350WAT      O46291   0.814   1.584   9.731
15350WAT     H146292   0.886   1.522   9.761
15350WAT     H246293   0.834   1.677   9.762
15351WAT      O46294   0.215   9.586   5.413
15351WAT     H146295   0.127   9.549   5.443
15351WAT     H246296   0.205   9.683   5.393
15352WAT      O46297   5.869   5.822   2.385
15352WAT     H146298   5.962   5.861   2.389
15352WAT     H246299   5.810   5.870   2.450
15353WAT      O46300   0.546   5.129   3.131
15353WAT     H146301   0.590   5.056   3.077
15353WAT     H246302   0.531   5.097   3.224
15354WAT      O46303   8.634   6.537   6.783
15354WAT     H146304   8.548   6.585   6.764
15354WAT     H246305   8.676   6.508   6.697
15355WAT      O46306   2.434   2.450   8.663
15355WAT     H146307   2.351   2.426   8.613
15355WAT     H246308   2.456   2.378   8.728
15356WAT      O46309   6.360   4.670   2.910
15356WAT     H146310   6.395   4.693   3.001
15356WAT     H246311   6.282   4.728   2.889
15357WAT      O46312   0.511   7.655   2.385
15357WAT     H146313   0.425   7.631   2.429
15357WAT     H246314   0.505   7.634   2.287
15358WAT      O46315   0.927   0.304   2.353
15358WAT     H146316   0.864   0.226   2.356
15358WAT     H246317   0.874   0.389   2.353
15359WAT      O46318   1.258   2.138   1.278
15359WAT     H146319   1.296   2.174   1.194
15359WAT     H246320   1.168   2.097   1.259
15360WAT      O46321   3.512   7.830   6.529
15360WAT     H146322   3.528   7.919   6.571
15360WAT     H246323   3.579   7.764   6.563
15361WAT      O46324   7.938   8.654   3.488
15361WAT     H146325   7.861   8.641   3.551
15361WAT     H246326   7.963   8.566   3.448
15362WAT      O46327   7.620   2.204   7.100
15362WAT     H146328   7.532   2.221   7.057
15362WAT     H246329   7.618   2.236   7.195
15363WAT      O46330   6.327   7.264   0.344
15363WAT     H146331   6.328   7.323   0.264
15363WAT     H246332   6.243   7.280   0.396
15364WAT      O46333   8.750   4.184   1.040
15364WAT     H146334   8.722   4.257   1.103
15364WAT     H246335   8.783   4.106   1.093
15365WAT      O46336   1.347   6.533   9.301
15365WAT     H146337   1.331   6.617   9.250
15365WAT     H246338   1.360   6.555   9.398
15366WAT      O46339   1.765   0.459   0.462
15366WAT     H146340   1.805   0.492   0.377
15366WAT     H246341   1.838   0.437   0.527
15367WAT      O46342   7.127   9.416   4.851
15367WAT     H146343   7.074   9.335   4.874
15367WAT     H246344   7.093   9.457   4.766
15368WAT      O46345   4.681   5.764   1.843
15368WAT     H146346   4.665   5.691   1.909
15368WAT     H246347   4.614   5.757   1.769
15369WAT      O46348   4.508   1.910   9.148
15369WAT     H146349   4.505   1.810   9.145
15369WAT     H246350   4.502   1.940   9.243
15370WAT      O46351   4.104   4.948   6.534
15370WAT     H146352   4.105   4.975   6.437
15370WAT     H246353   4.176   4.880   6.550
15371WAT      O46354   8.033   5.618   7.682
15371WAT     H146355   8.090   5.563   7.620
15371WAT     H246356   7.942   5.577   7.689
15372WAT      O46357   9.264   6.881   7.683
15372WAT     H146358   9.269   6.955   7.616
15372WAT     H246359   9.342   6.886   7.745
15373WAT      O46360   1.372   8.021   9.759
15373WAT     H146361   1.431   7.970   9.821
15373WAT     H246362   1.422   8.039   9.674
15374WAT      O46363   4.178   2.487   6.401
15374WAT     H146364   4.274   2.464   6.414
15374WAT     H246365   4.161   2.506   6.304
15375WAT      O46366   4.403   3.784   2.922
15375WAT     H146367   4.351   3.709   2.964
15375WAT     H246368   4.402   3.772   2.823
15376WAT      O46369   8.622   9.106   5.652
15376WAT     H146370   8.618   9.007   5.666
15376WAT     H246371   8.638   9.152   5.740
15377WAT      O46372   7.294   0.349   4.447
15377WAT     H146373   7.219   0.286   4.465
15377WAT     H246374   7.285   0.388   4.355
15378WAT      O46375   5.242   8.484   1.714
15378WAT     H146376   5.290   8.570   1.730
15378WAT     H246377   5.221   8.440   1.802
15379WAT      O46378   2.729   8.806   7.801
15379WAT     H146379   2.710   8.714   7.766
15379WAT     H246380   2.828   8.816   7.814
15380WAT      O46381   0.999   9.467   4.122
15380WAT     H146382   0.992   9.553   4.172
15380WAT     H246383   1.020   9.393   4.186
15381WAT      O46384   4.716   8.102   8.405
15381WAT     H146385   4.703   8.179   8.342
15381WAT     H246386   4.720   8.017   8.353
15382WAT      O46387   8.703   0.940   4.652
15382WAT     H146388   8.634   0.871   4.676
15382WAT     H246389   8.716   1.003   4.729
15383WAT      O46390   1.919   5.883   5.128
15383WAT     H146391   1.980   5.897   5.050
15383WAT     H246392   1.962   5.921   5.210
15384WAT      O46393   1.290   6.296   5.097
15384WAT     H146394   1.362   6.365   5.109
15384WAT     H246395   1.264   6.293   5.000
15385WAT      O46396   4.690   0.258   9.358
15385WAT     H146397   4.661   0.170   9.395
15385WAT     H246398   4.695   0.325   9.432
15386WAT      O46399   0.316   9.089   9.348
15386WAT     H146400   0.376   9.139   9.286
15386WAT     H246401   0.304   8.996   9.315
15387WAT      O46402   1.614   8.153   9.197
15387WAT     H146403   1.703   8.175   9.157
15387WAT     H246404   1.569   8.237   9.227
15388WAT      O46405   2.809   5.789   7.398
15388WAT     H146406   2.858   5.861   7.446
15388WAT     H246407   2.871   5.712   7.382
15389WAT      O46408   4.970   8.875   7.443
15389WAT     H146409   4.893   8.855   7.383
15389WAT     H246410   5.046   8.910   7.389
15390WAT      O46411   1.306   4.634   0.609
15390WAT     H146412   1.214   4.673   0.597
15390WAT     H246413   1.367   4.671   0.539
15391WAT      O46414   1.845   8.266   5.407
15391WAT     H146415   1.890   8.268   5.318
15391WAT     H246416   1.745   8.265   5.395
15392WAT      O46417   5.995   4.974   2.410
15392WAT     H146418   6.077   5.023   2.441
15392WAT     H246419   5.915   5.012   2.457
15393WAT      O46420   6.368   5.269   3.737
15393WAT     H146421   6.403   5.239   3.649
15393WAT     H246422   6.431   5.335   3.778
15394WAT      O46423   4.593   9.176   8.038
15394WAT     H146424   4.654   9.122   7.980
15394WAT     H246425   4.645   9.214   8.115
15395WAT      O46426   9.612   0.659   6.189
15395WAT     H146427   9.650   0.576   6.151
15395WAT     H246428   9.677   0.734   6.179
15396WAT      O46429   2.048   1.535   1.797
15396WAT     H146430   1.956   1.525   1.758
15396WAT     H246431   2.107   1.582   1.731
15397WAT      O46432   1.129   4.919   7.965
15397WAT     H146433   1.142   4.849   8.035
15397WAT     H246434   1.211   4.925   7.908
15398WAT      O46435   2.830   4.141   2.920
15398WAT     H146436   2.736   4.174   2.916
15398WAT     H246437   2.888   4.210   2.964
15399WAT      O46438   3.713   7.590   2.816
15399WAT     H146439   3.790   7.526   2.817
15399WAT     H246440   3.682   7.604   2.723
15400WAT      O46441   9.367   9.504   7.854
15400WAT     H146442   9.268   9.487   7.853
15400WAT     H246443   9.383   9.603   7.848
15401WAT      O46444   1.715   8.875   1.263
15401WAT     H146445   1.683   8.808   1.196
15401WAT     H246446   1.727   8.831   1.352
15402WAT      O46447   0.813   4.491   8.989
15402WAT     H146448   0.754   4.505   9.068
15402WAT     H246449   0.905   4.469   9.019
15403WAT      O46450   7.868   9.125   8.324
15403WAT     H146451   7.936   9.128   8.250
15403WAT     H246452   7.778   9.102   8.285
15404WAT      O46453   0.265   6.633   0.151
15404WAT     H146454   0.343   6.695   0.140
15404WAT     H246455   0.246   6.588   0.064
15405WAT      O46456   2.544   7.487   7.067
15405WAT     H146457   2.450   7.454   7.074
15405WAT     H246458   2.552   7.575   7.113
15406WAT      O46459   4.987   5.781   3.045
15406WAT     H146460   4.988   5.690   3.087
15406WAT     H246461   4.990   5.850   3.117
15407WAT      O46462   9.740   4.987   3.012
15407WAT     H146463   9.830   4.961   3.048
15407WAT     H246464   9.749   5.005   2.914
15408WAT      O46465   2.528   6.200   3.960
15408WAT     H146466   2.445   6.252   3.978
15408WAT     H246467   2.540   6.189   3.861
15409WAT      O46468   2.551   5.876   3.159
15409WAT     H146469   2.455   5.907   3.163
15409WAT     H246470   2.555   5.779   3.183
15410WAT      O46471   7.165   9.131   1.362
15410WAT     H146472   7.167   9.197   1.437
15410WAT     H246473   7.085   9.072   1.371
15411WAT      O46474   0.362   8.075   5.114
15411WAT     H146475   0.408   7.986   5.120
15411WAT     H246476   0.423   8.140   5.068
15412WAT      O46477   5.612   2.806   8.271
15412WAT     H146478   5.548   2.879   8.297
15412WAT     H246479   5.654   2.768   8.353
15413WAT      O46480   9.347   5.045   7.896
15413WAT     H146481   9.253   5.077   7.910
15413WAT     H246482   9.345   4.947   7.873
15414WAT      O46483   2.529   3.197   2.668
15414WAT     H146484   2.585   3.248   2.602
15414WAT     H246485   2.435   3.192   2.635
15415WAT      O46486   6.420   8.061   3.828
15415WAT     H146487   6.459   8.147   3.794
15415WAT     H246488   6.467   8.035   3.912
15416WAT      O46489   9.715   3.177   9.454
15416WAT     H146490   9.721   3.116   9.533
15416WAT     H246491   9.631   3.159   9.404
15417WAT      O46492   7.956   1.344   7.837
15417WAT     H146493   7.980   1.250   7.813
15417WAT     H246494   7.956   1.353   7.937
15418WAT      O46495   1.729   3.119   8.045
15418WAT     H146496   1.652   3.065   8.082
15418WAT     H246497   1.713   3.137   7.948
15419WAT      O46498   5.043   6.556   3.724
15419WAT     H146499   4.960   6.587   3.772
15419WAT     H246500   5.122   6.566   3.785
15420WAT      O46501   0.423   8.259   4.644
15420WAT     H146502   0.491   8.191   4.669
15420WAT     H246503   0.331   8.220   4.654
15421WAT      O46504   4.434   3.537   9.405
15421WAT     H146505   4.397   3.448   9.432
15421WAT     H246506   4.493   3.526   9.325
15422WAT      O46507   8.541   8.272   6.718
15422WAT     H146508   8.483   8.354   6.719
15422WAT     H246509   8.530   8.224   6.631
15423WAT      O46510   6.901   1.727   6.171
15423WAT     H146511   6.819   1.729   6.229
15423WAT     H246512   6.941   1.818   6.167
15424WAT      O46513   5.433   8.041   8.884
15424WAT     H146514   5.399   8.088   8.802
15424WAT     H246515   5.533   8.047   8.886
15425WAT      O46516   6.730   0.131   7.804
15425WAT     H146517   6.776   0.060   7.858
15425WAT     H246518   6.793   0.166   7.735
15426WAT      O46519   5.538   2.332   5.790
15426WAT     H146520   5.611   2.400   5.781
15426WAT     H246521   5.455   2.366   5.744
15427WAT      O46522   1.129   0.262   0.086
15427WAT     H146523   1.100   0.179   0.038
15427WAT     H246524   1.226   0.278   0.067
15428WAT      O46525   7.801   7.359   1.509
15428WAT     H146526   7.764   7.425   1.444
15428WAT     H246527   7.847   7.408   1.583
15429WAT      O46528   9.581   4.203   6.135
15429WAT     H146529   9.671   4.227   6.171
15429WAT     H246530   9.533   4.146   6.201
15430WAT      O46531   4.808   9.212   5.596
15430WAT     H146532   4.741   9.273   5.554
15430WAT     H246533   4.890   9.263   5.620
15431WAT      O46534   6.271   2.998   6.332
15431WAT     H146535   6.198   2.991   6.264
15431WAT     H246536   6.321   3.084   6.319
15432WAT      O46537   5.863   4.781   1.820
15432WAT     H146538   5.839   4.702   1.764
15432WAT     H246539   5.948   4.761   1.870
15433WAT      O46540   6.138   8.632   7.604
15433WAT     H146541   6.070   8.578   7.654
15433WAT     H246542   6.215   8.653   7.664
15434WAT      O46543   6.445   6.610   0.948
15434WAT     H146544   6.432   6.667   1.029
15434WAT     H246545   6.356   6.583   0.911
15435WAT      O46546   5.996   9.352   2.397
15435WAT     H146547   5.955   9.326   2.484
15435WAT     H246548   6.033   9.271   2.352
15436WAT      O46549   9.744   6.509   1.022
15436WAT     H146550   9.839   6.528   1.000
15436WAT     H246551   9.686   6.531   0.944
15437WAT      O46552   5.535   8.627   5.360
15437WAT     H146553   5.614   8.647   5.419
15437WAT     H246554   5.552   8.544   5.307
15438WAT      O46555   6.087   0.495   9.801
15438WAT     H146556   6.104   0.411   9.852
15438WAT     H246557   6.146   0.568   9.836
15439WAT      O46558   2.420   9.116   1.526
15439WAT     H146559   2.515   9.127   1.557
15439WAT     H246560   2.414   9.040   1.462
15440WAT      O46561   9.341   8.634   9.770
15440WAT     H146562   9.416   8.598   9.825
15440WAT     H246563   9.348   8.734   9.765
15441WAT      O46564   7.438   3.514   8.940
15441WAT     H146565   7.433   3.606   8.901
15441WAT     H246566   7.419   3.517   9.038
15442WAT      O46567   3.125   3.806   2.732
15442WAT     H146568   3.178   3.881   2.692
15442WAT     H246569   3.168   3.719   2.708
15443WAT      O46570   0.806   5.274   6.949
15443WAT     H146571   0.901   5.304   6.959
15443WAT     H246572   0.802   5.175   6.943
15444WAT      O46573   5.328   3.252   9.694
15444WAT     H146574   5.284   3.243   9.784
15444WAT     H246575   5.376   3.168   9.671
15445WAT      O46576   2.099   4.992   4.457
15445WAT     H146577   2.084   5.087   4.429
15445WAT     H246578   2.012   4.942   4.455
15446WAT      O46579   0.254   5.169   6.103
15446WAT     H146580   0.213   5.209   6.185
15446WAT     H246581   0.250   5.236   6.028
15447WAT      O46582   8.624   3.061   3.720
15447WAT     H146583   8.592   3.131   3.784
15447WAT     H246584   8.593   2.971   3.751
15448WAT      O46585   8.111   1.268   4.376
15448WAT     H146586   8.158   1.229   4.456
15448WAT     H246587   8.179   1.301   4.311
15449WAT      O46588   0.238   4.602   6.691
15449WAT     H146589   0.180   4.537   6.739
15449WAT     H246590   0.313   4.630   6.752
15450WAT      O46591   5.915   1.391   9.561
15450WAT     H146592   6.004   1.429   9.537
15450WAT     H246593   5.921   1.291   9.566
15451WAT      O46594   0.334   5.463   9.729
15451WAT     H146595   0.275   5.387   9.758
15451WAT     H246596   0.360   5.517   9.809
15452WAT      O46597   2.517   7.028   7.140
15452WAT     H146598   2.427   7.040   7.183
15452WAT     H246599   2.516   6.946   7.083
15453WAT      O46600   5.483   4.075   2.428
15453WAT     H146601   5.419   4.142   2.391
15453WAT     H246602   5.564   4.070   2.370
15454WAT      O46603   5.596   8.716   0.617
15454WAT     H146604   5.643   8.801   0.639
15454WAT     H246605   5.663   8.643   0.602
15455WAT      O46606   0.048   0.362   2.851
15455WAT     H146607  -0.023   0.323   2.909
15455WAT     H246608   0.069   0.299   2.777
15456WAT      O46609   9.881   8.790   7.785
15456WAT     H146610   9.852   8.796   7.880
15456WAT     H246611   9.978   8.764   7.781
15457WAT      O46612   3.735   8.804   1.490
15457WAT     H146613   3.649   8.758   1.467
15457WAT     H246614   3.745   8.808   1.589
15458WAT      O46615   1.250   7.803   0.945
15458WAT     H146616   1.207   7.887   0.980
15458WAT     H246617   1.200   7.772   0.863
15459WAT      O46618   4.416   7.593   7.782
15459WAT     H146619   4.509   7.608   7.747
15459WAT     H246620   4.367   7.530   7.722
15460WAT      O46621   0.277   3.770   0.070
15460WAT     H146622   0.322   3.681   0.059
15460WAT     H246623   0.179   3.757   0.080
15461WAT      O46624   0.082   6.306   9.856
15461WAT     H146625  -0.004   6.347   9.885
15461WAT     H246626   0.066   6.246   9.778
15462WAT      O46627   5.152   6.975   2.702
15462WAT     H146628   5.114   6.898   2.652
15462WAT     H246629   5.144   6.959   2.800
15463WAT      O46630   3.912   6.385   8.725
15463WAT     H146631   3.887   6.377   8.629
15463WAT     H246632   3.848   6.331   8.780
15464WAT      O46633   8.392   8.796   6.434
15464WAT     H146634   8.424   8.881   6.475
15464WAT     H246635   8.457   8.723   6.454
15465WAT      O46636   4.579   1.223   6.806
15465WAT     H146637   4.569   1.315   6.769
15465WAT     H246638   4.516   1.161   6.759
15466WAT      O46639   7.665   3.124   8.060
15466WAT     H146640   7.586   3.063   8.059
15466WAT     H246641   7.637   3.216   8.034
15467WAT      O46642   8.985   5.768   4.120
15467WAT     H146643   8.906   5.824   4.143
15467WAT     H246644   9.029   5.804   4.037
15468WAT      O46645   3.159   4.364   7.785
15468WAT     H146646   3.099   4.360   7.865
15468WAT     H246647   3.233   4.430   7.802
15469WAT      O46648   9.589   5.917   8.540
15469WAT     H146649   9.517   5.927   8.608
15469WAT     H246650   9.622   5.822   8.540
15470WAT      O46651   7.184   9.041   0.220
15470WAT     H146652   7.129   9.043   0.304
15470WAT     H246653   7.147   9.106   0.154
15471WAT      O46654   4.229   2.497   0.440
15471WAT     H146655   4.177   2.556   0.501
15471WAT     H246656   4.237   2.541   0.350
15472WAT      O46657   6.582   0.127   4.262
15472WAT     H146658   6.563   0.159   4.355
15472WAT     H246659   6.604   0.205   4.204
15473WAT      O46660   6.663   3.554   0.899
15473WAT     H146661   6.638   3.502   0.981
15473WAT     H246662   6.622   3.511   0.818
15474WAT      O46663   8.961   9.150   6.781
15474WAT     H146664   9.024   9.155   6.703
15474WAT     H246665   8.887   9.086   6.761
15475WAT      O46666   3.633   4.383   9.819
15475WAT     H146667   3.680   4.321   9.757
15475WAT     H246668   3.646   4.478   9.790
15476WAT      O46669   2.774   7.145   6.626
15476WAT     H146670   2.739   7.056   6.656
15476WAT     H246671   2.736   7.217   6.684
15477WAT      O46672   4.416   7.878   8.716
15477WAT     H146673   4.387   7.812   8.647
15477WAT     H246674   4.474   7.948   8.673
15478WAT      O46675   4.390   0.830   1.465
15478WAT     H146676   4.353   0.737   1.472
15478WAT     H246677   4.371   0.880   1.550
15479WAT      O46678   5.461   8.923   3.144
15479WAT     H146679   5.378   8.913   3.090
15479WAT     H246680   5.438   8.956   3.235
15480WAT      O46681   6.775   9.407   4.519
15480WAT     H146682   6.675   9.416   4.518
15480WAT     H246683   6.805   9.363   4.434
15481WAT      O46684   8.686   5.151   0.220
15481WAT     H146685   8.614   5.135   0.153
15481WAT     H246686   8.675   5.242   0.260
15482WAT      O46687   4.276   7.513   8.560
15482WAT     H146688   4.214   7.469   8.495
15482WAT     H246689   4.304   7.602   8.523
15483WAT      O46690   7.410   0.736   6.692
15483WAT     H146691   7.310   0.747   6.697
15483WAT     H246692   7.454   0.820   6.722
15484WAT      O46693   7.187   2.903   5.754
15484WAT     H146694   7.166   2.986   5.702
15484WAT     H246695   7.201   2.827   5.690
15485WAT      O46696   2.748   2.478   8.296
15485WAT     H146697   2.783   2.495   8.204
15485WAT     H246698   2.732   2.380   8.308
15486WAT      O46699   5.175   6.784   5.377
15486WAT     H146700   5.243   6.720   5.411
15486WAT     H246701   5.124   6.824   5.453
15487WAT      O46702   0.896   9.129   3.888
15487WAT     H146703   0.948   9.064   3.834
15487WAT     H246704   0.822   9.167   3.833
15488WAT      O46705   3.577   1.539   3.735
15488WAT     H146706   3.632   1.504   3.811
15488WAT     H246707   3.561   1.466   3.669
15489WAT      O46708   3.470   5.898   5.347
15489WAT     H146709   3.497   5.843   5.426
15489WAT     H246710   3.500   5.852   5.263
15490WAT      O46711   8.247   4.106   3.562
15490WAT     H146712   8.327   4.069   3.609
15490WAT     H246713   8.204   4.176   3.619
15491WAT      O46714   5.357   6.158   9.831
15491WAT     H146715   5.452   6.186   9.822
15491WAT     H246716   5.299   6.239   9.842
15492WAT      O46717   5.941   4.095   3.805
15492WAT     H146718   5.884   4.137   3.734
15492WAT     H246719   5.963   4.001   3.779
15493WAT      O46720   4.938   1.645   5.330
15493WAT     H146721   4.890   1.573   5.280
15493WAT     H246722   4.956   1.614   5.424
15494WAT      O46723   6.977   9.816   8.477
15494WAT     H146724   6.901   9.833   8.413
15494WAT     H246725   6.942   9.821   8.571
15495WAT      O46726   0.735   4.774   0.403
15495WAT     H146727   0.762   4.716   0.479
15495WAT     H246728   0.638   4.800   0.414
15496WAT      O46729   1.076   0.818   2.739
15496WAT     H146730   1.038   0.899   2.695
15496WAT     H246731   1.174   0.814   2.723
15497WAT      O46732   7.315   8.534   2.522
15497WAT     H146733   7.308   8.527   2.622
15497WAT     H246734   7.224   8.520   2.482
15498WAT      O46735   5.909   0.884   3.990
15498WAT     H146736   5.881   0.975   4.019
15498WAT     H246737   6.001   0.864   4.024
15499WAT      O46738   4.006   1.565   2.437
15499WAT     H146739   4.032   1.652   2.395
15499WAT     H246740   4.086   1.505   2.441
15500WAT      O46741   5.269   2.622   0.543
15500WAT     H146742   5.209   2.668   0.610
15500WAT     H246743   5.276   2.678   0.461
15501WAT      O46744   8.081   8.672   9.727
15501WAT     H146745   7.987   8.641   9.711
15501WAT     H246746   8.087   8.770   9.712
15502WAT      O46747   5.051   5.761   5.270
15502WAT     H146748   5.013   5.684   5.321
15502WAT     H246749   5.041   5.845   5.324
15503WAT      O46750   2.101   0.626   2.718
15503WAT     H146751   2.057   0.542   2.751
15503WAT     H246752   2.112   0.689   2.795
15504WAT      O46753   6.577   4.539   1.715
15504WAT     H146754   6.542   4.464   1.658
15504WAT     H246755   6.662   4.510   1.759
15505WAT      O46756   0.831   7.129   6.898
15505WAT     H146757   0.923   7.135   6.859
15505WAT     H246758   0.820   7.041   6.944
15506WAT      O46759   8.841   4.206   7.069
15506WAT     H146760   8.741   4.211   7.075
15506WAT     H246761   8.867   4.140   6.998
15507WAT      O46762   7.594   8.305   4.529
15507WAT     H146763   7.553   8.259   4.607
15507WAT     H246764   7.566   8.401   4.528
15508WAT      O46765   7.490   1.175   2.884
15508WAT     H146766   7.390   1.174   2.890
15508WAT     H246767   7.525   1.083   2.896
15509WAT      O46768   2.532   7.269   6.725
15509WAT     H146769   2.560   7.244   6.818
15509WAT     H246770   2.476   7.196   6.686
15510WAT      O46771   2.539   8.639   2.039
15510WAT     H146772   2.634   8.623   2.012
15510WAT     H246773   2.533   8.643   2.139
15511WAT      O46774   2.417   9.248   2.469
15511WAT     H146775   2.330   9.294   2.449
15511WAT     H246776   2.476   9.251   2.388
15512WAT      O46777   3.649   5.837   0.492
15512WAT     H146778   3.564   5.838   0.441
15512WAT     H246779   3.629   5.827   0.590
15513WAT      O46780   0.188   6.279   9.398
15513WAT     H146781   0.204   6.285   9.300
15513WAT     H246782   0.155   6.367   9.432
15514WAT      O46783   1.688   7.074   4.232
15514WAT     H146784   1.608   7.129   4.208
15514WAT     H246785   1.762   7.093   4.168
15515WAT      O46786   7.387   3.055   8.736
15515WAT     H146787   7.343   2.978   8.782
15515WAT     H246788   7.351   3.141   8.772
15516WAT      O46789   7.254   9.520   1.816
15516WAT     H146790   7.244   9.457   1.893
15516WAT     H246791   7.290   9.471   1.737
15517WAT      O46792   2.669   1.078   6.753
15517WAT     H146793   2.596   1.026   6.798
15517WAT     H246794   2.742   1.096   6.819
15518WAT      O46795   5.471   7.297   4.150
15518WAT     H146796   5.537   7.327   4.219
15518WAT     H246797   5.408   7.371   4.129
15519WAT      O46798   0.329   4.851   7.535
15519WAT     H146799   0.298   4.785   7.467
15519WAT     H246800   0.408   4.813   7.584
15520WAT      O46801   4.893   3.672   6.499
15520WAT     H146802   4.890   3.577   6.468
15520WAT     H246803   4.820   3.689   6.565
15521WAT      O46804   2.690   6.096   5.866
15521WAT     H146805   2.608   6.050   5.901
15521WAT     H246806   2.662   6.175   5.811
15522WAT      O46807   9.659   6.202   8.972
15522WAT     H146808   9.711   6.228   9.053
15522WAT     H246809   9.712   6.139   8.916
15523WAT      O46810   3.198   6.792   6.378
15523WAT     H146811   3.236   6.881   6.402
15523WAT     H246812   3.271   6.723   6.380
15524WAT      O46813   0.145   8.909   6.217
15524WAT     H146814   0.097   8.962   6.287
15524WAT     H246815   0.106   8.817   6.212
15525WAT      O46816   6.028   1.593   3.713
15525WAT     H146817   5.948   1.614   3.656
15525WAT     H246818   6.111   1.608   3.661
15526WAT      O46819   6.218   5.463   6.300
15526WAT     H146820   6.316   5.453   6.321
15526WAT     H246821   6.166   5.393   6.349
15527WAT      O46822   3.392   8.577   5.013
15527WAT     H146823   3.482   8.537   5.034
15527WAT     H246824   3.386   8.668   5.056
15528WAT      O46825   0.079   7.568   9.841
15528WAT     H146826   0.092   7.594   9.937
15528WAT     H246827  -0.006   7.609   9.808
15529WAT      O46828   6.651   4.777   8.618
15529WAT     H146829   6.605   4.861   8.591
15529WAT     H246830   6.650   4.713   8.540
15530WAT      O46831   2.731   6.965   3.751
15530WAT     H146832   2.825   6.986   3.725
15530WAT     H246833   2.700   6.884   3.702
15531WAT      O46834   6.375   2.069   7.103
15531WAT     H146835   6.428   2.120   7.171
15531WAT     H246836   6.278   2.075   7.125
15532WAT      O46837   3.502   1.837   0.278
15532WAT     H146838   3.520   1.925   0.321
15532WAT     H246839   3.407   1.834   0.246
15533WAT      O46840   9.768   8.521   1.094
15533WAT     H146841   9.761   8.444   1.031
15533WAT     H246842   9.764   8.488   1.188
15534WAT      O46843   2.986   2.217   7.688
15534WAT     H146844   3.012   2.120   7.692
15534WAT     H246845   2.887   2.224   7.672
15535WAT      O46846   1.152   2.823   4.993
15535WAT     H146847   1.126   2.817   4.897
15535WAT     H246848   1.172   2.919   5.016
15536WAT      O46849   3.356   0.656   4.396
15536WAT     H146850   3.299   0.627   4.472
15536WAT     H246851   3.421   0.725   4.427
15537WAT      O46852   3.867   8.491   3.882
15537WAT     H146853   3.889   8.580   3.841
15537WAT     H246854   3.839   8.427   3.811
15538WAT      O46855   6.358   8.418   0.284
15538WAT     H146856   6.272   8.449   0.326
15538WAT     H246857   6.340   8.385   0.192
15539WAT      O46858   8.863   6.723   9.455
15539WAT     H146859   8.892   6.629   9.474
15539WAT     H246860   8.936   6.771   9.405
15540WAT      O46861   5.674   7.009   8.612
15540WAT     H146862   5.608   7.030   8.684
15540WAT     H246863   5.762   6.986   8.653
15541WAT      O46864   3.794   7.101   3.077
15541WAT     H146865   3.722   7.166   3.102
15541WAT     H246866   3.836   7.064   3.160
15542WAT      O46867   9.706   0.825   5.527
15542WAT     H146868   9.623   0.880   5.514
15542WAT     H246869   9.686   0.747   5.585
15543WAT      O46870   4.211   8.578   1.823
15543WAT     H146871   4.195   8.636   1.743
15543WAT     H246872   4.218   8.483   1.794
15544WAT      O46873   5.697   2.663   1.599
15544WAT     H146874   5.740   2.583   1.642
15544WAT     H246875   5.769   2.726   1.567
15545WAT      O46876   3.092   3.769   5.138
15545WAT     H146877   3.178   3.719   5.143
15545WAT     H246878   3.111   3.865   5.116
15546WAT      O46879   1.797   2.497   5.091
15546WAT     H146880   1.724   2.506   5.023
15546WAT     H246881   1.874   2.447   5.052
15547WAT      O46882   9.762   3.888   3.047
15547WAT     H146883   9.805   3.799   3.064
15547WAT     H246884   9.777   3.915   2.952
15548WAT      O46885   5.428   2.284   4.436
15548WAT     H146886   5.406   2.195   4.475
15548WAT     H246887   5.447   2.273   4.338
15549WAT      O46888   5.516   2.692   4.659
15549WAT     H146889   5.579   2.627   4.701
15549WAT     H246890   5.561   2.780   4.649
15550WAT      O46891   6.695   6.594   5.171
15550WAT     H146892   6.671   6.614   5.076
15550WAT     H246893   6.795   6.600   5.182
15551WAT      O46894   1.805   6.262   9.562
15551WAT     H146895   1.870   6.328   9.598
15551WAT     H246896   1.824   6.172   9.601
15552WAT      O46897   6.138   1.845   0.955
15552WAT     H146898   6.197   1.894   1.019
15552WAT     H246899   6.106   1.908   0.884
15553WAT      O46900   9.302   6.670   5.220
15553WAT     H146901   9.305   6.587   5.164
15553WAT     H246902   9.306   6.751   5.162
15554WAT      O46903   9.325   0.166   8.756
15554WAT     H146904   9.231   0.133   8.749
15554WAT     H246905   9.357   0.192   8.665
15555WAT      O46906   1.569   0.198   0.920
15555WAT     H146907   1.538   0.144   0.841
15555WAT     H246908   1.570   0.140   1.002
15556WAT      O46909   0.921   3.558   3.540
15556WAT     H146910   0.849   3.549   3.608
15556WAT     H246911   1.010   3.549   3.584
15557WAT      O46912   6.723   0.238   7.176
15557WAT     H146913   6.768   0.154   7.147
15557WAT     H246914   6.703   0.294   7.095
15558WAT      O46915   3.243   5.379   9.520
15558WAT     H146916   3.280   5.459   9.473
15558WAT     H246917   3.281   5.375   9.613
15559WAT      O46918   5.990   9.729   9.177
15559WAT     H146919   5.942   9.805   9.135
15559WAT     H246920   6.051   9.687   9.110
15560WAT      O46921   2.106   9.558   1.446
15560WAT     H146922   2.009   9.533   1.452
15560WAT     H246923   2.146   9.518   1.364
15561WAT      O46924   0.142   9.106   9.843
15561WAT     H146925   0.168   9.058   9.927
15561WAT     H246926   0.224   9.132   9.792
15562WAT      O46927   1.069   3.720   3.341
15562WAT     H146928   1.098   3.795   3.401
15562WAT     H246929   1.009   3.658   3.391
15563WAT      O46930   0.530   9.737   8.022
15563WAT     H146931   0.436   9.706   8.037
15563WAT     H246932   0.564   9.782   8.105
15564WAT      O46933   8.112   5.130   5.372
15564WAT     H146934   8.124   5.227   5.394
15564WAT     H246935   8.090   5.079   5.455
15565WAT      O46936   1.433   2.071   8.923
15565WAT     H146937   1.527   2.058   8.891
15565WAT     H246938   1.427   2.155   8.977
15566WAT      O46939   5.824   0.724   8.289
15566WAT     H146940   5.761   0.799   8.309
15566WAT     H246941   5.897   0.722   8.358
15567WAT      O46942   0.270   1.691   7.512
15567WAT     H146943   0.260   1.705   7.610
15567WAT     H246944   0.204   1.748   7.463
15568WAT      O46945   7.177   8.527   3.486
15568WAT     H146946   7.134   8.601   3.434
15568WAT     H246947   7.117   8.501   3.562
15569WAT      O46948   2.286   2.088   3.202
15569WAT     H146949   2.234   2.101   3.286
15569WAT     H246950   2.288   1.991   3.178
15570WAT      O46951   2.854   2.179   4.433
15570WAT     H146952   2.906   2.168   4.348
15570WAT     H246953   2.757   2.159   4.415
15571WAT      O46954   2.486   3.185   1.344
15571WAT     H146955   2.540   3.101   1.347
15571WAT     H246956   2.545   3.262   1.319
15572WAT      O46957   3.391   9.235   2.816
15572WAT     H146958   3.441   9.168   2.761
15572WAT     H246959   3.341   9.189   2.889
15573WAT      O46960   9.129   3.161   4.916
15573WAT     H146961   9.055   3.132   4.977
15573WAT     H246962   9.143   3.259   4.926
15574WAT      O46963   2.574   3.225   6.171
15574WAT     H146964   2.618   3.309   6.139
15574WAT     H246965   2.530   3.242   6.259
15575WAT      O46966   5.398   8.074   4.220
15575WAT     H146967   5.452   8.158   4.212
15575WAT     H246968   5.301   8.097   4.228
15576WAT      O46969   0.988   5.629   0.435
15576WAT     H146970   0.922   5.704   0.432
15576WAT     H246971   1.011   5.602   0.341
15577WAT      O46972   7.162   5.910   7.860
15577WAT     H146973   7.196   5.917   7.954
15577WAT     H246974   7.165   5.999   7.817
15578WAT      O46975   0.325   8.145   9.540
15578WAT     H146976   0.234   8.123   9.575
15578WAT     H246977   0.393   8.084   9.581
15579WAT      O46978   2.631   1.193   5.962
15579WAT     H146979   2.722   1.169   5.930
15579WAT     H246980   2.567   1.120   5.939
15580WAT      O46981   4.100   6.851   5.313
15580WAT     H146982   4.134   6.757   5.320
15580WAT     H246983   4.005   6.850   5.284
15581WAT      O46984   8.470   7.228   4.956
15581WAT     H146985   8.566   7.253   4.967
15581WAT     H246986   8.438   7.259   4.866
15582WAT      O46987   6.184   7.372   4.778
15582WAT     H146988   6.200   7.368   4.680
15582WAT     H246989   6.199   7.282   4.818
15583WAT      O46990   3.133   5.396   1.168
15583WAT     H146991   3.179   5.307   1.173
15583WAT     H246992   3.083   5.412   1.253
15584WAT      O46993   3.996   6.333   3.275
15584WAT     H146994   3.931   6.259   3.265
15584WAT     H246995   4.065   6.308   3.344
15585WAT      O46996   3.759   9.826   5.044
15585WAT     H146997   3.725   9.739   5.081
15585WAT     H246998   3.692   9.898   5.062
15586WAT      O46999   3.573   8.533   3.303
15586WAT     H147000   3.574   8.529   3.402
15586WAT     H247001   3.589   8.441   3.265
15587WAT      O47002   3.472   6.982   1.499
15587WAT     H147003   3.551   6.956   1.443
15587WAT     H247004   3.402   6.911   1.494
15588WAT      O47005   4.723   5.742   6.083
15588WAT     H147006   4.725   5.676   6.008
15588WAT     H247007   4.686   5.697   6.165
15589WAT      O47008   9.776   1.268   3.444
15589WAT     H147009   9.873   1.277   3.419
15589WAT     H247010   9.735   1.193   3.391
15590WAT      O47011   9.864   6.174   3.532
15590WAT     H147012   9.940   6.235   3.555
15590WAT     H247013   9.876   6.087   3.581
15591WAT      O47014   7.397   8.455   5.634
15591WAT     H147015   7.470   8.521   5.649
15591WAT     H247016   7.400   8.385   5.705
15592WAT      O47017   1.120   8.666   4.573
15592WAT     H147018   1.201   8.609   4.580
15592WAT     H247019   1.040   8.608   4.557
15593WAT      O47020   0.223   8.591   7.000
15593WAT     H147021   0.145   8.618   7.057
15593WAT     H247022   0.230   8.491   6.999
15594WAT      O47023   0.955   8.032   1.927
15594WAT     H147024   1.018   7.987   1.992
15594WAT     H247025   0.883   8.078   1.978
15595WAT      O47026   1.384   4.204   8.060
15595WAT     H147027   1.459   4.140   8.074
15595WAT     H247028   1.298   4.161   8.088
15596WAT      O47029   1.928   5.223   8.811
15596WAT     H147030   1.858   5.177   8.757
15596WAT     H247031   1.894   5.237   8.904
15597WAT      O47032   7.056   7.392   8.301
15597WAT     H147033   7.125   7.348   8.243
15597WAT     H247034   7.066   7.359   8.395
15598WAT      O47035   5.829   7.584   3.064
15598WAT     H147036   5.870   7.592   2.973
15598WAT     H247037   5.744   7.531   3.057
15599WAT      O47038   4.047   7.927   7.624
15599WAT     H147039   4.097   8.009   7.651
15599WAT     H247040   3.974   7.908   7.690
15600WAT      O47041   5.522   6.010   5.178
15600WAT     H147042   5.497   5.971   5.090
15600WAT     H247043   5.479   5.956   5.251
15601WAT      O47044   6.141   7.607   9.818
15601WAT     H147045   6.195   7.691   9.822
15601WAT     H247046   6.201   7.528   9.829
15602WAT      O47047   7.799   9.699   4.959
15602WAT     H147048   7.806   9.764   4.884
15602WAT     H247049   7.886   9.696   5.009
15603WAT      O47050   2.255   0.078   1.286
15603WAT     H147051   2.312   0.152   1.252
15603WAT     H247052   2.226   0.098   1.380
15604WAT      O47053   0.067   3.109   1.716
15604WAT     H147054   0.065   3.019   1.758
15604WAT     H247055   0.024   3.105   1.625
15605WAT      O47056   9.073   6.545   0.385
15605WAT     H147057   9.068   6.577   0.290
15605WAT     H247058   9.085   6.624   0.446
15606WAT      O47059   0.782   6.601   1.567
15606WAT     H147060   0.704   6.643   1.521
15606WAT     H247061   0.754   6.566   1.656
15607WAT      O47062   4.852   2.206   7.880
15607WAT     H147063   4.816   2.223   7.788
15607WAT     H247064   4.952   2.204   7.876
15608WAT      O47065   7.982   1.656   4.758
15608WAT     H147066   8.015   1.714   4.833
15608WAT     H247067   8.047   1.659   4.683
15609WAT      O47068   7.517   8.821   2.217
15609WAT     H147069   7.611   8.855   2.216
15609WAT     H247070   7.458   8.888   2.264
15610WAT      O47071   3.391   2.570   7.291
15610WAT     H147072   3.440   2.507   7.350
15610WAT     H247073   3.423   2.560   7.197
15611WAT      O47074   8.353   9.656   5.822
15611WAT     H147075   8.409   9.581   5.857
15611WAT     H247076   8.337   9.724   5.894
15612WAT      O47077   6.797   7.701   8.629
15612WAT     H147078   6.850   7.735   8.707
15612WAT     H247079   6.761   7.610   8.650
15613WAT      O47080   2.969   7.234   1.957
15613WAT     H147081   2.920   7.149   1.934
15613WAT     H247082   3.027   7.261   1.880
15614WAT      O47083   3.648   8.078   4.881
15614WAT     H147084   3.748   8.072   4.877
15614WAT     H247085   3.621   8.162   4.928
15615WAT      O47086   5.580   6.006   2.071
15615WAT     H147087   5.623   5.932   2.123
15615WAT     H247088   5.649   6.054   2.017
15616WAT      O47089   4.395   3.902   7.045
15616WAT     H147090   4.316   3.956   7.073
15616WAT     H247091   4.363   3.815   7.005
15617WAT      O47092   9.016   1.163   8.404
15617WAT     H147093   8.954   1.117   8.467
15617WAT     H247094   8.964   1.203   8.328
15618WAT      O47095   6.084   6.631   9.557
15618WAT     H147096   6.135   6.621   9.471
15618WAT     H247097   5.986   6.622   9.539
15619WAT      O47098   1.105   6.156   0.967
15619WAT     H147099   1.129   6.149   0.870
15619WAT     H247100   1.179   6.115   1.021
15620WAT      O47101   3.102   6.039   4.726
15620WAT     H147102   3.122   6.133   4.698
15620WAT     H247103   3.187   5.986   4.726
15621WAT      O47104   6.947   4.496   1.278
15621WAT     H147105   6.969   4.593   1.291
15621WAT     H247106   7.030   4.446   1.255
15622WAT      O47107   4.007   5.478   6.036
15622WAT     H147108   4.004   5.490   5.937
15622WAT     H247109   3.965   5.391   6.060
15623WAT      O47110   7.374   7.000   3.582
15623WAT     H147111   7.466   6.961   3.588
15623WAT     H247112   7.355   7.026   3.488
15624WAT      O47113   5.595   8.250   6.745
15624WAT     H147114   5.630   8.265   6.653
15624WAT     H247115   5.643   8.310   6.809
15625WAT      O47116   2.934   5.559   7.346
15625WAT     H147117   2.998   5.490   7.381
15625WAT     H247118   2.959   5.583   7.252
15626WAT      O47119   5.094   6.797   6.480
15626WAT     H147120   5.075   6.802   6.382
15626WAT     H247121   5.022   6.745   6.525
15627WAT      O47122   7.651   0.705   8.911
15627WAT     H147123   7.575   0.642   8.928
15627WAT     H247124   7.653   0.728   8.814
15628WAT      O47125   5.904   8.838   4.452
15628WAT     H147126   5.883   8.749   4.411
15628WAT     H247127   5.825   8.869   4.505
15629WAT      O47128   2.723   0.106   7.857
15629WAT     H147129   2.744   0.202   7.878
15629WAT     H247130   2.798   0.049   7.889
15630WAT      O47131   8.072   9.417   0.694
15630WAT     H147132   8.004   9.389   0.761
15630WAT     H247133   8.127   9.339   0.666
15631WAT      O47134   8.124   7.469   4.326
15631WAT     H147135   8.121   7.382   4.276
15631WAT     H247136   8.051   7.528   4.294
15632WAT      O47137   0.713   7.648   2.796
15632WAT     H147138   0.767   7.630   2.878
15632WAT     H247139   0.650   7.572   2.780
15633WAT      O47140   2.266   3.586   1.977
15633WAT     H147141   2.226   3.644   2.049
15633WAT     H247142   2.291   3.644   1.899
15634WAT      O47143   7.805   5.920   2.562
15634WAT     H147144   7.878   5.907   2.494
15634WAT     H247145   7.721   5.949   2.516
15635WAT      O47146   7.492   6.616   7.464
15635WAT     H147147   7.578   6.664   7.482
15635WAT     H247148   7.418   6.660   7.515
15636WAT      O47149   7.679   9.658   7.670
15636WAT     H147150   7.756   9.629   7.727
15636WAT     H247151   7.710   9.667   7.575
15637WAT      O47152   0.665   9.628   2.940
15637WAT     H147153   0.602   9.619   2.863
15637WAT     H247154   0.661   9.722   2.975
15638WAT      O47155   7.736   6.941   6.142
15638WAT     H147156   7.810   6.916   6.203
15638WAT     H247157   7.657   6.970   6.196
15639WAT      O47158   6.101   8.912   1.884
15639WAT     H147159   6.181   8.939   1.830
15639WAT     H247160   6.098   8.812   1.892
15640WAT      O47161   6.105   1.684   6.314
15640WAT     H147162   6.137   1.656   6.223
15640WAT     H247163   6.151   1.628   6.384
15641WAT      O47164   1.672   5.432   5.662
15641WAT     H147165   1.603   5.413   5.592
15641WAT     H247166   1.641   5.395   5.750
15642WAT      O47167   4.801   6.361   9.842
15642WAT     H147168   4.880   6.301   9.843
15642WAT     H247169   4.718   6.309   9.864
15643WAT      O47170   0.417   5.856   9.134
15643WAT     H147171   0.366   5.806   9.064
15643WAT     H247172   0.425   5.952   9.107
15644WAT      O47173   1.477   6.595   2.556
15644WAT     H147174   1.565   6.569   2.595
15644WAT     H247175   1.481   6.690   2.523
15645WAT      O47176   2.984   5.485   1.389
15645WAT     H147177   2.979   5.570   1.336
15645WAT     H247178   2.892   5.458   1.418
15646WAT      O47179   3.383   3.967   9.896
15646WAT     H147180   3.387   4.067   9.890
15646WAT     H247181   3.429   3.926   9.817
15647WAT      O47182   7.232   7.242   8.138
15647WAT     H147183   7.249   7.145   8.152
15647WAT     H247184   7.300   7.279   8.075
15648WAT      O47185   8.263   9.509   9.612
15648WAT     H147186   8.359   9.491   9.589
15648WAT     H247187   8.259   9.559   9.699
15649WAT      O47188   8.857   7.331   6.114
15649WAT     H147189   8.803   7.309   6.196
15649WAT     H247190   8.850   7.256   6.049
15650WAT      O47191   5.651   2.940   1.153
15650WAT     H147192   5.667   3.017   1.215
15650WAT     H247193   5.608   2.866   1.204
15651WAT      O47194   7.785   3.314   7.542
15651WAT     H147195   7.832   3.266   7.615
15651WAT     H247196   7.852   3.369   7.490
15652WAT      O47197   1.487   3.056   0.510
15652WAT     H147198   1.418   3.032   0.578
15652WAT     H247199   1.445   3.061   0.419
15653WAT      O47200   0.575   5.621   5.439
15653WAT     H147201   0.672   5.643   5.442
15653WAT     H247202   0.532   5.670   5.362
15654WAT      O47203   3.274   4.378   0.891
15654WAT     H147204   3.217   4.347   0.815
15654WAT     H247205   3.358   4.418   0.855
15655WAT      O47206   1.826   9.778   2.075
15655WAT     H147207   1.854   9.860   2.125
15655WAT     H247208   1.894   9.757   2.005
15656WAT      O47209   4.912   3.042   8.752
15656WAT     H147210   4.977   3.068   8.680
15656WAT     H247211   4.942   2.957   8.795
15657WAT      O47212   1.021   6.755   6.176
15657WAT     H147213   0.949   6.741   6.109
15657WAT     H247214   1.082   6.827   6.144
15658WAT      O47215   4.705   2.715   4.565
15658WAT     H147216   4.634   2.645   4.574
15658WAT     H247217   4.701   2.755   4.474
15659WAT      O47218   0.825   1.477   6.485
15659WAT     H147219   0.839   1.505   6.390
15659WAT     H247220   0.903   1.505   6.540
15660WAT      O47221   8.566   3.863   2.490
15660WAT     H147222   8.507   3.942   2.509
15660WAT     H247223   8.517   3.797   2.434
15661WAT      O47224   7.519   2.494   8.079
15661WAT     H147225   7.452   2.566   8.098
15661WAT     H247226   7.473   2.411   8.048
15662WAT      O47227   8.889   0.727   9.600
15662WAT     H147228   8.887   0.742   9.699
15662WAT     H247229   8.851   0.637   9.579
15663WAT      O47230   0.909   5.502   9.608
15663WAT     H147231   0.904   5.402   9.602
15663WAT     H247232   0.932   5.539   9.518
15664WAT      O47233   9.398   4.434   6.467
15664WAT     H147234   9.382   4.483   6.381
15664WAT     H247235   9.496   4.425   6.483
15665WAT      O47236   5.570   7.989   1.855
15665WAT     H147237   5.477   7.963   1.881
15665WAT     H247238   5.631   7.976   1.933
15666WAT      O47239   1.953   4.388   2.196
15666WAT     H147240   1.978   4.375   2.293
15666WAT     H247241   2.027   4.353   2.138
15667WAT      O47242   7.155   4.091   8.772
15667WAT     H147243   7.171   4.072   8.869
15667WAT     H247244   7.056   4.093   8.754
15668WAT      O47245   0.551   3.559   6.376
15668WAT     H147246   0.532   3.611   6.293
15668WAT     H247247   0.584   3.621   6.447
15669WAT      O47248   9.377   1.102   5.691
15669WAT     H147249   9.417   1.152   5.768
15669WAT     H247250   9.450   1.054   5.641
15670WAT      O47251   7.950   1.319   2.313
15670WAT     H147252   7.887   1.396   2.322
15670WAT     H247253   7.938   1.257   2.391
15671WAT      O47254   5.818   4.840   7.566
15671WAT     H147255   5.848   4.923   7.612
15671WAT     H247256   5.895   4.777   7.558
15672WAT      O47257   7.891   1.120   0.943
15672WAT     H147258   7.980   1.106   0.899
15672WAT     H247259   7.863   1.215   0.932
15673WAT      O47260   0.904   0.201   6.496
15673WAT     H147261   0.809   0.184   6.471
15673WAT     H247262   0.911   0.290   6.542
15674WAT      O47263   8.610   3.253   2.635
15674WAT     H147264   8.547   3.329   2.618
15674WAT     H247265   8.679   3.282   2.701
15675WAT      O47266   1.341   5.516   2.633
15675WAT     H147267   1.398   5.595   2.657
15675WAT     H247268   1.246   5.536   2.658
15676WAT      O47269   8.440   0.745   9.794
15676WAT     H147270   8.370   0.809   9.826
15676WAT     H247271   8.397   0.656   9.775
15677WAT      O47272   0.512   7.924   3.777
15677WAT     H147273   0.417   7.892   3.778
15677WAT     H247274   0.528   7.979   3.695
15678WAT      O47275   8.832   2.114   2.660
15678WAT     H147276   8.766   2.111   2.736
15678WAT     H247277   8.795   2.172   2.587
15679WAT      O47278   9.272   4.516   7.187
15679WAT     H147279   9.362   4.484   7.159
15679WAT     H247280   9.230   4.566   7.111
15680WAT      O47281   7.405   9.692   4.980
15680WAT     H147282   7.327   9.646   5.023
15680WAT     H247283   7.382   9.715   4.886
15681WAT      O47284   6.650   6.108   8.443
15681WAT     H147285   6.573   6.113   8.380
15681WAT     H247286   6.731   6.076   8.395
15682WAT      O47287   8.787   8.464   1.556
15682WAT     H147288   8.744   8.377   1.578
15682WAT     H247289   8.756   8.495   1.466
15683WAT      O47290   6.364   2.477   5.945
15683WAT     H147291   6.281   2.485   5.891
15683WAT     H247292   6.387   2.381   5.958
15684WAT      O47293   5.476   3.450   8.294
15684WAT     H147294   5.575   3.465   8.294
15684WAT     H247295   5.456   3.358   8.328
15685WAT      O47296   6.403   1.662   1.267
15685WAT     H147297   6.416   1.652   1.366
15685WAT     H247298   6.344   1.588   1.234
15686WAT      O47299   7.621   0.213   3.389
15686WAT     H147300   7.679   0.292   3.372
15686WAT     H247301   7.597   0.209   3.486
15687WAT      O47302   6.453   4.296   7.632
15687WAT     H147303   6.426   4.231   7.703
15687WAT     H247304   6.395   4.378   7.638
15688WAT      O47305   0.388   2.151   4.334
15688WAT     H147306   0.402   2.229   4.396
15688WAT     H247307   0.404   2.180   4.240
15689WAT      O47308   8.566   0.725   3.427
15689WAT     H147309   8.492   0.693   3.486
15689WAT     H247310   8.535   0.805   3.376
15690WAT      O47311   1.909   0.695   9.004
15690WAT     H147312   1.891   0.792   9.020
15690WAT     H247313   1.961   0.659   9.081
15691WAT      O47314   1.729   8.408   3.723
15691WAT     H147315   1.798   8.395   3.794
15691WAT     H247316   1.769   8.460   3.647
15692WAT      O47317   3.702   6.706   0.951
15692WAT     H147318   3.658   6.756   1.025
15692WAT     H247319   3.728   6.615   0.983
15693WAT      O47320   6.716   3.884   6.873
15693WAT     H147321   6.699   3.801   6.819
15693WAT     H247322   6.812   3.909   6.866
15694WAT      O47323   1.879   1.802   2.916
15694WAT     H147324   1.783   1.802   2.942
15694WAT     H247325   1.934   1.840   2.990
15695WAT      O47326   9.096   4.899   5.438
15695WAT     H147327   9.140   4.821   5.483
15695WAT     H247328   8.998   4.898   5.460
15696WAT      O47329   2.019   1.963   8.359
15696WAT     H147330   2.025   1.869   8.392
15696WAT     H247331   2.093   2.017   8.398
15697WAT      O47332   9.622   1.339   3.886
15697WAT     H147333   9.588   1.255   3.930
15697WAT     H247334   9.548   1.382   3.834
15698WAT      O47335   4.351   9.090   7.982
15698WAT     H147336   4.272   9.146   8.007
15698WAT     H247337   4.432   9.121   8.032
15699WAT      O47338   5.013   0.964   1.571
15699WAT     H147339   5.041   1.048   1.617
15699WAT     H247340   4.932   0.983   1.515
15700WAT      O47341   0.233   3.988   3.667
15700WAT     H147342   0.263   3.893   3.660
15700WAT     H247343   0.272   4.029   3.749
15701WAT      O47344   7.291   8.773   3.531
15701WAT     H147345   7.290   8.678   3.500
15701WAT     H247346   7.245   8.830   3.464
15702WAT      O47347   3.741   7.404   3.666
15702WAT     H147348   3.644   7.427   3.657
15702WAT     H247349   3.784   7.467   3.731
15703WAT      O47350   8.695   1.432   0.701
15703WAT     H147351   8.786   1.402   0.730
15703WAT     H247352   8.688   1.425   0.602
15704WAT      O47353   8.684   5.882   2.707
15704WAT     H147354   8.739   5.817   2.761
15704WAT     H247355   8.724   5.892   2.616
15705WAT      O47356   8.066   1.077   7.897
15705WAT     H147357   8.115   1.021   7.830
15705WAT     H247358   8.027   1.018   7.967
15706WAT      O47359   7.805   2.204   2.510
15706WAT     H147360   7.825   2.114   2.470
15706WAT     H247361   7.885   2.263   2.499
15707WAT      O47362   7.211   3.370   1.875
15707WAT     H147363   7.162   3.318   1.805
15707WAT     H247364   7.175   3.464   1.876
15708WAT      O47365   0.779   1.294   2.313
15708WAT     H147366   0.723   1.325   2.390
15708WAT     H247367   0.861   1.248   2.348
15709WAT      O47368   9.865   9.784   1.621
15709WAT     H147369   9.928   9.710   1.645
15709WAT     H247370   9.902   9.871   1.656
15710WAT      O47371   0.519   8.688   2.331
15710WAT     H147372   0.583   8.760   2.358
15710WAT     H247373   0.450   8.727   2.269
15711WAT      O47374   7.016   7.717   1.800
15711WAT     H147375   6.996   7.717   1.898
15711WAT     H247376   7.100   7.769   1.783
15712WAT      O47377   7.737   4.651   1.469
15712WAT     H147378   7.706   4.562   1.434
15712WAT     H247379   7.822   4.638   1.520
15713WAT      O47380   2.939   0.879   7.014
15713WAT     H147381   2.969   0.784   7.005
15713WAT     H247382   3.005   0.929   7.070
15714WAT      O47383   2.614   0.985   9.066
15714WAT     H147384   2.601   0.920   8.991
15714WAT     H247385   2.696   0.961   9.117
15715WAT      O47386   2.453   2.965   9.606
15715WAT     H147387   2.391   2.952   9.683
15715WAT     H247388   2.547   2.947   9.636
15716WAT      O47389   7.441   8.913   8.276
15716WAT     H147390   7.484   8.906   8.366
15716WAT     H247391   7.369   8.983   8.278
15717WAT      O47392   1.622   9.257   4.944
15717WAT     H147393   1.538   9.310   4.954
15717WAT     H247394   1.701   9.315   4.962
15718WAT      O47395   4.578   3.225   6.841
15718WAT     H147396   4.567   3.307   6.897
15718WAT     H247397   4.673   3.196   6.843
15719WAT      O47398   3.838   0.470   4.000
15719WAT     H147399   3.784   0.549   3.971
15719WAT     H247400   3.828   0.457   4.099
15720WAT      O47401   0.415   1.417   4.305
15720WAT     H147402   0.476   1.463   4.240
15720WAT     H247403   0.400   1.322   4.276
15721WAT      O47404   0.080   8.959   4.029
15721WAT     H147405   0.113   8.966   3.935
15721WAT     H247406   0.124   8.882   4.075
15722WAT      O47407   6.446   1.011   8.500
15722WAT     H147408   6.446   1.081   8.429
15722WAT     H247409   6.374   1.033   8.567
15723WAT      O47410   4.772   2.295   7.646
15723WAT     H147411   4.765   2.390   7.615
15723WAT     H247412   4.708   2.238   7.594
15724WAT      O47413   4.607   2.630   3.817
15724WAT     H147414   4.664   2.610   3.896
15724WAT     H247415   4.651   2.597   3.734
15725WAT      O47416   6.345   2.443   2.417
15725WAT     H147417   6.330   2.355   2.373
15725WAT     H247418   6.335   2.433   2.516
15726WAT      O47419   8.407   5.327   8.734
15726WAT     H147420   8.436   5.244   8.686
15726WAT     H247421   8.335   5.304   8.799
15727WAT      O47422   5.321   6.531   2.734
15727WAT     H147423   5.311   6.443   2.780
15727WAT     H247424   5.257   6.597   2.773
15728WAT      O47425   9.831   0.079   5.636
15728WAT     H147426   9.792   0.164   5.601
15728WAT     H247427   9.764   0.005   5.626
15729WAT      O47428   8.460   5.100   8.594
15729WAT     H147429   8.455   5.168   8.520
15729WAT     H247430   8.459   5.008   8.555
15730WAT      O47431   7.850   1.872   6.684
15730WAT     H147432   7.938   1.892   6.642
15730WAT     H247433   7.862   1.859   6.782
15731WAT      O47434   5.522   5.689   4.795
15731WAT     H147435   5.465   5.617   4.836
15731WAT     H247436   5.616   5.655   4.786
15732WAT      O47437   3.410   6.861   3.697
15732WAT     H147438   3.499   6.898   3.723
15732WAT     H247439   3.353   6.851   3.779
15733WAT      O47440   9.072   3.349   8.621
15733WAT     H147441   9.054   3.396   8.708
15733WAT     H247442   9.146   3.395   8.573
15734WAT      O47443   4.469   4.261   3.128
15734WAT     H147444   4.523   4.178   3.114
15734WAT     H247445   4.445   4.270   3.224
15735WAT      O47446   2.463   8.449   6.744
15735WAT     H147447   2.414   8.523   6.698
15735WAT     H247448   2.465   8.369   6.684
15736WAT      O47449   5.115   8.122   2.073
15736WAT     H147450   5.162   8.060   2.137
15736WAT     H247451   5.038   8.165   2.120
15737WAT      O47452   4.884   7.931   1.751
15737WAT     H147453   4.975   7.954   1.715
15737WAT     H247454   4.893   7.890   1.841
15738WAT      O47455   6.613   8.326   2.367
15738WAT     H147456   6.536   8.365   2.317
15738WAT     H247457   6.584   8.303   2.460
15739WAT      O47458   9.677   9.740   1.827
15739WAT     H147459   9.701   9.644   1.836
15739WAT     H247460   9.714   9.777   1.742
15740WAT      O47461   2.534   3.354   3.941
15740WAT     H147462   2.519   3.453   3.943
15740WAT     H247463   2.609   3.333   3.878
15741WAT      O47464   2.015   7.446   7.618
15741WAT     H147465   1.958   7.526   7.631
15741WAT     H247466   2.032   7.402   7.706
15742WAT      O47467   4.239   5.108   7.429
15742WAT     H147468   4.307   5.099   7.502
15742WAT     H247469   4.195   5.197   7.436
15743WAT      O47470   5.621   6.683   0.737
15743WAT     H147471   5.549   6.636   0.686
15743WAT     H247472   5.695   6.708   0.674
15744WAT      O47473   1.885   2.313   6.033
15744WAT     H147474   1.803   2.257   6.028
15744WAT     H247475   1.895   2.365   5.948
15745WAT      O47476   5.284   5.168   1.089
15745WAT     H147477   5.310   5.230   1.163
15745WAT     H247478   5.289   5.217   1.001
15746WAT      O47479   5.722   3.715   8.589
15746WAT     H147480   5.656   3.710   8.514
15746WAT     H247481   5.682   3.765   8.666
15747WAT      O47482   6.671   0.117   9.870
15747WAT     H147483   6.732   0.130   9.792
15747WAT     H247484   6.704   0.040   9.925
15748WAT      O47485   5.085   6.753   2.542
15748WAT     H147486   5.012   6.690   2.569
15748WAT     H247487   5.168   6.700   2.523
15749WAT      O47488   4.883   1.293   9.388
15749WAT     H147489   4.955   1.253   9.331
15749WAT     H247490   4.915   1.380   9.427
15750WAT      O47491   4.762   2.647   1.831
15750WAT     H147492   4.821   2.638   1.911
15750WAT     H247493   4.759   2.743   1.802
15751WAT      O47494   7.330   5.153   7.173
15751WAT     H147495   7.249   5.143   7.115
15751WAT     H247496   7.317   5.101   7.257
15752WAT      O47497   6.250   0.334   3.236
15752WAT     H147498   6.175   0.276   3.269
15752WAT     H247499   6.268   0.313   3.140
15753WAT      O47500   1.865   3.590   6.123
15753WAT     H147501   1.809   3.507   6.121
15753WAT     H247502   1.830   3.655   6.055
15754WAT      O47503   8.333   0.498   6.011
15754WAT     H147504   8.381   0.512   6.097
15754WAT     H247505   8.249   0.446   6.028
15755WAT      O47506   1.174   3.548   1.360
15755WAT     H147507   1.214   3.637   1.381
15755WAT     H247508   1.187   3.486   1.437
15756WAT      O47509   0.641   3.247   9.146
15756WAT     H147510   0.624   3.312   9.220
15756WAT     H247511   0.556   3.231   9.096
15757WAT      O47512   5.617   6.493   5.863
15757WAT     H147513   5.606   6.576   5.807
15757WAT     H247514   5.679   6.430   5.818
15758WAT      O47515   0.320   7.853   6.179
15758WAT     H147516   0.281   7.944   6.169
15758WAT     H247517   0.315   7.825   6.275
15759WAT      O47518   1.559   4.790   0.921
15759WAT     H147519   1.522   4.881   0.936
15759WAT     H247520   1.486   4.728   0.893
15760WAT      O47521   3.342   9.394   4.864
15760WAT     H147522   3.406   9.409   4.939
15760WAT     H247523   3.392   9.379   4.779
15761WAT      O47524   0.673   2.176   4.301
15761WAT     H147525   0.682   2.140   4.395
15761WAT     H247526   0.629   2.265   4.304
15762WAT      O47527   0.596   9.283   1.325
15762WAT     H147528   0.690   9.258   1.348
15762WAT     H247529   0.589   9.296   1.226
15763WAT      O47530   2.618   9.101   0.013
15763WAT     H147531   2.546   9.089   0.082
15763WAT     H247532   2.577   9.127  -0.074
15764WAT      O47533   4.598   8.248   5.575
15764WAT     H147534   4.584   8.155   5.607
15764WAT     H247535   4.581   8.252   5.476
15765WAT      O47536   5.075   6.755   4.128
15765WAT     H147537   5.148   6.693   4.155
15765WAT     H247538   5.082   6.840   4.180
15766WAT      O47539   0.115   5.385   5.308
15766WAT     H147540   0.082   5.361   5.216
15766WAT     H247541   0.105   5.305   5.368
15767WAT      O47542   9.196   7.984   4.746
15767WAT     H147543   9.231   7.915   4.683
15767WAT     H247544   9.216   8.075   4.710
15768WAT      O47545   5.436   8.979   4.764
15768WAT     H147546   5.409   8.933   4.680
15768WAT     H247547   5.420   8.920   4.843
15769WAT      O47548   8.479   5.095   0.036
15769WAT     H147549   8.431   5.161  -0.022
15769WAT     H247550   8.421   5.072   0.115
15770WAT      O47551   3.208   7.294   6.395
15770WAT     H147552   3.269   7.218   6.375
15770WAT     H247553   3.113   7.266   6.381
15771WAT      O47554   1.285   0.313   7.969
15771WAT     H147555   1.317   0.225   8.004
15771WAT     H247556   1.360   0.357   7.918
15772WAT      O47557   7.704   4.112   9.232
15772WAT     H147558   7.782   4.175   9.232
15772WAT     H247559   7.619   4.164   9.228
15773WAT      O47560   4.048   7.584   9.022
15773WAT     H147561   3.961   7.567   8.974
15773WAT     H247562   4.120   7.530   8.979
15774WAT      O47563   8.633   8.132   7.673
15774WAT     H147564   8.601   8.054   7.726
15774WAT     H247565   8.576   8.211   7.692
15775WAT      O47566   8.417   6.590   6.313
15775WAT     H147567   8.445   6.656   6.383
15775WAT     H247568   8.472   6.507   6.322
15776WAT      O47569   7.852   4.484   7.004
15776WAT     H147570   7.861   4.398   6.954
15776WAT     H247571   7.788   4.472   7.080
15777WAT      O47572   0.677   1.215   8.219
15777WAT     H147573   0.722   1.126   8.232
15777WAT     H247574   0.720   1.283   8.278
15778WAT      O47575   5.946   1.865   1.302
15778WAT     H147576   5.937   1.960   1.330
15778WAT     H247577   6.027   1.855   1.244
15779WAT      O47578   4.276   8.969   9.889
15779WAT     H147579   4.327   8.973   9.803
15779WAT     H247580   4.255   8.873   9.910
15780WAT      O47581   2.387   8.740   9.436
15780WAT     H147582   2.347   8.649   9.430
15780WAT     H247583   2.385   8.771   9.531
15781WAT      O47584   9.167   0.434   2.474
15781WAT     H147585   9.239   0.504   2.473
15781WAT     H247586   9.078   0.478   2.457
15782WAT      O47587   3.621   0.211   9.399
15782WAT     H147588   3.534   0.164   9.386
15782WAT     H247589   3.694   0.159   9.355
15783WAT      O47590   6.461   1.322   9.248
15783WAT     H147591   6.365   1.325   9.221
15783WAT     H247592   6.519   1.342   9.169
15784WAT      O47593   1.975   4.461   3.209
15784WAT     H147594   1.894   4.424   3.254
15784WAT     H247595   1.979   4.428   3.115
15785WAT      O47596   2.893   1.964   0.775
15785WAT     H147597   2.808   1.946   0.825
15785WAT     H247598   2.945   2.035   0.821
15786WAT      O47599   1.063   2.628   0.027
15786WAT     H147600   1.090   2.532   0.022
15786WAT     H247601   1.066   2.668  -0.065
15787WAT      O47602   7.513   7.556   5.331
15787WAT     H147603   7.604   7.555   5.291
15787WAT     H247604   7.515   7.602   5.420
15788WAT      O47605   7.421   5.859   1.333
15788WAT     H147606   7.455   5.953   1.325
15788WAT     H247607   7.419   5.832   1.429
15789WAT      O47608   4.584   7.827   8.922
15789WAT     H147609   4.554   7.735   8.949
15789WAT     H247610   4.533   7.855   8.840
15790WAT      O47611   4.424   6.396   7.986
15790WAT     H147612   4.409   6.495   7.979
15790WAT     H247613   4.355   6.357   8.047
15791WAT      O47614   1.317   2.631   8.406
15791WAT     H147615   1.302   2.540   8.366
15791WAT     H247616   1.327   2.698   8.333
15792WAT      O47617   8.584   5.539   6.697
15792WAT     H147618   8.605   5.456   6.749
15792WAT     H247619   8.560   5.613   6.760
15793WAT      O47620   5.636   5.477   2.367
15793WAT     H147621   5.678   5.516   2.449
15793WAT     H247622   5.544   5.514   2.355
15794WAT      O47623   2.017   1.018   3.914
15794WAT     H147624   2.053   0.947   3.852
15794WAT     H247625   1.985   1.096   3.860
15795WAT      O47626   1.234   4.001   3.027
15795WAT     H147627   1.326   3.984   2.992
15795WAT     H247628   1.173   4.023   2.951
15796WAT      O47629   4.644   7.127   0.196
15796WAT     H147630   4.717   7.105   0.132
15796WAT     H247631   4.647   7.064   0.273
15797WAT      O47632   8.461   6.604   3.414
15797WAT     H147633   8.452   6.629   3.318
15797WAT     H247634   8.385   6.642   3.466
15798WAT      O47635   8.709   9.257   1.608
15798WAT     H147636   8.622   9.305   1.595
15798WAT     H247637   8.781   9.323   1.630
15799WAT      O47638   1.697   7.566   7.458
15799WAT     H147639   1.737   7.618   7.533
15799WAT     H247640   1.625   7.621   7.414
15800WAT      O47641   7.104   5.663   4.083
15800WAT     H147642   7.099   5.755   4.045
15800WAT     H247643   7.029   5.650   4.148
15801WAT      O47644   2.200   8.461   3.891
15801WAT     H147645   2.123   8.493   3.946
15801WAT     H247646   2.285   8.474   3.942
15802WAT      O47647   6.279   7.876   1.967
15802WAT     H147648   6.187   7.905   1.994
15802WAT     H247649   6.329   7.954   1.928
15803WAT      O47650   7.995   5.948   4.059
15803WAT     H147651   7.929   5.955   3.985
15803WAT     H247652   7.958   5.891   4.132
15804WAT      O47653   3.183   9.212   7.813
15804WAT     H147654   3.155   9.303   7.784
15804WAT     H247655   3.254   9.219   7.883
15805WAT      O47656   4.247   9.695   8.844
15805WAT     H147657   4.321   9.686   8.911
15805WAT     H247658   4.184   9.618   8.853
15806WAT      O47659   1.605   7.069   8.145
15806WAT     H147660   1.529   7.116   8.101
15806WAT     H247661   1.674   7.136   8.174
15807WAT      O47662   2.216   6.272   8.113
15807WAT     H147663   2.223   6.201   8.182
15807WAT     H247664   2.305   6.285   8.069
15808WAT      O47665   9.517   2.680   2.248
15808WAT     H147666   9.492   2.760   2.303
15808WAT     H247667   9.489   2.597   2.295
15809WAT      O47668   1.867   2.404   5.757
15809WAT     H147669   1.853   2.308   5.733
15809WAT     H247670   1.783   2.456   5.739
15810WAT      O47671   4.520   6.240   6.844
15810WAT     H147672   4.454   6.279   6.780
15810WAT     H247673   4.598   6.301   6.853
15811WAT      O47674   2.051   0.106   4.086
15811WAT     H147675   2.099   0.022   4.062
15811WAT     H247676   2.102   0.156   4.156
15812WAT      O47677   2.465   2.638   0.442
15812WAT     H147678   2.533   2.676   0.380
15812WAT     H247679   2.386   2.606   0.389
15813WAT      O47680   6.740   8.379   8.662
15813WAT     H147681   6.757   8.440   8.740
15813WAT     H247682   6.650   8.336   8.672
15814WAT      O47683   8.154   5.215   3.583
15814WAT     H147684   8.207   5.139   3.546
15814WAT     H247685   8.056   5.196   3.573
15815WAT      O47686   7.777   0.769   4.839
15815WAT     H147687   7.845   0.730   4.901
15815WAT     H247688   7.748   0.858   4.874
15816WAT      O47689   4.438   8.525   3.461
15816WAT     H147690   4.499   8.480   3.395
15816WAT     H247691   4.354   8.552   3.414
15817WAT      O47692   2.486   0.360   7.810
15817WAT     H147693   2.392   0.394   7.820
15817WAT     H247694   2.504   0.293   7.882
15818WAT      O47695   4.755   8.921   9.182
15818WAT     H147696   4.839   8.907   9.236
15818WAT     H247697   4.770   8.891   9.088
15819WAT      O47698   4.180   2.463   2.703
15819WAT     H147699   4.232   2.480   2.620
15819WAT     H247700   4.137   2.374   2.698
15820WAT      O47701   7.916   5.416   6.998
15820WAT     H147702   7.867   5.361   6.931
15820WAT     H247703   7.908   5.374   7.088
15821WAT      O47704   5.753   7.652   1.270
15821WAT     H147705   5.668   7.620   1.227
15821WAT     H247706   5.808   7.574   1.297
15822WAT      O47707   6.491   9.053   1.958
15822WAT     H147708   6.581   9.038   1.997
15822WAT     H247709   6.440   8.967   1.958
15823WAT      O47710   0.656   6.976   1.096
15823WAT     H147711   0.659   7.067   1.138
15823WAT     H247712   0.669   6.984   0.997
15824WAT      O47713   4.603   6.676   5.423
15824WAT     H147714   4.556   6.736   5.488
15824WAT     H247715   4.552   6.674   5.337
15825WAT      O47716   5.373   4.923   2.549
15825WAT     H147717   5.335   4.946   2.459
15825WAT     H247718   5.419   5.003   2.587
15826WAT      O47719   8.972   1.385   9.259
15826WAT     H147720   8.901   1.324   9.296
15826WAT     H247721   8.999   1.451   9.329
15827WAT      O47722   3.712   5.598   1.843
15827WAT     H147723   3.761   5.511   1.836
15827WAT     H247724   3.679   5.611   1.937
15828WAT      O47725   2.397   2.904   6.389
15828WAT     H147726   2.392   2.871   6.294
15828WAT     H247727   2.469   2.972   6.396
15829WAT      O47728   5.361   0.254   8.889
15829WAT     H147729   5.395   0.311   8.964
15829WAT     H247730   5.269   0.221   8.912
15830WAT      O47731   0.306   9.214   3.969
15830WAT     H147732   0.274   9.268   3.890
15830WAT     H247733   0.371   9.145   3.938
15831WAT      O47734   4.983   4.717   1.918
15831WAT     H147735   4.888   4.745   1.933
15831WAT     H247736   4.997   4.625   1.956
15832WAT      O47737   5.452   2.550   9.256
15832WAT     H147738   5.502   2.621   9.305
15832WAT     H247739   5.454   2.465   9.309
15833WAT      O47740   8.159   1.703   1.462
15833WAT     H147741   8.086   1.638   1.485
15833WAT     H247742   8.133   1.795   1.493
15834WAT      O47743   4.216   0.806   1.254
15834WAT     H147744   4.294   0.804   1.317
15834WAT     H247745   4.171   0.716   1.254
15835WAT      O47746   1.494   2.372   7.209
15835WAT     H147747   1.468   2.455   7.258
15835WAT     H247748   1.480   2.387   7.111
15836WAT      O47749   4.999   1.216   9.644
15836WAT     H147750   5.005   1.222   9.545
15836WAT     H247751   4.934   1.285   9.677
15837WAT      O47752   0.834   6.603   8.136
15837WAT     H147753   0.770   6.555   8.076
15837WAT     H247754   0.918   6.550   8.145
15838WAT      O47755   2.646   4.461   6.210
15838WAT     H147756   2.574   4.411   6.258
15838WAT     H247757   2.634   4.450   6.111
15839WAT      O47758   6.082   1.028   2.457
15839WAT     H147759   6.044   1.010   2.548
15839WAT     H247760   6.025   0.984   2.388
15840WAT      O47761   8.783   5.508   3.653
15840WAT     H147762   8.767   5.532   3.557
15840WAT     H247763   8.783   5.409   3.663
15841WAT      O47764   2.227   2.377   7.573
15841WAT     H147765   2.253   2.472   7.589
15841WAT     H247766   2.297   2.333   7.517
15842WAT      O47767   7.266   0.234   9.141
15842WAT     H147768   7.232   0.210   9.232
15842WAT     H247769   7.364   0.253   9.145
15843WAT      O47770   1.386   2.735   6.176
15843WAT     H147771   1.315   2.731   6.106
15843WAT     H247772   1.441   2.652   6.172
15844WAT      O47773   4.869   4.778   0.322
15844WAT     H147774   4.879   4.768   0.421
15844WAT     H247775   4.959   4.790   0.280
15845WAT      O47776   1.776   0.718   8.540
15845WAT     H147777   1.779   0.766   8.452
15845WAT     H247778   1.702   0.756   8.596
15846WAT      O47779   1.539   8.351   9.839
15846WAT     H147780   1.619   8.309   9.882
15846WAT     H247781   1.458   8.295   9.856
15847WAT      O47782   4.032   9.608   8.355
15847WAT     H147783   4.078   9.519   8.353
15847WAT     H247784   4.061   9.658   8.438
15848WAT      O47785   8.586   7.470   1.468
15848WAT     H147786   8.510   7.455   1.533
15848WAT     H247787   8.671   7.437   1.508
15849WAT      O47788   2.192   8.962   1.213
15849WAT     H147789   2.289   8.939   1.210
15849WAT     H247790   2.141   8.897   1.156
15850WAT      O47791   8.396   4.238   9.809
15850WAT     H147792   8.440   4.262   9.896
15850WAT     H247793   8.449   4.277   9.733
15851WAT      O47794   6.060   0.738   0.618
15851WAT     H147795   5.983   0.707   0.563
15851WAT     H247796   6.036   0.823   0.665
15852WAT      O47797   2.504   1.425   2.082
15852WAT     H147798   2.488   1.384   1.992
15852WAT     H247799   2.602   1.430   2.100
15853WAT      O47800   3.679   7.348   7.345
15853WAT     H147801   3.707   7.253   7.330
15853WAT     H247802   3.661   7.362   7.443
15854WAT      O47803   4.117   2.638   9.378
15854WAT     H147804   4.209   2.669   9.398
15854WAT     H247805   4.082   2.584   9.454
15855WAT      O47806   4.180   9.465   6.784
15855WAT     H147807   4.233   9.524   6.846
15855WAT     H247808   4.109   9.520   6.739
15856WAT      O47809   1.816   6.940   6.362
15856WAT     H147810   1.786   6.893   6.445
15856WAT     H247811   1.874   6.878   6.309
15857WAT      O47812   0.655   7.596   4.489
15857WAT     H147813   0.641   7.621   4.393
15857WAT     H247814   0.572   7.553   4.524
15858WAT      O47815   0.775   0.222   0.857
15858WAT     H147816   0.785   0.321   0.864
15858WAT     H247817   0.857   0.178   0.894
15859WAT      O47818   2.480   7.993   3.755
15859WAT     H147819   2.400   7.933   3.749
15859WAT     H247820   2.456   8.083   3.719
15860WAT      O47821   7.875   4.313   9.246
15860WAT     H147822   7.843   4.394   9.295
15860WAT     H247823   7.912   4.340   9.157
15861WAT      O47824   6.689   7.806   6.067
15861WAT     H147825   6.729   7.876   6.009
15861WAT     H247826   6.610   7.765   6.021
15862WAT      O47827   5.229   7.494   9.786
15862WAT     H147828   5.271   7.530   9.703
15862WAT     H247829   5.263   7.544   9.866
15863WAT      O47830   1.301   9.814   4.784
15863WAT     H147831   1.311   9.910   4.810
15863WAT     H247832   1.380   9.762   4.815
15864WAT      O47833   0.793   4.129   7.473
15864WAT     H147834   0.713   4.139   7.531
15864WAT     H247835   0.787   4.042   7.423
15865WAT      O47836   7.749   2.574   7.382
15865WAT     H147837   7.651   2.575   7.399
15865WAT     H247838   7.778   2.660   7.340
15866WAT      O47839   6.260   0.864   5.002
15866WAT     H147840   6.198   0.835   5.075
15866WAT     H247841   6.244   0.960   4.981
15867WAT      O47842   4.507   6.434   4.200
15867WAT     H147843   4.595   6.432   4.152
15867WAT     H247844   4.449   6.359   4.167
15868WAT      O47845   3.679   8.700   4.713
15868WAT     H147846   3.688   8.624   4.648
15868WAT     H247847   3.583   8.715   4.733
15869WAT      O47848   7.295   4.674   0.223
15869WAT     H147849   7.236   4.743   0.266
15869WAT     H247850   7.241   4.617   0.162
15870WAT      O47851   4.334   0.759   8.859
15870WAT     H147852   4.392   0.688   8.897
15870WAT     H247853   4.322   0.744   8.761
15871WAT      O47854   4.173   5.216   3.627
15871WAT     H147855   4.232   5.136   3.619
15871WAT     H247856   4.166   5.244   3.723
15872WAT      O47857   7.096   6.202   4.819
15872WAT     H147858   7.108   6.103   4.811
15872WAT     H247859   7.018   6.221   4.879
15873WAT      O47860   7.501   2.236   5.219
15873WAT     H147861   7.464   2.268   5.307
15873WAT     H247862   7.464   2.146   5.199
15874WAT      O47863   5.814   8.652   3.148
15874WAT     H147864   5.726   8.664   3.195
15874WAT     H247865   5.882   8.711   3.192
15875WAT      O47866   9.270   2.993   6.843
15875WAT     H147867   9.324   3.049   6.905
15875WAT     H247868   9.190   3.044   6.812
15876WAT      O47869   7.942   3.380   8.240
15876WAT     H147870   7.922   3.286   8.268
15876WAT     H247871   7.858   3.435   8.245
15877WAT      O47872   6.618   2.859   8.521
15877WAT     H147873   6.637   2.763   8.542
15877WAT     H247874   6.548   2.864   8.449
15878WAT      O47875   9.405   6.511   4.915
15878WAT     H147876   9.422   6.499   4.817
15878WAT     H247877   9.456   6.442   4.967
15879WAT      O47878   3.350   6.275   9.641
15879WAT     H147879   3.265   6.229   9.617
15879WAT     H247880   3.330   6.358   9.693
15880WAT      O47881   8.902   0.744   3.522
15880WAT     H147882   8.911   0.767   3.425
15880WAT     H247883   8.881   0.646   3.531
15881WAT      O47884   8.252   5.207   7.067
15881WAT     H147885   8.200   5.218   6.982
15881WAT     H247886   8.230   5.119   7.108
15882WAT      O47887   5.176   0.440   4.069
15882WAT     H147888   5.099   0.465   4.010
15882WAT     H247889   5.261   0.452   4.019
15883WAT      O47890   1.076   8.888   5.622
15883WAT     H147891   0.976   8.885   5.628
15883WAT     H247892   1.116   8.876   5.713
15884WAT      O47893   1.350   1.027   3.370
15884WAT     H147894   1.340   0.928   3.361
15884WAT     H247895   1.447   1.050   3.373
15885WAT      O47896   9.288   8.864   7.109
15885WAT     H147897   9.315   8.770   7.085
15885WAT     H247898   9.210   8.891   7.053
15886WAT      O47899   8.009   0.954   0.369
15886WAT     H147900   8.029   0.866   0.411
15886WAT     H247901   7.937   1.001   0.421
15887WAT      O47902   1.771   1.565   3.874
15887WAT     H147903   1.704   1.517   3.817
15887WAT     H247904   1.758   1.664   3.865
15888WAT      O47905   7.288   3.884   5.280
15888WAT     H147906   7.376   3.879   5.327
15888WAT     H247907   7.291   3.826   5.199
15889WAT      O47908   2.011   8.100   6.290
15889WAT     H147909   2.054   8.178   6.336
15889WAT     H247910   1.986   8.126   6.197
15890WAT      O47911   1.177   8.216   5.279
15890WAT     H147912   1.082   8.246   5.267
15890WAT     H247913   1.198   8.213   5.377
15891WAT      O47914   6.270   8.669   9.124
15891WAT     H147915   6.246   8.690   9.219
15891WAT     H247916   6.196   8.698   9.063
15892WAT      O47917   7.385   7.058   9.650
15892WAT     H147918   7.395   7.049   9.749
15892WAT     H247919   7.433   6.982   9.605
15893WAT      O47920   4.793   8.812   8.958
15893WAT     H147921   4.762   8.758   8.880
15893WAT     H247922   4.883   8.780   8.987
15894WAT      O47923   0.822   2.961   0.126
15894WAT     H147924   0.881   2.994   0.052
15894WAT     H247925   0.739   3.017   0.130
15895WAT      O47926   9.353   6.888   0.809
15895WAT     H147927   9.355   6.815   0.741
15895WAT     H247928   9.369   6.976   0.764
15896WAT      O47929   5.452   1.169   3.827
15896WAT     H147930   5.376   1.229   3.854
15896WAT     H247931   5.421   1.108   3.754
15897WAT      O47932   8.441   0.483   4.819
15897WAT     H147933   8.406   0.576   4.809
15897WAT     H247934   8.477   0.470   4.911
15898WAT      O47935   5.079   9.841   0.232
15898WAT     H147936   5.160   9.819   0.176
15898WAT     H247937   5.001   9.857   0.172
15899WAT      O47938   6.550   5.877   7.952
15899WAT     H147939   6.508   5.806   7.896
15899WAT     H247940   6.637   5.843   7.989
15900WAT      O47941   2.924   2.762   0.108
15900WAT     H147942   2.921   2.848   0.158
15900WAT     H247943   2.867   2.694   0.154
15901WAT      O47944   3.595   2.095   4.692
15901WAT     H147945   3.563   2.159   4.761
15901WAT     H247946   3.517   2.052   4.647
15902WAT      O47947   9.680   4.486   7.742
15902WAT     H147948   9.700   4.392   7.716
15902WAT     H247949   9.750   4.547   7.704
15903WAT      O47950   8.230   2.085   6.064
15903WAT     H147951   8.158   2.065   6.131
15903WAT     H247952   8.293   2.153   6.102
15904WAT      O47953   4.181   8.669   2.784
15904WAT     H147954   4.256   8.712   2.734
15904WAT     H247955   4.132   8.739   2.838
15905WAT      O47956   4.201   0.120   8.800
15905WAT     H147957   4.193   0.020   8.801
15905WAT     H247958   4.297   0.145   8.811
15906WAT      O47959   1.160   5.746   6.182
15906WAT     H147960   1.233   5.814   6.179
15906WAT     H247961   1.116   5.749   6.271
15907WAT      O47962   0.298   8.671   5.208
15907WAT     H147963   0.348   8.725   5.141
15907WAT     H247964   0.331   8.576   5.205
15908WAT      O47965   2.072   8.089   3.009
15908WAT     H147966   2.160   8.059   2.972
15908WAT     H247967   2.025   8.144   2.940
15909WAT      O47968   4.565   6.257   1.652
15909WAT     H147969   4.537   6.183   1.713
15909WAT     H247970   4.644   6.228   1.598
15910WAT      O47971   0.848   1.972   6.966
15910WAT     H147972   0.900   2.055   6.985
15910WAT     H247973   0.908   1.892   6.976
15911WAT      O47974   7.780   5.540   1.255
15911WAT     H147975   7.777   5.628   1.303
15911WAT     H247976   7.842   5.478   1.303
15912WAT      O47977   7.698   2.739   0.616
15912WAT     H147978   7.742   2.652   0.641
15912WAT     H247979   7.757   2.789   0.553
15913WAT      O47980   6.245   0.746   3.780
15913WAT     H147981   6.186   0.777   3.705
15913WAT     H247982   6.306   0.673   3.747
15914WAT      O47983   4.758   8.065   3.212
15914WAT     H147984   4.769   8.163   3.198
15914WAT     H247985   4.748   8.047   3.310
15915WAT      O47986   9.648   6.744   3.949
15915WAT     H147987   9.666   6.762   3.852
15915WAT     H247988   9.584   6.668   3.957
15916WAT      O47989   3.981   3.725   7.366
15916WAT     H147990   3.944   3.785   7.438
15916WAT     H247991   3.906   3.692   7.309
15917WAT      O47992   4.162   1.974   7.078
15917WAT     H147993   4.106   1.914   7.021
15917WAT     H247994   4.123   1.977   7.170
15918WAT      O47995   4.074   2.975   9.784
15918WAT     H147996   4.133   3.051   9.813
15918WAT     H247997   4.088   2.958   9.686
15919WAT      O47998   6.217   8.591   4.477
15919WAT     H147999   6.199   8.675   4.528
15919WAT     H248000   6.279   8.612   4.402
15920WAT      O48001   0.790   8.626   4.753
15920WAT     H148002   0.775   8.707   4.696
15920WAT     H248003   0.725   8.554   4.726
15921WAT      O48004   7.554   5.130   6.102
15921WAT     H148005   7.528   5.055   6.163
15921WAT     H248006   7.653   5.127   6.085
15922WAT      O48007   2.858   9.071   4.989
15922WAT     H148008   2.856   9.024   4.901
15922WAT     H248009   2.953   9.085   5.017
15923WAT      O48010   7.407   9.056   0.972
15923WAT     H148011   7.330   8.992   0.968
15923WAT     H248012   7.407   9.101   1.061
15924WAT      O48013   6.250   6.160   4.172
15924WAT     H148014   6.167   6.109   4.148
15924WAT     H248015   6.252   6.247   4.123
15925WAT      O48016   5.074   3.949   1.393
15925WAT     H148017   4.986   3.996   1.391
15925WAT     H248018   5.077   3.879   1.322
15926WAT      O48019   2.041   2.093   3.946
15926WAT     H148020   2.009   2.184   3.971
15926WAT     H248021   1.984   2.024   3.992
15927WAT      O48022   7.728   0.600   2.423
15927WAT     H148023   7.674   0.528   2.467
15927WAT     H248024   7.777   0.561   2.345
15928WAT      O48025   5.585   8.548   5.972
15928WAT     H148026   5.526   8.505   6.040
15928WAT     H248027   5.681   8.538   5.998
15929WAT      O48028   5.403   5.837   9.364
15929WAT     H148029   5.336   5.842   9.291
15929WAT     H248030   5.432   5.930   9.389
15930WAT      O48031   9.762   2.266   4.452
15930WAT     H148032   9.793   2.242   4.360
15930WAT     H248033   9.723   2.185   4.496
15931WAT      O48034   7.294   6.897   4.906
15931WAT     H148035   7.278   6.800   4.920
15931WAT     H248036   7.285   6.945   4.994
15932WAT      O48037   8.174   3.375   3.108
15932WAT     H148038   8.118   3.311   3.054
15932WAT     H248039   8.227   3.324   3.176
15933WAT      O48040   7.877   8.342   1.418
15933WAT     H148041   7.949   8.290   1.371
15933WAT     H248042   7.810   8.373   1.351
15934WAT      O48043   7.973   8.766   0.601
15934WAT     H148044   8.068   8.785   0.575
15934WAT     H248045   7.946   8.676   0.568
15935WAT      O48046   8.150   0.207   2.577
15935WAT     H148047   8.135   0.178   2.483
15935WAT     H248048   8.193   0.132   2.628
15936WAT      O48049   2.091   4.309   8.618
15936WAT     H148050   2.147   4.228   8.599
15936WAT     H248051   1.994   4.283   8.616
15937WAT      O48052   6.325   1.255   8.363
15937WAT     H148053   6.351   1.305   8.446
15937WAT     H248054   6.300   1.321   8.292
15938WAT      O48055   0.451   2.529   8.907
15938WAT     H148056   0.381   2.501   8.972
15938WAT     H248057   0.411   2.539   8.816
15939WAT      O48058   0.790   3.877   7.371
15939WAT     H148059   0.826   3.843   7.284
15939WAT     H248060   0.713   3.821   7.400
15940WAT      O48061   9.217   8.536   6.169
15940WAT     H148062   9.140   8.580   6.216
15940WAT     H248063   9.256   8.465   6.228
15941WAT      O48064   9.551   6.080   5.171
15941WAT     H148065   9.637   6.130   5.183
15941WAT     H248066   9.504   6.074   5.259
15942WAT      O48067   1.630   1.187   6.215
15942WAT     H148068   1.655   1.117   6.281
15942WAT     H248069   1.585   1.263   6.262
15943WAT      O48070   0.981   1.805   4.911
15943WAT     H148071   0.888   1.810   4.946
15943WAT     H248072   0.992   1.722   4.857
15944WAT      O48073   3.567   5.114   1.641
15944WAT     H148074   3.631   5.070   1.705
15944WAT     H248075   3.602   5.204   1.615
15945WAT      O48076   7.720   2.803   4.387
15945WAT     H148077   7.732   2.865   4.310
15945WAT     H248078   7.809   2.783   4.428
15946WAT      O48079   2.742   8.722   8.765
15946WAT     H148080   2.749   8.625   8.786
15946WAT     H248081   2.739   8.775   8.849
15947WAT      O48082   0.499   1.519   5.647
15947WAT     H148083   0.440   1.599   5.656
15947WAT     H248084   0.443   1.438   5.626
15948WAT      O48085   2.735   8.398   2.225
15948WAT     H148086   2.793   8.442   2.295
15948WAT     H248087   2.779   8.406   2.136
15949WAT      O48088   8.378   8.945   6.209
15949WAT     H148089   8.391   8.865   6.267
15949WAT     H248090   8.326   9.014   6.260
15950WAT      O48091   8.916   2.469   6.121
15950WAT     H148092   8.936   2.545   6.183
15950WAT     H248093   8.858   2.403   6.168
15951WAT      O48094   4.640   5.426   7.282
15951WAT     H148095   4.693   5.475   7.212
15951WAT     H248096   4.622   5.333   7.251
15952WAT      O48097   3.037   0.511   2.511
15952WAT     H148098   3.029   0.414   2.488
15952WAT     H248099   3.101   0.555   2.449
15953WAT      O48100   2.884   3.681   9.166
15953WAT     H148101   2.821   3.692   9.243
15953WAT     H248102   2.846   3.726   9.085
15954WAT      O48103   6.018   2.365   6.393
15954WAT     H148104   6.061   2.429   6.456
15954WAT     H248105   6.049   2.385   6.299
15955WAT      O48106   8.511   2.784   8.952
15955WAT     H148107   8.563   2.869   8.961
15955WAT     H248108   8.413   2.805   8.952
15956WAT      O48109   0.188   7.943   0.921
15956WAT     H148110   0.158   8.030   0.882
15956WAT     H248111   0.116   7.874   0.909
15957WAT      O48112   5.214   5.092   7.367
15957WAT     H148113   5.299   5.049   7.400
15957WAT     H248114   5.219   5.101   7.267
15958WAT      O48115   5.077   2.204   4.411
15958WAT     H148116   5.072   2.259   4.495
15958WAT     H248117   5.065   2.108   4.433
15959WAT      O48118   9.599   6.177   3.613
15959WAT     H148119   9.695   6.184   3.588
15959WAT     H248120   9.586   6.097   3.672
15960WAT      O48121   7.360   0.836   3.646
15960WAT     H148122   7.344   0.810   3.741
15960WAT     H248123   7.287   0.898   3.616
15961WAT      O48124   7.445   3.862   9.319
15961WAT     H148125   7.532   3.813   9.332
15961WAT     H248126   7.429   3.877   9.222
15962WAT      O48127   8.278   5.782   8.253
15962WAT     H148128   8.332   5.853   8.299
15962WAT     H248129   8.312   5.770   8.159
15963WAT      O48130   3.724   2.369   1.941
15963WAT     H148131   3.632   2.406   1.936
15963WAT     H248132   3.728   2.299   2.013
15964WAT      O48133   1.825   8.830   1.922
15964WAT     H148134   1.819   8.747   1.977
15964WAT     H248135   1.917   8.867   1.928
15965WAT      O48136   4.558   9.569   6.876
15965WAT     H148137   4.637   9.554   6.817
15965WAT     H248138   4.554   9.496   6.944
15966WAT      O48139   0.880   7.386   9.552
15966WAT     H148140   0.810   7.327   9.512
15966WAT     H248141   0.965   7.376   9.502
15967WAT      O48142   4.908   7.672   3.874
15967WAT     H148143   4.956   7.646   3.790
15967WAT     H248144   4.825   7.723   3.850
15968WAT      O48145   3.134   9.024   6.732
15968WAT     H148146   3.216   9.083   6.736
15968WAT     H248147   3.054   9.080   6.710
15969WAT      O48148   0.930   0.154   0.616
15969WAT     H148149   0.858   0.223   0.621
15969WAT     H248150   1.020   0.199   0.618
15970WAT      O48151   7.709   4.087   5.618
15970WAT     H148152   7.618   4.088   5.659
15970WAT     H248153   7.701   4.085   5.518
15971WAT      O48154   4.685   5.946   5.888
15971WAT     H148155   4.686   5.885   5.967
15971WAT     H248156   4.612   5.919   5.826
15972WAT      O48157   3.148   0.592   0.839
15972WAT     H148158   3.191   0.621   0.925
15972WAT     H248159   3.214   0.598   0.765
15973WAT      O48160   0.128   1.447   6.538
15973WAT     H148161   0.102   1.473   6.445
15973WAT     H248162   0.055   1.392   6.579
15974WAT      O48163   7.095   9.341   0.360
15974WAT     H148164   7.180   9.323   0.408
15974WAT     H248165   7.021   9.352   0.427
15975WAT      O48166   5.250   3.287   1.448
15975WAT     H148167   5.286   3.288   1.354
15975WAT     H248168   5.154   3.313   1.448
15976WAT      O48169   6.238   5.658   1.626
15976WAT     H148170   6.210   5.650   1.531
15976WAT     H248171   6.186   5.593   1.682
15977WAT      O48172   3.328   9.293   9.096
15977WAT     H148173   3.381   9.378   9.102
15977WAT     H248174   3.232   9.315   9.082
15978WAT      O48175   8.134   7.385   0.614
15978WAT     H148176   8.132   7.351   0.708
15978WAT     H248177   8.083   7.471   0.608
15979WAT      O48178   6.808   9.709   9.739
15979WAT     H148179   6.819   9.682   9.835
15979WAT     H248180   6.793   9.627   9.683
15980WAT      O48181   7.174   5.434   0.036
15980WAT     H148182   7.132   5.520   0.068
15980WAT     H248183   7.142   5.359   0.094
15981WAT      O48184   6.211   1.264   3.624
15981WAT     H148185   6.266   1.318   3.562
15981WAT     H248186   6.115   1.292   3.618
15982WAT      O48187   0.511   8.577   0.149
15982WAT     H148188   0.568   8.562   0.230
15982WAT     H248189   0.520   8.499   0.087
15983WAT      O48190   7.236   1.827   9.679
15983WAT     H148191   7.217   1.904   9.740
15983WAT     H248192   7.174   1.831   9.600
15984WAT      O48193   1.748   1.288   1.859
15984WAT     H148194   1.782   1.290   1.765
15984WAT     H248195   1.648   1.280   1.858
15985WAT      O48196   7.408   4.422   8.265
15985WAT     H148197   7.374   4.515   8.248
15985WAT     H248198   7.331   4.361   8.279
15986WAT      O48199   7.149   4.298   5.980
15986WAT     H148200   7.152   4.331   6.074
15986WAT     H248201   7.194   4.364   5.920
15987WAT      O48202   4.299   6.086   0.790
15987WAT     H148203   4.205   6.115   0.808
15987WAT     H248204   4.349   6.161   0.748
15988WAT      O48205   1.793   5.791   8.005
15988WAT     H148206   1.880   5.774   7.958
15988WAT     H248207   1.799   5.757   8.099
15989WAT      O48208   6.211   1.614   5.632
15989WAT     H148209   6.215   1.528   5.582
15989WAT     H248210   6.217   1.596   5.730
15990WAT      O48211   0.752   7.558   6.013
15990WAT     H148212   0.722   7.644   5.972
15990WAT     H248213   0.694   7.484   5.981
15991WAT      O48214   1.544   5.924   4.796
15991WAT     H148215   1.456   5.884   4.823
15991WAT     H248216   1.539   5.954   4.701
15992WAT      O48217   8.472   9.238   4.378
15992WAT     H148218   8.384   9.196   4.354
15992WAT     H248219   8.471   9.334   4.351
15993WAT      O48220   6.591   4.972   8.982
15993WAT     H148221   6.651   5.034   9.033
15993WAT     H248222   6.605   4.879   9.013
15994WAT      O48223   3.686   9.466   8.766
15994WAT     H148224   3.698   9.423   8.855
15994WAT     H248225   3.756   9.431   8.703
15995WAT      O48226   0.107   7.877   0.469
15995WAT     H148227   0.032   7.821   0.505
15995WAT     H248228   0.136   7.942   0.539
15996WAT      O48229   2.881   0.404   1.508
15996WAT     H148230   2.910   0.381   1.415
15996WAT     H248231   2.880   0.322   1.564
15997WAT      O48232   2.151   8.797   4.448
15997WAT     H148233   2.117   8.704   4.460
15997WAT     H248234   2.141   8.824   4.353
15998WAT      O48235   1.146   8.177   7.770
15998WAT     H148236   1.091   8.237   7.713
15998WAT     H248237   1.240   8.175   7.735
15999WAT      O48238   9.103   4.807   7.856
15999WAT     H148239   9.198   4.790   7.882
15999WAT     H248240   9.074   4.739   7.788
16000WAT      O48241   8.533   3.051   0.635
16000WAT     H148242   8.565   3.145   0.629
16000WAT     H248243   8.611   2.989   0.624
16001WAT      O48244   0.130   6.548   9.492
16001WAT     H148245   0.202   6.611   9.463
16001WAT     H248246   0.045   6.598   9.507
16002WAT      O48247   8.365   1.330   9.750
16002WAT     H148248   8.381   1.422   9.713
16002WAT     H248249   8.294   1.334   9.820
16003WAT      O48250   8.309   6.549   1.037
16003WAT     H148251   8.297   6.480   0.966
16003WAT     H248252   8.404   6.550   1.067
16004WAT      O48253   4.682   4.526   9.559
16004WAT     H148254   4.654   4.563   9.647
16004WAT     H248255   4.764   4.471   9.571
16005WAT      O48256   0.440   0.557   1.563
16005WAT     H148257   0.414   0.627   1.497
16005WAT     H248258   0.536   0.535   1.551
16006WAT      O48259   4.114   9.596   6.020
16006WAT     H148260   4.049   9.528   6.056
16006WAT     H248261   4.075   9.687   6.028
16007WAT      O48262   5.843   8.036   6.022
16007WAT     H148263   5.812   7.941   6.011
16007WAT     H248264   5.823   8.087   5.938
16008WAT      O48265   3.012   5.743   6.586
16008WAT     H148266   3.082   5.689   6.538
16008WAT     H248267   3.054   5.788   6.665
16009WAT      O48268   7.287   0.718   2.480
16009WAT     H148269   7.291   0.817   2.467
16009WAT     H248270   7.193   0.689   2.499
16010WAT      O48271   4.111   0.420   9.849
16010WAT     H148272   4.096   0.388   9.943
16010WAT     H248273   4.028   0.462   9.814
16011WAT      O48274   5.578   3.896   8.212
16011WAT     H148275   5.653   3.940   8.261
16011WAT     H248276   5.544   3.818   8.265
16012WAT      O48277   6.541   1.942   5.508
16012WAT     H148278   6.571   2.037   5.493
16012WAT     H248279   6.580   1.908   5.594
16013WAT      O48280   6.283   6.851   9.525
16013WAT     H148281   6.359   6.914   9.513
16013WAT     H248282   6.207   6.878   9.466
16014WAT      O48283   2.293   3.335   2.677
16014WAT     H148284   2.365   3.374   2.735
16014WAT     H248285   2.217   3.305   2.734
16015WAT      O48286   2.470   1.625   4.592
16015WAT     H148287   2.452   1.554   4.523
16015WAT     H248288   2.421   1.709   4.567
16016WAT      O48289   0.659   9.821   1.320
16016WAT     H148290   0.649   9.899   1.258
16016WAT     H248291   0.750   9.781   1.309
16017WAT      O48292   1.937   8.515   5.111
16017WAT     H148293   1.976   8.507   5.203
16017WAT     H248294   1.845   8.556   5.118
16018WAT      O48295   8.318   8.572   9.809
16018WAT     H148296   8.385   8.613   9.747
16018WAT     H248297   8.228   8.610   9.790
16019WAT      O48298   0.331   3.938   9.642
16019WAT     H148299   0.361   3.953   9.736
16019WAT     H248300   0.293   4.022   9.605
16020WAT      O48301   3.909   2.864   4.907
16020WAT     H148302   3.928   2.935   4.839
16020WAT     H248303   3.866   2.786   4.862
16021WAT      O48304   3.484   2.106   1.771
16021WAT     H148305   3.581   2.081   1.772
16021WAT     H248306   3.429   2.024   1.789
16022WAT      O48307   8.454   7.314   6.487
16022WAT     H148308   8.399   7.233   6.506
16022WAT     H248309   8.399   7.381   6.438
16023WAT      O48310   2.474   1.210   7.365
16023WAT     H148311   2.556   1.213   7.421
16023WAT     H248312   2.454   1.301   7.330
16024WAT      O48313   7.559   4.867   8.141
16024WAT     H148314   7.482   4.805   8.157
16024WAT     H248315   7.547   4.950   8.195
16025WAT      O48316   7.988   2.282   7.191
16025WAT     H148317   8.012   2.287   7.288
16025WAT     H248318   8.011   2.191   7.156
16026WAT      O48319   0.094   1.458   1.531
16026WAT     H148320   0.167   1.390   1.524
16026WAT     H248321   0.019   1.422   1.586
16027WAT      O48322   5.318   3.492   2.574
16027WAT     H148323   5.323   3.393   2.565
16027WAT     H248324   5.239   3.527   2.524
16028WAT      O48325   5.434   6.834   5.946
16028WAT     H148326   5.500   6.909   5.946
16028WAT     H248327   5.436   6.788   6.034
16029WAT      O48328   2.266   5.931   4.189
16029WAT     H148329   2.297   6.025   4.206
16029WAT     H248330   2.196   5.907   4.256
16030WAT      O48331   7.803   8.944   1.838
16030WAT     H148332   7.781   8.882   1.913
16030WAT     H248333   7.821   8.892   1.755
16031WAT      O48334   4.615   6.463   1.288
16031WAT     H148335   4.707   6.429   1.267
16031WAT     H248336   4.558   6.459   1.206
16032WAT      O48337   4.665   4.466   5.644
16032WAT     H148338   4.690   4.376   5.609
16032WAT     H248339   4.633   4.458   5.738
16033WAT      O48340   1.450   7.208   5.847
16033WAT     H148341   1.500   7.124   5.826
16033WAT     H248342   1.352   7.193   5.831
16034WAT      O48343   4.480   8.859   1.475
16034WAT     H148344   4.407   8.926   1.457
16034WAT     H248345   4.490   8.847   1.573
16035WAT      O48346   6.978   5.068   4.491
16035WAT     H148347   6.969   5.123   4.574
16035WAT     H248348   6.888   5.057   4.448
16036WAT      O48349   2.707   5.963   2.104
16036WAT     H148350   2.639   6.021   2.059
16036WAT     H248351   2.766   6.020   2.162
16037WAT      O48352   9.290   6.393   7.509
16037WAT     H148353   9.255   6.484   7.532
16037WAT     H248354   9.388   6.398   7.491
16038WAT      O48355   0.685   5.967   3.577
16038WAT     H148356   0.730   6.022   3.647
16038WAT     H248357   0.613   6.021   3.533
16039WAT      O48358   1.992   5.060   6.380
16039WAT     H148359   1.895   5.074   6.358
16039WAT     H248360   2.042   5.041   6.296
16040WAT      O48361   8.787   0.308   3.958
16040WAT     H148362   8.843   0.375   4.007
16040WAT     H248363   8.834   0.279   3.875
16041WAT      O48364   9.728   1.542   0.082
16041WAT     H148365   9.754   1.447   0.103
16041WAT     H248366   9.700   1.549  -0.013
16042WAT      O48367   8.613   4.789   7.722
16042WAT     H148368   8.605   4.709   7.664
16042WAT     H248369   8.702   4.833   7.709
16043WAT      O48370   8.336   2.123   3.051
16043WAT     H148371   8.245   2.088   3.070
16043WAT     H248372   8.333   2.223   3.049
16044WAT      O48373   6.185   5.038   7.658
16044WAT     H148374   6.087   5.038   7.677
16044WAT     H248375   6.216   5.132   7.644
16045WAT      O48376   0.557   1.491   3.011
16045WAT     H148377   0.461   1.515   3.025
16045WAT     H248378   0.611   1.524   3.088
16046WAT      O48379   1.104   4.183   5.521
16046WAT     H148380   1.079   4.280   5.522
16046WAT     H248381   1.097   4.145   5.613
16047WAT      O48382   9.239   4.026   2.374
16047WAT     H148383   9.200   4.050   2.285
16047WAT     H248384   9.333   4.060   2.379
16048WAT      O48385   7.859   0.615   9.659
16048WAT     H148386   7.952   0.580   9.644
16048WAT     H248387   7.855   0.662   9.747
16049WAT      O48388   8.005   4.355   1.593
16049WAT     H148389   8.024   4.436   1.537
16049WAT     H248390   8.010   4.273   1.536
16050WAT      O48391   1.290   8.745   2.407
16050WAT     H148392   1.249   8.766   2.496
16050WAT     H248393   1.360   8.674   2.420
16051WAT      O48394   9.709   5.490   1.057
16051WAT     H148395   9.698   5.570   0.998
16051WAT     H248396   9.764   5.422   1.010
16052WAT      O48397   7.233   2.336   2.277
16052WAT     H148398   7.310   2.300   2.329
16052WAT     H248399   7.203   2.422   2.317
16053WAT      O48400   7.671   1.899   5.446
16053WAT     H148401   7.713   1.940   5.527
16053WAT     H248402   7.578   1.870   5.468
16054WAT      O48403   7.426   9.121   1.730
16054WAT     H148404   7.517   9.131   1.771
16054WAT     H248405   7.398   9.208   1.690
16055WAT      O48406   5.399   3.985   4.168
16055WAT     H148407   5.353   4.005   4.082
16055WAT     H248408   5.367   4.050   4.238
16056WAT      O48409   3.779   4.007   3.323
16056WAT     H148410   3.827   4.072   3.264
16056WAT     H248411   3.686   3.994   3.289
16057WAT      O48412   7.487   6.230   5.201
16057WAT     H148413   7.461   6.162   5.270
16057WAT     H248414   7.566   6.282   5.234
16058WAT      O48415   9.436   9.714   7.342
16058WAT     H148416   9.503   9.732   7.270
16058WAT     H248417   9.373   9.792   7.349
16059WAT      O48418   5.194   1.098   4.745
16059WAT     H148419   5.123   1.044   4.789
16059WAT     H248420   5.284   1.058   4.765
16060WAT      O48421   6.661   4.060   2.971
16060WAT     H148422   6.579   4.080   2.917
16060WAT     H248423   6.718   4.142   2.975
16061WAT      O48424   2.040   0.354   8.894
16061WAT     H148425   2.136   0.383   8.895
16061WAT     H248426   1.985   0.425   8.850
16062WAT      O48427   2.143   5.380   8.742
16062WAT     H148428   2.176   5.388   8.836
16062WAT     H248429   2.044   5.364   8.742
16063WAT      O48430   5.170   9.727   5.369
16063WAT     H148431   5.241   9.714   5.300
16063WAT     H248432   5.165   9.823   5.395
16064WAT      O48433   0.370   4.979   5.838
16064WAT     H148434   0.338   4.906   5.899
16064WAT     H248435   0.291   5.030   5.804
16065WAT      O48436   4.747   1.932   5.159
16065WAT     H148437   4.833   1.982   5.154
16065WAT     H248438   4.688   1.959   5.083
16066WAT      O48439   2.180   5.540   9.477
16066WAT     H148440   2.224   5.520   9.390
16066WAT     H248441   2.144   5.455   9.517
16067WAT      O48442   8.771   0.500   3.184
16067WAT     H148443   8.795   0.412   3.144
16067WAT     H248444   8.724   0.486   3.271
16068WAT      O48445   1.472   4.715   8.570
16068WAT     H148446   1.526   4.636   8.600
16068WAT     H248447   1.423   4.691   8.486
16069WAT      O48448   7.996   0.366   3.749
16069WAT     H148449   7.909   0.381   3.702
16069WAT     H248450   7.983   0.377   3.848
16070WAT      O48451   0.388   2.382   4.497
16070WAT     H148452   0.472   2.407   4.545
16070WAT     H248453   0.311   2.383   4.560
16071WAT      O48454   5.679   1.158   0.380
16071WAT     H148455   5.617   1.083   0.405
16071WAT     H248456   5.652   1.195   0.292
16072WAT      O48457   6.460   8.577   7.265
16072WAT     H148458   6.445   8.579   7.166
16072WAT     H248459   6.442   8.485   7.299
16073WAT      O48460   3.982   9.187   8.436
16073WAT     H148461   4.026   9.100   8.455
16073WAT     H248462   3.898   9.172   8.384
16074WAT      O48463   3.973   8.695   3.733
16074WAT     H148464   3.988   8.794   3.734
16074WAT     H248465   4.061   8.648   3.734
16075WAT      O48466   5.152   5.152   8.915
16075WAT     H148467   5.052   5.147   8.926
16075WAT     H248468   5.188   5.061   8.897
16076WAT      O48469   3.921   6.715   3.032
16076WAT     H148470   4.004   6.716   2.976
16076WAT     H248471   3.943   6.678   3.122
16077WAT      O48472   9.610   3.834   4.940
16077WAT     H148473   9.705   3.864   4.944
16077WAT     H248474   9.604   3.741   4.977
16078WAT      O48475   3.371   9.491   2.792
16078WAT     H148476   3.375   9.391   2.782
16078WAT     H248477   3.349   9.514   2.887
16079WAT      O48478   4.111   9.302   7.122
16079WAT     H148479   4.015   9.285   7.104
16079WAT     H248480   4.124   9.398   7.148
16080WAT      O48481   6.005   7.748   9.637
16080WAT     H148482   6.038   7.690   9.711
16080WAT     H248483   6.076   7.757   9.567
16081WAT      O48484   7.030   8.319   2.173
16081WAT     H148485   7.121   8.360   2.165
16081WAT     H248486   7.034   8.224   2.140
16082WAT      O48487   5.483   6.688   6.172
16082WAT     H148488   5.580   6.668   6.167
16082WAT     H248489   5.451   6.678   6.266
16083WAT      O48490   6.999   2.345   9.126
16083WAT     H148491   6.901   2.358   9.139
16083WAT     H248492   7.037   2.420   9.073
16084WAT      O48493   8.215   4.114   4.903
16084WAT     H148494   8.263   4.152   4.982
16084WAT     H248495   8.281   4.089   4.832
16085WAT      O48496   5.738   3.687   9.353
16085WAT     H148497   5.819   3.698   9.296
16085WAT     H248498   5.723   3.770   9.407
16086WAT      O48499   3.259   6.973   0.405
16086WAT     H148500   3.235   7.031   0.483
16086WAT     H248501   3.175   6.937   0.364
16087WAT      O48502   0.513   8.689   5.515
16087WAT     H148503   0.444   8.748   5.558
16087WAT     H248504   0.556   8.632   5.585
16088WAT      O48505   6.194   9.214   0.638
16088WAT     H148506   6.282   9.217   0.590
16088WAT     H248507   6.128   9.163   0.583
16089WAT      O48508   9.672   2.717   8.591
16089WAT     H148509   9.688   2.708   8.689
16089WAT     H248510   9.751   2.682   8.541
16090WAT      O48511   7.635   7.570   7.900
16090WAT     H148512   7.652   7.636   7.973
16090WAT     H248513   7.691   7.489   7.914
16091WAT      O48514   2.559   0.714   5.716
16091WAT     H148515   2.471   0.748   5.750
16091WAT     H248516   2.567   0.616   5.735
16092WAT      O48517   0.120   2.063   9.181
16092WAT     H148518   0.190   1.991   9.178
16092WAT     H248519   0.141   2.125   9.257
16093WAT      O48520   2.551   2.224   6.698
16093WAT     H148521   2.520   2.270   6.615
16093WAT     H248522   2.512   2.269   6.778
16094WAT      O48523   0.244   3.619   2.519
16094WAT     H148524   0.303   3.617   2.438
16094WAT     H248525   0.214   3.712   2.536
16095WAT      O48526   9.050   1.701   8.089
16095WAT     H148527   9.058   1.785   8.143
16095WAT     H248528   8.961   1.700   8.042
16096WAT      O48529   0.986   6.226   8.636
16096WAT     H148530   1.069   6.226   8.581
16096WAT     H248531   0.912   6.269   8.585
16097WAT      O48532   8.030   8.128   6.896
16097WAT     H148533   7.935   8.160   6.902
16097WAT     H248534   8.083   8.192   6.840
16098WAT      O48535   4.653   7.372   8.735
16098WAT     H148536   4.683   7.432   8.660
16098WAT     H248537   4.702   7.395   8.818
16099WAT      O48538   9.121   0.164   3.590
16099WAT     H148539   9.162   0.225   3.658
16099WAT     H248540   9.123   0.209   3.500
16100WAT      O48541   4.554   7.916   3.120
16100WAT     H148542   4.508   7.965   3.045
16100WAT     H248543   4.638   7.965   3.144
16101WAT      O48544   8.279   8.610   3.217
16101WAT     H148545   8.300   8.694   3.268
16101WAT     H248546   8.184   8.612   3.187
16102WAT      O48547   1.076   4.460   0.324
16102WAT     H148548   1.056   4.538   0.384
16102WAT     H248549   1.121   4.493   0.241
16103WAT      O48550   5.519   4.226   8.059
16103WAT     H148551   5.614   4.196   8.051
16103WAT     H248552   5.491   4.223   8.155
16104WAT      O48553   8.305   2.591   9.874
16104WAT     H148554   8.290   2.625   9.781
16104WAT     H248555   8.222   2.602   9.927
16105WAT      O48556   9.874   8.809   2.153
16105WAT     H148557   9.905   8.901   2.175
16105WAT     H248558   9.953   8.749   2.138
16106WAT      O48559   3.257   6.365   4.005
16106WAT     H148560   3.352   6.342   3.982
16106WAT     H248561   3.234   6.325   4.094
16107WAT      O48562   2.646   3.873   2.831
16107WAT     H148563   2.680   3.790   2.876
16107WAT     H248564   2.717   3.910   2.772
16108WAT      O48565   2.292   2.474   8.189
16108WAT     H148566   2.277   2.376   8.207
16108WAT     H248567   2.283   2.491   8.091
16109WAT      O48568   0.111   6.593   5.708
16109WAT     H148569   0.021   6.548   5.707
16109WAT     H248570   0.141   6.603   5.803
16110WAT      O48571   0.584   1.860   3.183
16110WAT     H148572   0.676   1.852   3.145
16110WAT     H248573   0.579   1.809   3.269
16111WAT      O48574   3.536   2.178   4.192
16111WAT     H148575   3.626   2.221   4.202
16111WAT     H248576   3.474   2.242   4.147
16112WAT      O48577   0.882   7.012   8.696
16112WAT     H148578   0.972   7.047   8.671
16112WAT     H248579   0.817   7.031   8.623
16113WAT      O48580   2.778   3.792   9.667
16113WAT     H148581   2.777   3.880   9.714
16113WAT     H248582   2.873   3.762   9.654
16114WAT      O48583   4.187   9.149   4.472
16114WAT     H148584   4.106   9.185   4.519
16114WAT     H248585   4.241   9.226   4.438
16115WAT      O48586   9.572   8.520   0.024
16115WAT     H148587   9.565   8.434  -0.025
16115WAT     H248588   9.666   8.555   0.018
16116WAT      O48589   3.373   9.204   0.995
16116WAT     H148590   3.360   9.153   0.910
16116WAT     H248591   3.331   9.294   0.986
16117WAT      O48592   7.323   7.759   6.443
16117WAT     H148593   7.277   7.769   6.355
16117WAT     H248594   7.406   7.704   6.431
16118WAT      O48595   1.278   9.732   3.840
16118WAT     H148596   1.229   9.659   3.792
16118WAT     H248597   1.218   9.811   3.849
16119WAT      O48598   3.496   7.297   9.297
16119WAT     H148599   3.415   7.315   9.242
16119WAT     H248600   3.469   7.267   9.388
16120WAT      O48601   3.293   6.687   5.200
16120WAT     H148602   3.243   6.773   5.213
16120WAT     H248603   3.372   6.685   5.261
16121WAT      O48604   4.291   5.747   4.998
16121WAT     H148605   4.267   5.838   4.965
16121WAT     H248606   4.373   5.715   4.951
16122WAT      O48607   9.634   0.651   7.147
16122WAT     H148608   9.599   0.567   7.189
16122WAT     H248609   9.733   0.644   7.137
16123WAT      O48610   5.480   7.508   6.666
16123WAT     H148611   5.435   7.448   6.732
16123WAT     H248612   5.518   7.453   6.592
16124WAT      O48613   3.242   1.904   1.351
16124WAT     H148614   3.173   1.934   1.285
16124WAT     H248615   3.324   1.962   1.343
16125WAT      O48616   8.262   9.321   4.904
16125WAT     H148617   8.334   9.253   4.920
16125WAT     H248618   8.186   9.304   4.967
16126WAT      O48619   4.254   7.918   5.291
16126WAT     H148620   4.193   7.956   5.221
16126WAT     H248621   4.210   7.839   5.334
16127WAT      O48622   1.785   9.408   0.968
16127WAT     H148623   1.750   9.439   0.880
16127WAT     H248624   1.852   9.473   1.003
16128WAT      O48625   6.603   2.471   5.760
16128WAT     H148626   6.515   2.496   5.800
16128WAT     H248627   6.638   2.548   5.707
16129WAT      O48628   3.611   2.030   0.437
16129WAT     H148629   3.668   2.112   0.424
16129WAT     H248630   3.528   2.055   0.486
16130WAT      O48631   0.254   1.299   3.840
16130WAT     H148632   0.303   1.229   3.788
16130WAT     H248633   0.157   1.298   3.814
16131WAT      O48634   0.826   2.903   2.856
16131WAT     H148635   0.762   2.973   2.888
16131WAT     H248636   0.821   2.896   2.757
16132WAT      O48637   0.270   6.318   1.098
16132WAT     H148638   0.181   6.278   1.078
16132WAT     H248639   0.300   6.374   1.021
16133WAT      O48640   0.696   6.568   2.662
16133WAT     H148641   0.796   6.561   2.660
16133WAT     H248642   0.668   6.618   2.743
16134WAT      O48643   2.602   0.749   0.904
16134WAT     H148644   2.595   0.759   0.805
16134WAT     H248645   2.670   0.813   0.939
16135WAT      O48646   6.655   8.504   3.902
16135WAT     H148647   6.647   8.489   4.001
16135WAT     H248648   6.633   8.419   3.854
16136WAT      O48649   6.009   0.880   9.228
16136WAT     H148650   5.950   0.929   9.292
16136WAT     H248651   5.981   0.899   9.134
16137WAT      O48652   6.439   7.062   4.325
16137WAT     H148653   6.371   7.134   4.317
16137WAT     H248654   6.477   7.062   4.418
16138WAT      O48655   7.200   8.129   7.948
16138WAT     H148656   7.139   8.133   7.869
16138WAT     H248657   7.187   8.042   7.996
16139WAT      O48658   8.762   9.031   3.649
16139WAT     H148659   8.734   9.040   3.745
16139WAT     H248660   8.853   9.071   3.636
16140WAT      O48661   4.568   1.908   7.392
16140WAT     H148662   4.504   1.887   7.466
16140WAT     H248663   4.566   1.835   7.324
16141WAT      O48664   8.349   1.643   9.089
16141WAT     H148665   8.355   1.720   9.025
16141WAT     H248666   8.329   1.559   9.039
16142WAT      O48667   5.048   6.923   8.579
16142WAT     H148668   5.022   7.020   8.572
16142WAT     H248669   4.975   6.866   8.542
16143WAT      O48670   0.601   0.003   1.597
16143WAT     H148671   0.635  -0.005   1.503
16143WAT     H248672   0.561   0.094   1.611
16144WAT      O48673   6.152   4.319   4.731
16144WAT     H148674   6.140   4.418   4.733
16144WAT     H248675   6.175   4.289   4.638
16145WAT      O48676   7.578   1.936   3.213
16145WAT     H148677   7.553   2.027   3.247
16145WAT     H248678   7.648   1.945   3.142
16146WAT      O48679   3.304   3.272   1.097
16146WAT     H148680   3.372   3.225   1.041
16146WAT     H248681   3.258   3.342   1.042
16147WAT      O48682   5.750   2.983   6.667
16147WAT     H148683   5.731   2.885   6.679
16147WAT     H248684   5.682   3.036   6.718
16148WAT      O48685   8.110   3.620   6.376
16148WAT     H148686   8.044   3.688   6.408
16148WAT     H248687   8.066   3.529   6.375
16149WAT      O48688   3.631   6.045   7.937
16149WAT     H148689   3.580   6.121   7.896
16149WAT     H248690   3.643   6.062   8.035
16150WAT      O48691   9.889   2.118   1.722
16150WAT     H148692   9.806   2.095   1.772
16150WAT     H248693   9.895   2.217   1.711
16151WAT      O48694   3.758   7.911   2.802
16151WAT     H148695   3.780   7.893   2.898
16151WAT     H248696   3.761   8.010   2.785
16152WAT      O48697   6.236   8.786   3.798
16152WAT     H148698   6.187   8.703   3.824
16152WAT     H248699   6.287   8.821   3.877
16153WAT      O48700   8.453   3.774   0.011
16153WAT     H148701   8.527   3.706   0.008
16153WAT     H248702   8.481   3.850   0.069
16154WAT      O48703   3.075   1.526   9.386
16154WAT     H148704   3.101   1.434   9.358
16154WAT     H248705   3.068   1.530   9.486
16155WAT      O48706   6.564   0.040   1.210
16155WAT     H148707   6.539  -0.038   1.268
16155WAT     H248708   6.576   0.121   1.266
16156WAT      O48709   5.157   2.931   4.111
16156WAT     H148710   5.150   2.932   4.011
16156WAT     H248711   5.114   2.848   4.146
16157WAT      O48712   8.336   5.409   0.045
16157WAT     H148713   8.331   5.351  -0.036
16157WAT     H248714   8.274   5.486   0.035
16158WAT      O48715   3.512   1.643   8.831
16158WAT     H148716   3.569   1.621   8.752
16158WAT     H248717   3.487   1.740   8.828
16159WAT      O48718   7.004   4.550   8.116
16159WAT     H148719   6.952   4.541   8.031
16159WAT     H248720   6.958   4.615   8.176
16160WAT      O48721   0.927   3.057   5.580
16160WAT     H148722   0.993   2.997   5.535
16160WAT     H248723   0.848   3.070   5.519
16161WAT      O48724   8.364   2.424   1.004
16161WAT     H148725   8.333   2.485   1.077
16161WAT     H248726   8.345   2.465   0.915
16162WAT      O48727   1.888   3.562   1.299
16162WAT     H148728   1.975   3.596   1.265
16162WAT     H248729   1.892   3.463   1.309
16163WAT      O48730   3.884   6.192   5.534
16163WAT     H148731   3.950   6.203   5.608
16163WAT     H248732   3.879   6.277   5.481
16164WAT      O48733   5.780   7.033   0.984
16164WAT     H148734   5.840   7.076   0.916
16164WAT     H248735   5.707   6.983   0.938
16165WAT      O48736   2.805   2.766   5.403
16165WAT     H148737   2.862   2.700   5.352
16165WAT     H248738   2.784   2.729   5.493
16166WAT      O48739   1.874   7.437   1.328
16166WAT     H148740   1.801   7.480   1.380
16166WAT     H248741   1.943   7.400   1.391
16167WAT      O48742   8.651   7.375   8.137
16167WAT     H148743   8.733   7.331   8.100
16167WAT     H248744   8.650   7.471   8.110
16168WAT      O48745   1.206   2.254   8.798
16168WAT     H148746   1.279   2.196   8.835
16168WAT     H248747   1.246   2.320   8.734
16169WAT      O48748   5.002   9.563   3.351
16169WAT     H148749   5.085   9.540   3.301
16169WAT     H248750   4.951   9.479   3.372
16170WAT      O48751   4.243   5.173   0.007
16170WAT     H148752   4.212   5.209  -0.081
16170WAT     H248753   4.230   5.074   0.009
16171WAT      O48754   5.189   5.285   0.132
16171WAT     H148755   5.218   5.282   0.037
16171WAT     H248756   5.269   5.289   0.192
16172WAT      O48757   2.949   5.598   7.071
16172WAT     H148758   2.935   5.697   7.066
16172WAT     H248759   2.944   5.559   6.979
16173WAT      O48760   7.417   2.048   7.404
16173WAT     H148761   7.459   2.137   7.389
16173WAT     H248762   7.482   1.989   7.452
16174WAT      O48763   5.326   1.567   2.106
16174WAT     H148764   5.287   1.644   2.156
16174WAT     H248765   5.270   1.548   2.025
16175WAT      O48766   4.795   3.220   0.027
16175WAT     H148767   4.801   3.307   0.075
16175WAT     H248768   4.778   3.147   0.092
16176WAT      O48769   8.737   5.750   4.598
16176WAT     H148770   8.819   5.806   4.600
16176WAT     H248771   8.713   5.722   4.691
16177WAT      O48772   2.360   6.372   0.930
16177WAT     H148773   2.382   6.385   0.834
16177WAT     H248774   2.400   6.286   0.962
16178WAT      O48775   1.223   7.250   5.543
16178WAT     H148776   1.289   7.181   5.515
16178WAT     H248777   1.185   7.227   5.632
16179WAT      O48778   6.500   8.785   6.701
16179WAT     H148779   6.554   8.788   6.617
16179WAT     H248780   6.556   8.820   6.777
16180WAT      O48781   4.716   7.227   3.370
16180WAT     H148782   4.683   7.134   3.354
16180WAT     H248783   4.637   7.288   3.384
16181WAT      O48784   2.932   7.989   1.344
16181WAT     H148785   2.995   8.066   1.351
16181WAT     H248786   2.974   7.916   1.289
16182WAT      O48787   7.949   4.089   8.304
16182WAT     H148788   8.026   4.108   8.365
16182WAT     H248789   7.975   4.017   8.240
16183WAT      O48790   6.862   6.241   0.327
16183WAT     H148791   6.915   6.247   0.412
16183WAT     H248792   6.774   6.287   0.338
16184WAT      O48793   8.613   9.154   3.435
16184WAT     H148794   8.654   9.085   3.375
16184WAT     H248795   8.665   9.158   3.520
16185WAT      O48796   3.867   8.626   6.925
16185WAT     H148797   3.851   8.534   6.889
16185WAT     H248798   3.779   8.671   6.941
16186WAT      O48799   1.687   5.791   4.260
16186WAT     H148800   1.685   5.703   4.308
16186WAT     H248801   1.677   5.775   4.162
16187WAT      O48802   0.160   7.911   3.488
16187WAT     H148803   0.144   7.865   3.401
16187WAT     H248804   0.116   8.000   3.488
16188WAT      O48805   4.596   0.266   7.291
16188WAT     H148806   4.619   0.184   7.239
16188WAT     H248807   4.540   0.241   7.370
16189WAT      O48808   2.388   2.062   6.341
16189WAT     H148809   2.378   2.134   6.409
16189WAT     H248810   2.415   2.103   6.254
16190WAT      O48811   0.058   8.815   4.504
16190WAT     H148812   0.110   8.769   4.577
16190WAT     H248813   0.077   8.914   4.507
16191WAT      O48814   4.746   5.324   1.783
16191WAT     H148815   4.805   5.254   1.743
16191WAT     H248816   4.798   5.408   1.796
16192WAT      O48817   0.631   6.267   4.291
16192WAT     H148818   0.729   6.265   4.307
16192WAT     H248819   0.591   6.178   4.311
16193WAT      O48820   1.985   4.081   4.078
16193WAT     H148821   2.050   4.153   4.101
16193WAT     H248822   1.894   4.106   4.112
16194WAT      O48823   0.239   9.276   6.984
16194WAT     H148824   0.253   9.365   6.942
16194WAT     H248825   0.152   9.238   6.954
16195WAT      O48826   7.583   0.591   4.795
16195WAT     H148827   7.673   0.636   4.797
16195WAT     H248828   7.522   0.643   4.735
16196WAT      O48829   8.203   7.299   9.826
16196WAT     H148830   8.213   7.252   9.738
16196WAT     H248831   8.292   7.331   9.857
16197WAT      O48832   0.171   6.425   7.156
16197WAT     H148833   0.148   6.466   7.244
16197WAT     H248834   0.264   6.388   7.160
16198WAT      O48835   0.206   8.733   3.415
16198WAT     H148836   0.305   8.731   3.429
16198WAT     H248837   0.186   8.725   3.317
16199WAT      O48838   9.333   1.177   3.505
16199WAT     H148839   9.278   1.098   3.532
16199WAT     H248840   9.420   1.176   3.555
16200WAT      O48841   1.804   3.199   6.477
16200WAT     H148842   1.744   3.274   6.506
16200WAT     H248843   1.889   3.203   6.529
16201WAT      O48844   8.217   5.134   4.317
16201WAT     H148845   8.171   5.072   4.254
16201WAT     H248846   8.191   5.112   4.411
16202WAT      O48847   9.421   3.746   7.655
16202WAT     H148848   9.378   3.750   7.565
16202WAT     H248849   9.487   3.670   7.658
16203WAT      O48850   6.320   6.000   4.817
16203WAT     H148851   6.265   5.922   4.847
16203WAT     H248852   6.260   6.076   4.791
16204WAT      O48853   5.236   3.689   7.744
16204WAT     H148854   5.254   3.772   7.690
16204WAT     H248855   5.318   3.668   7.798
16205WAT      O48856   6.814   9.386   9.024
16205WAT     H148857   6.888   9.449   9.001
16205WAT     H248858   6.814   9.309   8.961
16206WAT      O48859   4.582   3.568   8.952
16206WAT     H148860   4.666   3.592   8.903
16206WAT     H248861   4.519   3.521   8.890
16207WAT      O48862   3.976   4.388   9.634
16207WAT     H148863   4.015   4.478   9.616
16207WAT     H248864   3.882   4.385   9.598
16208WAT      O48865   8.111   2.450   6.718
16208WAT     H148866   8.090   2.448   6.620
16208WAT     H248867   8.029   2.473   6.770
16209WAT      O48868   2.572   0.286   4.470
16209WAT     H148869   2.542   0.261   4.378
16209WAT     H248870   2.607   0.204   4.516
16210WAT      O48871   2.560   7.221   1.126
16210WAT     H148872   2.627   7.261   1.064
16210WAT     H248873   2.600   7.214   1.218
16211WAT      O48874   2.538   6.151   9.248
16211WAT     H148875   2.520   6.090   9.325
16211WAT     H248876   2.636   6.155   9.230
16212WAT      O48877   8.467   2.906   8.575
16212WAT     H148878   8.450   2.821   8.624
16212WAT     H248879   8.386   2.929   8.520
16213WAT      O48880   1.087   1.112   4.265
16213WAT     H148881   1.097   1.177   4.340
16213WAT     H248882   1.076   1.020   4.302
16214WAT      O48883   9.754   5.162   1.590
16214WAT     H148884   9.795   5.250   1.614
16214WAT     H248885   9.655   5.167   1.602
16215WAT      O48886   1.750   8.494   1.317
16215WAT     H148887   1.664   8.455   1.284
16215WAT     H248888   1.815   8.420   1.335
16216WAT      O48889   4.185   2.911   9.510
16216WAT     H148890   4.263   2.945   9.458
16216WAT     H248891   4.213   2.831   9.563
16217WAT      O48892   8.036   1.508   3.494
16217WAT     H148893   8.101   1.582   3.477
16217WAT     H248894   7.943   1.541   3.481
16218WAT      O48895   1.251   3.629   8.277
16218WAT     H148896   1.325   3.657   8.338
16218WAT     H248897   1.270   3.660   8.184
16219WAT      O48898   2.594   3.666   0.040
16219WAT     H148899   2.605   3.589   0.104
16219WAT     H248900   2.573   3.630  -0.051
16220WAT      O48901   1.843   1.474   0.756
16220WAT     H148902   1.902   1.529   0.815
16220WAT     H248903   1.757   1.522   0.740
16221WAT      O48904   4.019   8.049   3.020
16221WAT     H148905   4.040   8.058   3.117
16221WAT     H248906   4.061   7.965   2.985
16222WAT      O48907   3.139   6.044   1.902
16222WAT     H148908   3.227   6.003   1.879
16222WAT     H248909   3.154   6.127   1.956
16223WAT      O48910   0.306   5.868   1.499
16223WAT     H148911   0.243   5.790   1.490
16223WAT     H248912   0.269   5.934   1.564
16224WAT      O48913   8.218   8.392   1.101
16224WAT     H148914   8.315   8.409   1.119
16224WAT     H248915   8.162   8.448   1.163
16225WAT      O48916   7.010   5.961   0.533
16225WAT     H148917   6.972   5.883   0.583
16225WAT     H248918   7.104   5.976   0.562
16226WAT      O48919   0.631   6.121   6.076
16226WAT     H148920   0.632   6.144   5.978
16226WAT     H248921   0.688   6.041   6.092
16227WAT      O48922   2.549   6.546   2.525
16227WAT     H148923   2.570   6.448   2.530
16227WAT     H248924   2.544   6.584   2.617
16228WAT      O48925   5.576   4.867   6.287
16228WAT     H148926   5.548   4.772   6.297
16228WAT     H248927   5.659   4.873   6.232
16229WAT      O48928   5.823   4.421   7.291
16229WAT     H148929   5.901   4.383   7.241
16229WAT     H248930   5.845   4.512   7.324
16230WAT      O48931   2.521   0.452   5.749
16230WAT     H148932   2.487   0.465   5.656
16230WAT     H248933   2.495   0.362   5.782
16231WAT      O48934   8.624   9.029   6.102
16231WAT     H148935   8.539   8.987   6.133
16231WAT     H248936   8.675   9.063   6.181
16232WAT      O48937   1.831   8.258   4.399
16232WAT     H148938   1.761   8.196   4.362
16232WAT     H248939   1.888   8.208   4.464
16233WAT      O48940   9.226   1.343   3.329
16233WAT     H148941   9.255   1.279   3.400
16233WAT     H248942   9.184   1.292   3.254
16234WAT      O48943   4.120   1.648   3.177
16234WAT     H148944   4.144   1.555   3.149
16234WAT     H248945   4.085   1.698   3.098
16235WAT      O48946   5.712   0.572   6.691
16235WAT     H148947   5.655   0.516   6.751
16235WAT     H248948   5.720   0.528   6.601
16236WAT      O48949   2.217   4.689   5.178
16236WAT     H148950   2.316   4.704   5.183
16236WAT     H248951   2.171   4.774   5.154
16237WAT      O48952   2.722   0.138   2.872
16237WAT     H148953   2.622   0.132   2.868
16237WAT     H248954   2.756   0.190   2.793
16238WAT      O48955   1.221   6.882   4.167
16238WAT     H148956   1.219   6.782   4.159
16238WAT     H248957   1.300   6.918   4.117
16239WAT      O48958   6.042   8.567   5.016
16239WAT     H148959   6.069   8.610   5.102
16239WAT     H248960   5.942   8.562   5.011
16240WAT      O48961   6.000   6.362   9.402
16240WAT     H148962   5.919   6.420   9.409
16240WAT     H248963   5.975   6.267   9.421
16241WAT      O48964   8.759   9.394   2.522
16241WAT     H148965   8.768   9.337   2.604
16241WAT     H248966   8.681   9.363   2.468
16242WAT      O48967   7.790   5.221   6.815
16242WAT     H148968   7.780   5.146   6.880
16242WAT     H248969   7.810   5.183   6.724
16243WAT      O48970   1.263   8.280   8.696
16243WAT     H148971   1.264   8.344   8.618
16243WAT     H248972   1.294   8.190   8.666
16244WAT      O48973   6.951   3.348   6.727
16244WAT     H148974   6.935   3.250   6.715
16244WAT     H248975   6.890   3.383   6.797
16245WAT      O48976   6.854   6.986   3.338
16245WAT     H148977   6.937   6.931   3.331
16245WAT     H248978   6.774   6.930   3.317
16246WAT      O48979   1.028   6.079   1.307
16246WAT     H148980   1.032   6.069   1.208
16246WAT     H248981   1.035   6.175   1.332
16247WAT      O48982   5.888   1.145   6.884
16247WAT     H148983   5.935   1.057   6.893
16247WAT     H248984   5.789   1.130   6.887
16248WAT      O48985   6.958   1.683   6.644
16248WAT     H148986   6.871   1.718   6.678
16248WAT     H248987   7.015   1.759   6.614
16249WAT      O48988   3.114   1.815   9.011
16249WAT     H148989   3.178   1.869   9.066
16249WAT     H248990   3.151   1.803   8.919
16250WAT      O48991   9.290   4.635   8.649
16250WAT     H148992   9.334   4.580   8.578
16250WAT     H248993   9.207   4.676   8.612
16251WAT      O48994   6.865   3.450   3.955
16251WAT     H148995   6.819   3.519   4.012
16251WAT     H248996   6.835   3.460   3.860
16252WAT      O48997   3.025   4.872   9.007
16252WAT     H148998   3.117   4.834   9.018
16252WAT     H248999   2.957   4.808   9.045
16253WAT      O49000   3.947   4.690   7.097
16253WAT     H149001   3.884   4.693   7.174
16253WAT     H249002   3.905   4.639   7.022
16254WAT      O49003   0.871   7.105   6.101
16254WAT     H149004   0.781   7.147   6.110
16254WAT     H249005   0.896   7.060   6.186
16255WAT      O49006   3.630   8.955   0.794
16255WAT     H149007   3.651   8.870   0.745
16255WAT     H249008   3.538   8.985   0.771
16256WAT      O49009   2.851   1.676   3.456
16256WAT     H149010   2.922   1.617   3.495
16256WAT     H249011   2.762   1.650   3.494
16257WAT      O49012   5.463   1.071   2.245
16257WAT     H149013   5.363   1.074   2.246
16257WAT     H249014   5.495   1.001   2.308
16258WAT      O49015   1.986   0.213   3.844
16258WAT     H149016   2.067   0.198   3.787
16258WAT     H249017   2.011   0.204   3.940
16259WAT      O49018   8.110   7.420   3.174
16259WAT     H149019   8.091   7.363   3.094
16259WAT     H249020   8.204   7.404   3.205
16260WAT      O49021   7.734   0.092   1.671
16260WAT     H149022   7.673   0.067   1.745
16260WAT     H249023   7.756   0.189   1.678
16261WAT      O49024   5.791   6.425   1.761
16261WAT     H149025   5.885   6.395   1.777
16261WAT     H249026   5.792   6.515   1.717
16262WAT      O49027   7.124   0.236   5.585
16262WAT     H149028   7.169   0.147   5.579
16262WAT     H249029   7.042   0.228   5.642
16263WAT      O49030   9.068   6.256   2.217
16263WAT     H149031   8.988   6.234   2.272
16263WAT     H249032   9.039   6.290   2.127
16264WAT      O49033   0.414   4.064   6.017
16264WAT     H149034   0.498   4.113   6.040
16264WAT     H249035   0.404   4.058   5.918
16265WAT      O49036   0.746   9.088   4.820
16265WAT     H149037   0.660   9.135   4.796
16265WAT     H249038   0.821   9.127   4.767
16266WAT      O49039   4.121   9.566   9.505
16266WAT     H149040   4.181   9.628   9.555
16266WAT     H249041   4.031   9.562   9.550
16267WAT      O49042   0.979   3.774   3.089
16267WAT     H149043   1.020   3.752   3.178
16267WAT     H249044   1.038   3.838   3.041
16268WAT      O49045   5.640   1.343   2.445
16268WAT     H149046   5.673   1.280   2.515
16268WAT     H249047   5.556   1.387   2.477
16269WAT      O49048   2.196   1.632   6.628
16269WAT     H149049   2.122   1.635   6.561
16269WAT     H249050   2.243   1.721   6.629
16270WAT      O49051   8.195   2.238   0.243
16270WAT     H149052   8.172   2.201   0.333
16270WAT     H249053   8.294   2.253   0.237
16271WAT      O49054   2.237   9.777   3.152
16271WAT     H149055   2.261   9.680   3.157
16271WAT     H249056   2.287   9.820   3.078
16272WAT      O49057   5.355   5.951   6.340
16272WAT     H149058   5.358   5.860   6.299
16272WAT     H249059   5.289   6.008   6.291
16273WAT      O49060   6.482   9.063   6.722
16273WAT     H149061   6.557   9.109   6.675
16273WAT     H249062   6.502   8.965   6.728
16274WAT      O49063   1.945   6.670   6.783
16274WAT     H149064   1.928   6.764   6.812
16274WAT     H249065   2.039   6.663   6.749
16275WAT      O49066   1.231   1.288   3.877
16275WAT     H149067   1.195   1.196   3.893
16275WAT     H249068   1.178   1.333   3.806
16276WAT      O49069   9.610   1.684   6.499
16276WAT     H149070   9.616   1.646   6.407
16276WAT     H249071   9.697   1.727   6.523
16277WAT      O49072   1.310   4.703   4.067
16277WAT     H149073   1.299   4.699   3.968
16277WAT     H249074   1.238   4.648   4.110
16278WAT      O49075   4.156   7.120   3.767
16278WAT     H149076   4.148   7.022   3.753
16278WAT     H249077   4.175   7.139   3.863
16279WAT      O49078   8.156   3.192   7.528
16279WAT     H149079   8.225   3.154   7.467
16279WAT     H249080   8.125   3.281   7.493
16280WAT      O49081   3.326   0.026   3.676
16280WAT     H149082   3.378  -0.027   3.609
16280WAT     H249083   3.265   0.089   3.628
16281WAT      O49084   3.223   3.251   8.252
16281WAT     H149085   3.284   3.326   8.280
16281WAT     H249086   3.275   3.167   8.243
16282WAT      O49087   1.734   3.721   4.740
16282WAT     H149088   1.642   3.714   4.701
16282WAT     H249089   1.784   3.636   4.721
16283WAT      O49090   2.149   2.592   2.289
16283WAT     H149091   2.206   2.543   2.355
16283WAT     H249092   2.057   2.605   2.327
16284WAT      O49093   2.486   3.621   6.749
16284WAT     H149094   2.510   3.558   6.822
16284WAT     H249095   2.485   3.715   6.785
16285WAT      O49096   7.932   7.371   2.181
16285WAT     H149097   7.906   7.467   2.181
16285WAT     H249098   7.862   7.318   2.132
16286WAT      O49099   5.440   3.306   8.003
16286WAT     H149100   5.373   3.286   8.075
16286WAT     H249101   5.448   3.227   7.942
16287WAT      O49102   5.703   3.942   4.029
16287WAT     H149103   5.784   3.952   4.087
16287WAT     H249104   5.656   4.030   4.021
16288WAT      O49105   7.817   8.772   4.775
16288WAT     H149106   7.801   8.802   4.869
16288WAT     H249107   7.737   8.722   4.742
16289WAT      O49108   2.837   1.776   0.157
16289WAT     H149109   2.918   1.728   0.191
16289WAT     H249110   2.798   1.831   0.231
16290WAT      O49111   2.544   4.803   7.785
16290WAT     H149112   2.496   4.876   7.735
16290WAT     H249113   2.582   4.841   7.869
16291WAT      O49114   6.590   1.745   2.646
16291WAT     H149115   6.519   1.679   2.622
16291WAT     H249116   6.572   1.780   2.738
16292WAT      O49117   3.233   1.001   9.486
16292WAT     H149118   3.274   0.967   9.401
16292WAT     H249119   3.150   0.949   9.506
16293WAT      O49120   0.635   0.969   9.113
16293WAT     H149121   0.612   1.063   9.089
16293WAT     H249122   0.717   0.968   9.171
16294WAT      O49123   3.879   7.571   3.900
16294WAT     H149124   3.836   7.553   3.989
16294WAT     H249125   3.976   7.590   3.913
16295WAT      O49126   7.748   6.713   4.932
16295WAT     H149127   7.785   6.650   5.000
16295WAT     H249128   7.824   6.764   4.890
16296WAT      O49129   0.511   7.907   6.522
16296WAT     H149130   0.460   7.985   6.558
16296WAT     H249131   0.549   7.931   6.432
16297WAT      O49132   1.021   4.639   4.370
16297WAT     H149133   1.095   4.682   4.422
16297WAT     H249134   1.008   4.545   4.402
16298WAT      O49135   7.922   4.929   5.200
16298WAT     H149136   7.874   4.919   5.287
16298WAT     H249137   7.919   5.024   5.171
16299WAT      O49138   7.516   1.168   8.113
16299WAT     H149139   7.495   1.151   8.016
16299WAT     H249140   7.605   1.129   8.135
16300WAT      O49141   4.907   3.456   4.948
16300WAT     H149142   4.902   3.361   4.978
16300WAT     H249143   4.815   3.494   4.942
16301WAT      O49144   1.260   2.248   4.116
16301WAT     H149145   1.305   2.195   4.044
16301WAT     H249146   1.165   2.219   4.124
16302WAT      O49147   5.199   0.319   3.690
16302WAT     H149148   5.118   0.334   3.634
16302WAT     H249149   5.200   0.223   3.721
16303WAT      O49150   8.499   7.822   4.003
16303WAT     H149151   8.483   7.917   3.977
16303WAT     H249152   8.437   7.797   4.078
16304WAT      O49153   0.569   6.799   3.123
16304WAT     H149154   0.663   6.827   3.145
16304WAT     H249155   0.571   6.716   3.067
16305WAT      O49156   2.233   0.641   5.515
16305WAT     H149157   2.166   0.590   5.569
16305WAT     H249158   2.309   0.580   5.491
16306WAT      O49159   8.581   9.141   2.567
16306WAT     H149160   8.647   9.133   2.493
16306WAT     H249161   8.595   9.068   2.634
16307WAT      O49162   0.721   9.020   6.082
16307WAT     H149163   0.724   9.120   6.078
16307WAT     H249164   0.646   8.991   6.142
16308WAT      O49165   8.159   9.747   5.588
16308WAT     H149166   8.198   9.705   5.670
16308WAT     H249167   8.194   9.840   5.578
16309WAT      O49168   5.659   6.430   2.299
16309WAT     H149169   5.627   6.525   2.298
16309WAT     H249170   5.740   6.421   2.240
16310WAT      O49171   1.126   7.166   6.125
16310WAT     H149172   1.028   7.158   6.110
16310WAT     H249173   1.144   7.194   6.220
16311WAT      O49174   2.553   7.494   7.734
16311WAT     H149175   2.623   7.508   7.804
16311WAT     H249176   2.504   7.580   7.719
16312WAT      O49177   4.970   2.533   7.386
16312WAT     H149178   4.994   2.565   7.477
16312WAT     H249179   5.050   2.491   7.343
16313WAT      O49180   5.362   7.015   6.891
16313WAT     H149181   5.435   6.977   6.947
16313WAT     H249182   5.309   6.941   6.851
16314WAT      O49183   2.513   1.013   7.172
16314WAT     H149184   2.546   0.943   7.235
16314WAT     H249185   2.491   1.096   7.224
16315WAT      O49186   2.952   2.053   1.239
16315WAT     H149187   2.958   2.026   1.335
16315WAT     H249188   2.918   1.976   1.185
16316WAT      O49189   7.730   9.191   4.881
16316WAT     H149190   7.654   9.168   4.821
16316WAT     H249191   7.756   9.287   4.867
16317WAT      O49192   8.289   7.683   3.410
16317WAT     H149193   8.265   7.704   3.315
16317WAT     H249194   8.343   7.758   3.448
16318WAT      O49195   0.222   6.679   1.631
16318WAT     H149196   0.308   6.704   1.675
16318WAT     H249197   0.149   6.739   1.665
16319WAT      O49198   9.881   5.264   0.998
16319WAT     H149199   9.947   5.234   0.929
16319WAT     H249200   9.879   5.199   1.074
16320WAT      O49201   1.800   8.429   4.181
16320WAT     H149202   1.826   8.525   4.192
16320WAT     H249203   1.821   8.378   4.264
16321WAT      O49204   6.882   5.049   7.741
16321WAT     H149205   6.875   4.961   7.787
16321WAT     H249206   6.921   5.036   7.649
16322WAT      O49207   2.080   9.198   9.742
16322WAT     H149208   1.990   9.165   9.713
16322WAT     H249209   2.069   9.260   9.819
16323WAT      O49210   8.649   5.957   8.873
16323WAT     H149211   8.632   6.050   8.841
16323WAT     H249212   8.562   5.914   8.898
16324WAT      O49213   3.434   1.286   9.602
16324WAT     H149214   3.353   1.329   9.644
16324WAT     H249215   3.419   1.277   9.504
16325WAT      O49216   5.367   5.007   5.657
16325WAT     H149217   5.280   5.052   5.678
16325WAT     H249218   5.370   4.918   5.701
16326WAT      O49219   0.277   4.633   0.780
16326WAT     H149220   0.328   4.580   0.712
16326WAT     H249221   0.330   4.638   0.864
16327WAT      O49222   8.793   4.624   9.374
16327WAT     H149223   8.795   4.531   9.411
16327WAT     H249224   8.703   4.644   9.337
16328WAT      O49225   1.398   3.477   0.609
16328WAT     H149226   1.354   3.451   0.523
16328WAT     H249227   1.478   3.420   0.624
16329WAT      O49228   8.770   7.739   4.411
16329WAT     H149229   8.760   7.839   4.415
16329WAT     H249230   8.719   7.697   4.486
16330WAT      O49231   4.085   9.110   3.232
16330WAT     H149232   4.090   9.116   3.331
16330WAT     H249233   4.095   9.202   3.192
16331WAT      O49234   5.354   2.847   3.556
16331WAT     H149235   5.396   2.761   3.584
16331WAT     H249236   5.406   2.887   3.480
16332WAT      O49237   5.246   0.669   6.249
16332WAT     H149238   5.268   0.720   6.166
16332WAT     H249239   5.148   0.650   6.252
16333WAT      O49240   7.252   5.000   6.056
16333WAT     H149241   7.295   4.962   6.138
16333WAT     H249242   7.300   4.967   5.975
16334WAT      O49243   7.549   3.791   4.942
16334WAT     H149244   7.535   3.890   4.940
16334WAT     H249245   7.643   3.772   4.970
16335WAT      O49246   5.373   2.270   0.189
16335WAT     H149247   5.370   2.206   0.265
16335WAT     H249248   5.422   2.353   0.217
16336WAT      O49249   5.098   0.584   9.790
16336WAT     H149250   5.023   0.529   9.753
16336WAT     H249251   5.085   0.596   9.888
16337WAT      O49252   3.510   5.012   9.656
16337WAT     H149253   3.472   5.073   9.725
16337WAT     H249254   3.447   5.006   9.578
16338WAT      O49255   6.229   7.143   8.239
16338WAT     H149256   6.211   7.233   8.200
16338WAT     H249257   6.142   7.095   8.253
16339WAT      O49258   5.420   2.513   0.731
16339WAT     H149259   5.369   2.561   0.660
16339WAT     H249260   5.492   2.458   0.689
16340WAT      O49261   3.946   6.969   4.542
16340WAT     H149262   4.037   6.994   4.511
16340WAT     H249263   3.953   6.921   4.630
16341WAT      O49264   5.168   4.859   1.494
16341WAT     H149265   5.151   4.773   1.446
16341WAT     H249266   5.128   4.854   1.586
16342WAT      O49267   4.275   6.935   3.044
16342WAT     H149268   4.330   7.019   3.049
16342WAT     H249269   4.220   6.927   3.128
16343WAT      O49270   8.445   7.878   3.517
16343WAT     H149271   8.420   7.956   3.575
16343WAT     H249272   8.538   7.850   3.537
16344WAT      O49273   7.798   3.331   9.147
16344WAT     H149274   7.745   3.307   9.228
16344WAT     H249275   7.839   3.248   9.108
16345WAT      O49276   5.017   1.795   3.237
16345WAT     H149277   4.972   1.708   3.258
16345WAT     H249278   5.110   1.794   3.274
16346WAT      O49279   1.093   8.427   4.383
16346WAT     H149280   1.175   8.448   4.331
16346WAT     H249281   1.024   8.497   4.366
16347WAT      O49282   3.145   5.013   7.989
16347WAT     H149283   3.204   4.977   8.061
16347WAT     H249284   3.074   4.946   7.968
16348WAT      O49285   7.381   1.228   6.443
16348WAT     H149286   7.330   1.163   6.387
16348WAT     H249287   7.318   1.294   6.483
16349WAT      O49288   8.135   1.403   9.524
16349WAT     H149289   8.056   1.362   9.477
16349WAT     H249290   8.191   1.330   9.564
16350WAT      O49291   2.710   3.470   1.883
16350WAT     H149292   2.787   3.412   1.856
16350WAT     H249293   2.675   3.518   1.802
16351WAT      O49294   8.855   1.569   1.215
16351WAT     H149295   8.901   1.637   1.272
16351WAT     H249296   8.757   1.588   1.213
16352WAT      O49297   2.630   6.264   4.331
16352WAT     H149298   2.701   6.238   4.397
16352WAT     H249299   2.667   6.330   4.267
16353WAT      O49300   0.359   1.630   6.001
16353WAT     H149301   0.315   1.643   5.913
16353WAT     H249302   0.316   1.552   6.048
16354WAT      O49303   4.497   4.839   1.503
16354WAT     H149304   4.549   4.911   1.549
16354WAT     H249305   4.457   4.875   1.419
16355WAT      O49306   3.060   3.109   2.205
16355WAT     H149307   3.020   3.018   2.207
16355WAT     H249308   2.991   3.177   2.228
16356WAT      O49309   3.280   2.782   8.343
16356WAT     H149310   3.302   2.691   8.308
16356WAT     H249311   3.216   2.774   8.419
16357WAT      O49312   9.729   4.953   6.567
16357WAT     H149313   9.759   5.004   6.485
16357WAT     H249314   9.809   4.925   6.619
16358WAT      O49315   0.412   4.206   3.436
16358WAT     H149316   0.384   4.167   3.348
16358WAT     H249317   0.331   4.233   3.487
16359WAT      O49318   8.664   4.550   1.494
16359WAT     H149319   8.694   4.576   1.403
16359WAT     H249320   8.684   4.453   1.509
16360WAT      O49321   1.064   3.643   0.658
16360WAT     H149322   0.973   3.682   0.640
16360WAT     H249323   1.056   3.571   0.727
16361WAT      O49324   6.452   6.590   1.793
16361WAT     H149325   6.437   6.688   1.787
16361WAT     H249326   6.514   6.562   1.720
16362WAT      O49327   1.886   9.060   0.311
16362WAT     H149328   1.789   9.070   0.334
16362WAT     H249329   1.937   9.033   0.393
16363WAT      O49330   0.607   7.701   5.577
16363WAT     H149331   0.543   7.748   5.638
16363WAT     H249332   0.679   7.765   5.549
16364WAT      O49333   6.686   1.594   8.904
16364WAT     H149334   6.662   1.499   8.928
16364WAT     H249335   6.622   1.656   8.948
16365WAT      O49336   6.066   3.216   5.262
16365WAT     H149337   6.093   3.191   5.355
16365WAT     H249338   6.002   3.148   5.227
16366WAT      O49339   7.088   2.079   3.263
16366WAT     H149340   7.104   1.985   3.232
16366WAT     H249341   7.167   2.135   3.241
16367WAT      O49342   6.444   9.842   5.173
16367WAT     H149343   6.495   9.818   5.091
16367WAT     H249344   6.439   9.762   5.234
16368WAT      O49345   9.199   2.135   3.223
16368WAT     H149346   9.209   2.043   3.185
16368WAT     H249347   9.272   2.152   3.289
16369WAT      O49348   8.699   6.827   3.588
16369WAT     H149349   8.712   6.838   3.489
16369WAT     H249350   8.755   6.751   3.621
16370WAT      O49351   1.579   3.578   5.781
16370WAT     H149352   1.574   3.531   5.693
16370WAT     H249353   1.513   3.652   5.784
16371WAT      O49354   6.636   4.483   1.086
16371WAT     H149355   6.678   4.439   1.166
16371WAT     H249356   6.630   4.416   1.012
16372WAT      O49357   8.183   2.242   4.907
16372WAT     H149358   8.083   2.230   4.908
16372WAT     H249359   8.214   2.264   5.000
16373WAT      O49360   0.645   5.982   0.219
16373WAT     H149361   0.630   6.079   0.201
16373WAT     H249362   0.598   5.927   0.149
16374WAT      O49363   3.204   8.420   7.587
16374WAT     H149364   3.141   8.349   7.553
16374WAT     H249365   3.247   8.465   7.509
16375WAT      O49366   6.700   5.296   4.262
16375WAT     H149367   6.638   5.349   4.319
16375WAT     H249368   6.779   5.351   4.238
16376WAT      O49369   1.483   7.413   0.847
16376WAT     H149370   1.482   7.498   0.898
16376WAT     H249371   1.558   7.355   0.881
16377WAT      O49372   7.903   7.691   6.210
16377WAT     H149373   7.992   7.720   6.173
16377WAT     H249374   7.865   7.619   6.152
16378WAT      O49375   7.937   4.702   3.028
16378WAT     H149376   7.988   4.618   3.010
16378WAT     H249377   7.976   4.777   2.974
16379WAT      O49378   7.970   3.257   9.820
16379WAT     H149379   7.953   3.204   9.903
16379WAT     H249380   8.068   3.277   9.814
16380WAT      O49381   0.637   2.491   4.643
16380WAT     H149382   0.623   2.558   4.716
16380WAT     H249383   0.693   2.532   4.571
16381WAT      O49384   9.430   3.938   0.754
16381WAT     H149385   9.349   3.955   0.697
16381WAT     H249386   9.454   3.841   0.751
16382WAT      O49387   5.341   0.654   4.111
16382WAT     H149388   5.342   0.707   4.027
16382WAT     H249389   5.267   0.587   4.108
16383WAT      O49390   0.066   0.448   3.270
16383WAT     H149391   0.111   0.368   3.232
16383WAT     H249392   0.041   0.430   3.366
16384WAT      O49393   7.295   3.326   1.534
16384WAT     H149394   7.214   3.294   1.584
16384WAT     H249395   7.375   3.320   1.593
16385WAT      O49396   3.969   2.548   4.132
16385WAT     H149397   4.024   2.495   4.197
16385WAT     H249398   3.885   2.498   4.112
16386WAT      O49399   1.841   1.296   2.444
16386WAT     H149400   1.857   1.199   2.464
16386WAT     H249401   1.813   1.307   2.349
16387WAT      O49402   4.947   1.629   7.065
16387WAT     H149403   4.979   1.537   7.044
16387WAT     H249404   4.985   1.659   7.152
16388WAT      O49405   4.074   3.700   1.070
16388WAT     H149406   4.035   3.749   1.148
16388WAT     H249407   4.016   3.713   0.990
16389WAT      O49408   7.668   9.228   5.465
16389WAT     H149409   7.664   9.328   5.465
16389WAT     H249410   7.591   9.192   5.412
16390WAT      O49411   2.799   4.949   2.927
16390WAT     H149412   2.727   4.932   2.995
16390WAT     H249413   2.864   4.873   2.928
16391WAT      O49414   0.344   8.276   7.079
16391WAT     H149415   0.405   8.256   7.002
16391WAT     H249416   0.302   8.192   7.111
16392WAT      O49417   0.248   5.637   5.362
16392WAT     H149418   0.232   5.680   5.451
16392WAT     H249419   0.213   5.543   5.364
16393WAT      O49420   0.273   8.987   7.842
16393WAT     H149421   0.240   9.075   7.808
16393WAT     H249422   0.255   8.980   7.940
16394WAT      O49423   6.238   5.077   0.329
16394WAT     H149424   6.168   5.027   0.380
16394WAT     H249425   6.257   5.164   0.375
16395WAT      O49426   9.384   2.872   3.967
16395WAT     H149427   9.372   2.972   3.965
16395WAT     H249428   9.295   2.828   3.974
16396WAT      O49429   2.167   0.837   3.744
16396WAT     H149430   2.152   0.808   3.649
16396WAT     H249431   2.265   0.847   3.761
16397WAT      O49432   3.229   3.155   3.536
16397WAT     H149433   3.317   3.110   3.518
16397WAT     H249434   3.240   3.254   3.528
16398WAT      O49435   7.865   0.305   0.214
16398WAT     H149436   7.906   0.322   0.304
16398WAT     H249437   7.800   0.229   0.221
16399WAT      O49438   3.936   1.420   5.149
16399WAT     H149439   4.019   1.460   5.188
16399WAT     H249440   3.958   1.376   5.062
16400WAT      O49441   1.584   2.904   1.109
16400WAT     H149442   1.644   2.831   1.141
16400WAT     H249443   1.538   2.876   1.025
16401WAT      O49444   7.523   8.475   6.380
16401WAT     H149445   7.427   8.463   6.406
16401WAT     H249446   7.559   8.388   6.347
16402WAT      O49447   8.573   3.996   7.657
16402WAT     H149448   8.561   3.909   7.609
16402WAT     H249449   8.666   4.030   7.641
16403WAT      O49450   3.456   4.288   7.941
16403WAT     H149451   3.423   4.359   8.003
16403WAT     H249452   3.438   4.315   7.847
16404WAT      O49453   8.663   3.241   5.063
16404WAT     H149454   8.608   3.314   5.022
16404WAT     H249455   8.602   3.175   5.106
16405WAT      O49456   7.153   1.237   6.184
16405WAT     H149457   7.096   1.179   6.127
16405WAT     H249458   7.107   1.325   6.199
16406WAT      O49459   7.317   0.414   5.619
16406WAT     H149460   7.243   0.346   5.618
16406WAT     H249461   7.398   0.374   5.662
16407WAT      O49462   8.321   3.024   6.906
16407WAT     H149463   8.286   3.056   6.818
16407WAT     H249464   8.277   3.074   6.980
16408WAT      O49465   9.814   5.923   4.056
16408WAT     H149466   9.793   5.871   4.139
16408WAT     H249467   9.899   5.889   4.017
16409WAT      O49468   9.486   5.998   2.754
16409WAT     H149469   9.554   5.924   2.763
16409WAT     H249470   9.401   5.961   2.719
16410WAT      O49471   3.564   9.069   2.669
16410WAT     H149472   3.634   9.009   2.708
16410WAT     H249473   3.600   9.113   2.586
16411WAT      O49474   2.297   9.145   0.913
16411WAT     H149475   2.306   9.046   0.905
16411WAT     H249476   2.375   9.190   0.868
16412WAT      O49477   6.909   3.246   4.969
16412WAT     H149478   6.825   3.193   4.956
16412WAT     H249479   6.981   3.208   4.912
16413WAT      O49480   5.636   9.479   2.834
16413WAT     H149481   5.564   9.410   2.831
16413WAT     H249482   5.694   9.471   2.753
16414WAT      O49483   8.375   1.788   1.280
16414WAT     H149484   8.355   1.886   1.275
16414WAT     H249485   8.320   1.746   1.351
16415WAT      O49486   7.792   7.899   5.608
16415WAT     H149487   7.846   7.882   5.690
16415WAT     H249488   7.852   7.924   5.532
16416WAT      O49489   5.467   3.532   7.871
16416WAT     H149490   5.447   3.450   7.925
16416WAT     H249491   5.552   3.517   7.819
16417WAT      O49492   3.507   1.623   2.410
16417WAT     H149493   3.543   1.678   2.335
16417WAT     H249494   3.420   1.581   2.382
16418WAT      O49495   8.399   9.383   8.290
16418WAT     H149496   8.328   9.323   8.329
16418WAT     H249497   8.476   9.388   8.353
16419WAT      O49498   7.065   1.324   8.141
16419WAT     H149499   7.009   1.241   8.137
16419WAT     H249500   7.007   1.404   8.127
16420WAT      O49501   4.807   5.728   4.756
16420WAT     H149502   4.743   5.803   4.740
16420WAT     H249503   4.852   5.741   4.845
16421WAT      O49504   5.498   5.358   5.451
16421WAT     H149505   5.515   5.259   5.448
16421WAT     H249506   5.574   5.403   5.498
16422WAT      O49507   6.164   4.360   0.990
16422WAT     H149508   6.085   4.404   1.033
16422WAT     H249509   6.137   4.323   0.901
16423WAT      O49510   8.171   7.050   2.064
16423WAT     H149511   8.247   6.991   2.038
16423WAT     H249512   8.105   6.997   2.118
16424WAT      O49513   2.052   7.490   3.369
16424WAT     H149514   2.140   7.504   3.323
16424WAT     H249515   1.996   7.572   3.357
16425WAT      O49516   3.757   7.235   5.694
16425WAT     H149517   3.831   7.274   5.641
16425WAT     H249518   3.688   7.195   5.633
16426WAT      O49519   7.234   7.985   4.706
16426WAT     H149520   7.209   8.050   4.777
16426WAT     H249521   7.333   7.988   4.691
16427WAT      O49522   8.235   3.568   3.898
16427WAT     H149523   8.140   3.600   3.895
16427WAT     H249524   8.272   3.564   3.805
16428WAT      O49525   7.810   6.187   3.758
16428WAT     H149526   7.762   6.162   3.843
16428WAT     H249527   7.855   6.276   3.771
16429WAT      O49528   4.072   0.851   3.041
16429WAT     H149529   4.035   0.938   3.072
16429WAT     H249530   4.104   0.798   3.119
16430WAT      O49531   5.627   0.878   2.971
16430WAT     H149532   5.562   0.949   2.995
16430WAT     H249533   5.637   0.815   3.048
16431WAT      O49534   8.061   1.320   8.713
16431WAT     H149535   8.093   1.225   8.718
16431WAT     H249536   8.027   1.339   8.621
16432WAT      O49537   3.762   1.370   9.888
16432WAT     H149538   3.674   1.418   9.902
16432WAT     H249539   3.746   1.286   9.837
16433WAT      O49540   6.183   1.985   5.684
16433WAT     H149541   6.102   1.927   5.679
16433WAT     H249542   6.228   1.987   5.595
16434WAT      O49543   4.363   4.844   7.149
16434WAT     H149544   4.346   4.746   7.146
16434WAT     H249545   4.445   4.862   7.204
16435WAT      O49546   8.927   5.138   7.262
16435WAT     H149547   8.841   5.186   7.275
16435WAT     H249548   8.981   5.184   7.191
16436WAT      O49549   0.577   9.495   5.140
16436WAT     H149550   0.521   9.506   5.223
16436WAT     H249551   0.658   9.441   5.162
16437WAT      O49552   2.675   4.080   1.339
16437WAT     H149553   2.735   4.137   1.395
16437WAT     H249554   2.729   4.037   1.266
16438WAT      O49555   7.434   7.207   5.521
16438WAT     H149556   7.379   7.235   5.442
16438WAT     H249557   7.530   7.199   5.494
16439WAT      O49558   6.432   8.656   6.138
16439WAT     H149559   6.360   8.726   6.142
16439WAT     H249560   6.472   8.656   6.046
16440WAT      O49561   5.338   1.883   8.456
16440WAT     H149562   5.326   1.829   8.373
16440WAT     H249563   5.257   1.874   8.514
16441WAT      O49564   5.674   5.543   4.134
16441WAT     H149565   5.673   5.555   4.234
16441WAT     H249566   5.763   5.571   4.099
16442WAT      O49567   1.205   1.477   9.617
16442WAT     H149568   1.140   1.525   9.558
16442WAT     H249569   1.247   1.543   9.680
16443WAT      O49570   5.054   1.237   2.507
16443WAT     H149571   5.087   1.318   2.459
16443WAT     H249572   4.954   1.237   2.508
16444WAT      O49573   1.008   4.881   8.532
16444WAT     H149574   0.962   4.964   8.564
16444WAT     H249575   0.942   4.805   8.529
16445WAT      O49576   6.109   7.482   4.141
16445WAT     H149577   6.111   7.524   4.050
16445WAT     H249578   6.029   7.514   4.192
16446WAT      O49579   2.227   7.520   5.756
16446WAT     H149580   2.174   7.537   5.673
16446WAT     H249581   2.251   7.607   5.799
16447WAT      O49582   9.266   5.286   3.428
16447WAT     H149583   9.364   5.285   3.410
16447WAT     H249584   9.237   5.380   3.450
16448WAT      O49585   5.841   9.020   5.654
16448WAT     H149586   5.824   9.118   5.650
16448WAT     H249587   5.939   9.003   5.650
16449WAT      O49588   9.072   0.666   3.928
16449WAT     H149589   9.101   0.762   3.931
16449WAT     H249590   9.131   0.611   3.987
16450WAT      O49591   7.726   3.439   5.366
16450WAT     H149592   7.730   3.372   5.293
16450WAT     H249593   7.804   3.426   5.428
16451WAT      O49594   5.478   4.625   3.740
16451WAT     H149595   5.493   4.627   3.641
16451WAT     H249596   5.383   4.649   3.760
16452WAT      O49597   7.698   3.731   9.411
16452WAT     H149598   7.713   3.696   9.503
16452WAT     H249599   7.765   3.690   9.349
16453WAT      O49600   1.224   0.838   5.026
16453WAT     H149601   1.271   0.823   5.112
16453WAT     H249602   1.139   0.786   5.025
16454WAT      O49603   2.119   8.044   7.559
16454WAT     H149604   2.177   8.102   7.502
16454WAT     H249605   2.047   8.004   7.503
16455WAT      O49606   2.167   9.463   2.408
16455WAT     H149607   2.184   9.498   2.316
16455WAT     H249608   2.226   9.511   2.473
16456WAT      O49609   5.035   9.641   0.706
16456WAT     H149610   5.091   9.678   0.632
16456WAT     H249611   4.991   9.556   0.675
16457WAT      O49612   0.182   4.415   3.112
16457WAT     H149613   0.240   4.441   3.190
16457WAT     H249614   0.121   4.340   3.139
16458WAT      O49615   7.301   5.518   2.687
16458WAT     H149616   7.377   5.455   2.672
16458WAT     H249617   7.249   5.488   2.767
16459WAT      O49618   0.692   8.050   9.843
16459WAT     H149619   0.748   7.971   9.818
16459WAT     H249620   0.699   8.066   9.942
16460WAT      O49621   1.117   1.991   3.830
16460WAT     H149622   1.057   1.916   3.857
16460WAT     H249623   1.072   2.046   3.759
16461WAT      O49624   3.845   7.447   2.552
16461WAT     H149625   3.755   7.476   2.520
16461WAT     H249626   3.855   7.348   2.542
16462WAT      O49627   8.806   6.820   2.684
16462WAT     H149628   8.804   6.801   2.585
16462WAT     H249629   8.879   6.766   2.726
16463WAT      O49630   7.089   6.034   6.787
16463WAT     H149631   7.110   5.987   6.873
16463WAT     H249632   7.005   5.996   6.749
16464WAT      O49633   0.472   0.955   1.252
16464WAT     H149634   0.569   0.936   1.238
16464WAT     H249635   0.456   1.054   1.253
16465WAT      O49636   8.027   0.788   6.754
16465WAT     H149637   8.030   0.697   6.713
16465WAT     H249638   7.983   0.852   6.691
16466WAT      O49639   3.220   6.734   8.563
16466WAT     H149640   3.301   6.676   8.568
16466WAT     H249641   3.143   6.687   8.605
16467WAT      O49642   0.520   1.698   6.784
16467WAT     H149643   0.569   1.615   6.811
16467WAT     H249644   0.455   1.677   6.711
16468WAT      O49645   6.858   3.632   5.469
16468WAT     H149646   6.910   3.553   5.499
16468WAT     H249647   6.799   3.663   5.544
16469WAT      O49648   6.268   0.003   8.949
16469WAT     H149649   6.228  -0.051   8.875
16469WAT     H249650   6.219   0.089   8.958
16470WAT      O49651   4.177   2.763   3.019
16470WAT     H149652   4.191   2.805   3.108
16470WAT     H249653   4.095   2.801   2.976
16471WAT      O49654   7.350   0.301   7.750
16471WAT     H149655   7.257   0.303   7.787
16471WAT     H249656   7.403   0.231   7.796
16472WAT      O49657   4.714   1.743   4.781
16472WAT     H149658   4.742   1.715   4.873
16472WAT     H249659   4.628   1.698   4.757
16473WAT      O49660   5.368   0.308   9.187
16473WAT     H149661   5.415   0.283   9.272
16473WAT     H249662   5.313   0.231   9.156
16474WAT      O49663   8.795   1.554   9.068
16474WAT     H149664   8.876   1.569   9.011
16474WAT     H249665   8.818   1.493   9.144
16475WAT      O49666   6.791   5.333   0.489
16475WAT     H149667   6.842   5.411   0.454
16475WAT     H249668   6.855   5.262   0.519
16476WAT      O49669   3.717   3.985   8.151
16476WAT     H149670   3.805   4.025   8.173
16476WAT     H249671   3.723   3.934   8.065
16477WAT      O49672   6.012   5.856   9.739
16477WAT     H149673   6.096   5.898   9.705
16477WAT     H249674   5.938   5.872   9.673
16478WAT      O49675   1.907   7.867   2.677
16478WAT     H149676   1.827   7.831   2.726
16478WAT     H249677   1.913   7.823   2.587
16479WAT      O49678   6.440   8.101   9.306
16479WAT     H149679   6.378   8.103   9.227
16479WAT     H249680   6.524   8.052   9.281
16480WAT      O49681   0.281   3.700   3.078
16480WAT     H149682   0.320   3.674   2.989
16480WAT     H249683   0.187   3.666   3.084
16481WAT      O49684   4.936   8.846   7.017
16481WAT     H149685   4.913   8.789   6.937
16481WAT     H249686   5.026   8.820   7.051
16482WAT      O49687   9.051   3.764   6.751
16482WAT     H149688   9.063   3.839   6.686
16482WAT     H249689   9.137   3.748   6.800
16483WAT      O49690   3.801   9.080   3.373
16483WAT     H149691   3.745   9.153   3.336
16483WAT     H249692   3.876   9.059   3.310
16484WAT      O49693   8.549   3.964   0.444
16484WAT     H149694   8.645   3.986   0.430
16484WAT     H249695   8.493   4.045   0.425
16485WAT      O49696   3.476   8.124   0.308
16485WAT     H149697   3.554   8.133   0.247
16485WAT     H249698   3.472   8.032   0.346
16486WAT      O49699   7.252   4.517   6.829
16486WAT     H149700   7.221   4.608   6.858
16486WAT     H249701   7.349   4.507   6.849
16487WAT      O49702   8.485   8.771   7.974
16487WAT     H149703   8.422   8.848   7.964
16487WAT     H249704   8.579   8.805   7.965
16488WAT      O49705   6.109   7.775   0.896
16488WAT     H149706   6.120   7.728   0.984
16488WAT     H249707   6.189   7.757   0.839
16489WAT      O49708   1.561   2.707   0.135
16489WAT     H149709   1.532   2.654   0.055
16489WAT     H249710   1.564   2.804   0.110
16490WAT      O49711   7.327   8.387   4.879
16490WAT     H149712   7.323   8.383   4.979
16490WAT     H249713   7.407   8.336   4.847
16491WAT      O49714   4.048   8.200   8.932
16491WAT     H149715   4.137   8.202   8.887
16491WAT     H249716   4.028   8.107   8.963
16492WAT      O49717   6.582   8.293   3.723
16492WAT     H149718   6.671   8.256   3.695
16492WAT     H249719   6.529   8.315   3.641
16493WAT      O49720   2.812   1.232   8.879
16493WAT     H149721   2.848   1.140   8.862
16493WAT     H249722   2.719   1.239   8.841
16494WAT      O49723   6.711   2.730   7.945
16494WAT     H149724   6.680   2.789   7.870
16494WAT     H249725   6.637   2.667   7.970
16495WAT      O49726   1.676   9.676   7.298
16495WAT     H149727   1.700   9.626   7.215
16495WAT     H249728   1.696   9.619   7.378
16496WAT      O49729   9.622   1.663   6.201
16496WAT     H149730   9.715   1.691   6.226
16496WAT     H249731   9.603   1.691   6.107
16497WAT      O49732   3.693   8.597   0.953
16497WAT     H149733   3.757   8.523   0.974
16497WAT     H249734   3.697   8.666   1.025
16498WAT      O49735   0.276   0.087   3.896
16498WAT     H149736   0.288   0.170   3.951
16498WAT     H249737   0.335   0.090   3.816
16499WAT      O49738   6.958   7.339   8.924
16499WAT     H149739   6.897   7.405   8.968
16499WAT     H249740   7.022   7.388   8.864
16500WAT      O49741   9.496   0.970   5.484
16500WAT     H149742   9.397   0.965   5.467
16500WAT     H249743   9.541   1.010   5.404
16501WAT      O49744   5.276   9.340   9.019
16501WAT     H149745   5.335   9.308   9.093
16501WAT     H249746   5.222   9.418   9.050
16502WAT      O49747   8.530   0.718   6.544
16502WAT     H149748   8.569   0.645   6.600
16502WAT     H249749   8.497   0.679   6.457
16503WAT      O49750   7.388   2.195   6.339
16503WAT     H149751   7.409   2.145   6.423
16503WAT     H249752   7.356   2.131   6.269
16504WAT      O49753   3.024   9.063   3.659
16504WAT     H149754   2.963   9.134   3.623
16504WAT     H249755   2.973   8.978   3.668
16505WAT      O49756   3.968   1.033   8.691
16505WAT     H149757   3.986   1.072   8.781
16505WAT     H249758   4.052   0.992   8.655
16506WAT      O49759   9.364   7.086   9.746
16506WAT     H149760   9.321   7.095   9.836
16506WAT     H249761   9.293   7.078   9.676
16507WAT      O49762   2.769   7.378   3.407
16507WAT     H149763   2.780   7.474   3.381
16507WAT     H249764   2.802   7.364   3.501
16508WAT      O49765   5.541   3.817   3.526
16508WAT     H149766   5.481   3.739   3.510
16508WAT     H249767   5.582   3.809   3.617
16509WAT      O49768   6.408   7.314   3.384
16509WAT     H149769   6.338   7.385   3.397
16509WAT     H249770   6.464   7.337   3.304
16510WAT      O49771   6.285   9.447   5.486
16510WAT     H149772   6.252   9.431   5.579
16510WAT     H249773   6.207   9.453   5.424
16511WAT      O49774   6.183   5.276   8.948
16511WAT     H149775   6.118   5.304   9.019
16511WAT     H249776   6.163   5.181   8.921
16512WAT      O49777   5.635   7.461   1.650
16512WAT     H149778   5.663   7.389   1.587
16512WAT     H249779   5.536   7.474   1.645
16513WAT      O49780   6.507   8.022   8.661
16513WAT     H149781   6.494   7.962   8.740
16513WAT     H249782   6.556   7.972   8.589
16514WAT      O49783   7.142   3.618   1.846
16514WAT     H149784   7.206   3.620   1.769
16514WAT     H249785   7.162   3.692   1.909
16515WAT      O49786   6.781   2.022   7.040
16515WAT     H149787   6.872   2.043   7.076
16515WAT     H249788   6.771   2.061   6.949
16516WAT      O49789   7.080   1.207   1.088
16516WAT     H149790   7.090   1.272   1.164
16516WAT     H249791   6.994   1.225   1.040
16517WAT      O49792   7.144   0.101   0.211
16517WAT     H149793   7.203   0.090   0.131
16517WAT     H249794   7.196   0.082   0.294
16518WAT      O49795   6.974   2.467   4.549
16518WAT     H149796   6.919   2.547   4.523
16518WAT     H249797   6.928   2.384   4.518
16519WAT      O49798   0.929   0.729   1.907
16519WAT     H149799   1.020   0.736   1.947
16519WAT     H249800   0.872   0.669   1.964
16520WAT      O49801   2.815   1.710   7.390
16520WAT     H149802   2.764   1.626   7.374
16520WAT     H249803   2.796   1.775   7.317
16521WAT      O49804   5.092   0.876   0.727
16521WAT     H149805   5.062   0.787   0.761
16521WAT     H249806   5.039   0.900   0.646
16522WAT      O49807   5.619   0.265   4.219
16522WAT     H149808   5.615   0.365   4.209
16522WAT     H249809   5.573   0.239   4.304
16523WAT      O49810   8.980   1.530   8.336
16523WAT     H149811   9.020   1.558   8.249
16523WAT     H249812   8.884   1.506   8.322
16524WAT      O49813   7.609   7.498   4.366
16524WAT     H149814   7.535   7.551   4.407
16524WAT     H249815   7.640   7.543   4.282
16525WAT      O49816   4.155   2.039   3.409
16525WAT     H149817   4.144   1.945   3.442
16525WAT     H249818   4.184   2.097   3.485
16526WAT      O49819   8.914   8.714   4.907
16526WAT     H149820   8.959   8.711   4.996
16526WAT     H249821   8.930   8.627   4.859
16527WAT      O49822   9.810   0.040   0.837
16527WAT     H149823   9.773  -0.000   0.920
16527WAT     H249824   9.807   0.140   0.844
16528WAT      O49825   3.816   4.415   1.093
16528WAT     H149826   3.754   4.483   1.053
16528WAT     H249827   3.898   4.461   1.126
16529WAT      O49828   8.338   1.582   0.277
16529WAT     H149829   8.354   1.680   0.290
16529WAT     H249830   8.379   1.531   0.352
16530WAT      O49831   9.183   7.609   5.392
16530WAT     H149832   9.127   7.555   5.330
16530WAT     H249833   9.279   7.604   5.363
16531WAT      O49834   3.768   4.792   6.762
16531WAT     H149835   3.835   4.724   6.792
16531WAT     H249836   3.715   4.755   6.685
16532WAT      O49837   2.767   3.043   8.824
16532WAT     H149838   2.821   3.001   8.751
16532WAT     H249839   2.818   3.037   8.910
16533WAT      O49840   2.371   7.384   2.620
16533WAT     H149841   2.455   7.437   2.632
16533WAT     H249842   2.320   7.383   2.706
16534WAT      O49843   7.049   3.649   7.831
16534WAT     H149844   7.040   3.562   7.783
16534WAT     H249845   7.143   3.683   7.821
16535WAT      O49846   5.059   2.608   7.626
16535WAT     H149847   5.008   2.544   7.684
16535WAT     H249848   5.154   2.614   7.657
16536WAT      O49849   8.502   7.191   8.460
16536WAT     H149850   8.458   7.209   8.548
16536WAT     H249851   8.484   7.267   8.398
16537WAT      O49852   8.841   8.792   1.616
16537WAT     H149853   8.829   8.722   1.686
16537WAT     H249854   8.790   8.874   1.642
16538WAT      O49855   9.158   4.081   1.614
16538WAT     H149856   9.188   4.129   1.696
16538WAT     H249857   9.207   4.117   1.535
16539WAT      O49858   4.945   4.424   6.955
16539WAT     H149859   4.988   4.381   7.035
16539WAT     H249860   4.946   4.523   6.967
16540WAT      O49861   8.493   3.533   0.878
16540WAT     H149862   8.532   3.618   0.844
16540WAT     H249863   8.400   3.523   0.845
16541WAT      O49864   0.321   2.743   3.335
16541WAT     H149865   0.332   2.841   3.351
16541WAT     H249866   0.232   2.713   3.370
16542WAT      O49867   2.217   3.054   1.779
16542WAT     H149868   2.300   3.094   1.817
16542WAT     H249869   2.148   3.046   1.851
16543WAT      O49870   6.965   5.860   4.378
16543WAT     H149871   7.051   5.823   4.413
16543WAT     H249872   6.912   5.786   4.336
16544WAT      O49873   9.767   5.030   5.983
16544WAT     H149874   9.790   4.943   5.940
16544WAT     H249875   9.706   5.015   6.060
16545WAT      O49876   6.934   6.368   7.473
16545WAT     H149877   6.898   6.322   7.554
16545WAT     H249878   6.858   6.410   7.422
16546WAT      O49879   9.541   7.143   0.691
16546WAT     H149880   9.596   7.112   0.769
16546WAT     H249881   9.527   7.242   0.697
16547WAT      O49882   0.466   5.362   2.192
16547WAT     H149883   0.500   5.324   2.106
16547WAT     H249884   0.370   5.338   2.204
16548WAT      O49885   1.732   6.157   7.987
16548WAT     H149886   1.744   6.150   8.086
16548WAT     H249887   1.672   6.084   7.955
16549WAT      O49888   4.693   8.627   3.242
16549WAT     H149889   4.635   8.688   3.188
16549WAT     H249890   4.715   8.670   3.329
16550WAT      O49891   7.146   6.758   8.631
16550WAT     H149892   7.212   6.732   8.701
16550WAT     H249893   7.057   6.773   8.674
16551WAT      O49894   5.869   3.722   8.191
16551WAT     H149895   5.920   3.807   8.190
16551WAT     H249896   5.792   3.728   8.127
16552WAT      O49897   9.114   0.825   0.486
16552WAT     H149898   9.020   0.837   0.454
16552WAT     H249899   9.176   0.879   0.429
16553WAT      O49900   0.465   4.226   1.926
16553WAT     H149901   0.555   4.230   1.968
16553WAT     H249902   0.474   4.198   1.830
16554WAT      O49903   5.443   6.437   9.064
16554WAT     H149904   5.402   6.523   9.094
16554WAT     H249905   5.508   6.456   8.990
16555WAT      O49906   3.277   5.376   8.624
16555WAT     H149907   3.321   5.464   8.607
16555WAT     H249908   3.276   5.357   8.722
16556WAT      O49909   3.346   7.559   6.767
16556WAT     H149910   3.335   7.462   6.747
16556WAT     H249911   3.304   7.613   6.694
16557WAT      O49912   2.183   1.063   4.148
16557WAT     H149913   2.247   0.990   4.173
16557WAT     H249914   2.130   1.035   4.068
16558WAT      O49915   6.746   3.737   9.132
16558WAT     H149916   6.772   3.832   9.148
16558WAT     H249917   6.757   3.714   9.036
16559WAT      O49918   1.942   5.410   7.340
16559WAT     H149919   2.036   5.440   7.349
16559WAT     H249920   1.902   5.449   7.257
16560WAT      O49921   8.793   9.787   9.558
16560WAT     H149922   8.697   9.773   9.534
16560WAT     H249923   8.801   9.796   9.657
16561WAT      O49924   1.222   2.481   3.209
16561WAT     H149925   1.293   2.484   3.138
16561WAT     H249926   1.263   2.505   3.297
16562WAT      O49927   3.607   1.808   9.125
16562WAT     H149928   3.701   1.822   9.154
16562WAT     H249929   3.606   1.761   9.037
16563WAT      O49930   7.153   2.016   2.305
16563WAT     H149931   7.233   2.075   2.313
16563WAT     H249932   7.128   1.981   2.395
16564WAT      O49933   8.358   5.954   7.111
16564WAT     H149934   8.295   5.895   7.060
16564WAT     H249935   8.306   6.022   7.162
16565WAT      O49936   8.127   7.149   0.459
16565WAT     H149937   8.196   7.093   0.506
16565WAT     H249938   8.102   7.226   0.518
16566WAT      O49939   1.432   0.883   6.005
16566WAT     H149940   1.531   0.882   6.022
16566WAT     H249941   1.405   0.973   5.971
16567WAT      O49942   8.061   9.393   7.577
16567WAT     H149943   8.031   9.320   7.639
16567WAT     H249944   8.051   9.481   7.622
16568WAT      O49945   1.675   4.900   2.580
16568WAT     H149946   1.606   4.835   2.612
16568WAT     H249947   1.741   4.916   2.653
16569WAT      O49948   3.184   7.528   2.383
16569WAT     H149949   3.268   7.517   2.437
16569WAT     H249950   3.204   7.585   2.303
16570WAT      O49951   3.261   5.996   5.028
16570WAT     H149952   3.193   5.952   5.087
16570WAT     H249953   3.250   5.964   4.934
16571WAT      O49954   6.629   0.399   6.926
16571WAT     H149955   6.550   0.417   6.985
16571WAT     H249956   6.614   0.314   6.876
16572WAT      O49957   0.996   1.678   1.344
16572WAT     H149958   0.944   1.595   1.322
16572WAT     H249959   1.022   1.725   1.260
16573WAT      O49960  -0.001   7.772   4.195
16573WAT     H149961   0.089   7.794   4.232
16573WAT     H249962   0.008   7.703   4.124
16574WAT      O49963   6.255   8.628   9.698
16574WAT     H149964   6.292   8.563   9.631
16574WAT     H249965   6.208   8.578   9.771
16575WAT      O49966   0.406   5.705   3.018
16575WAT     H149967   0.456   5.765   2.956
16575WAT     H249968   0.464   5.628   3.043
16576WAT      O49969   6.821   1.871   5.369
16576WAT     H149970   6.853   1.936   5.300
16576WAT     H249971   6.837   1.908   5.460
16577WAT      O49972   0.352   4.847   2.665
16577WAT     H149973   0.401   4.918   2.714
16577WAT     H249974   0.309   4.785   2.730
16578WAT      O49975   4.700   1.410   2.643
16578WAT     H149976   4.789   1.394   2.685
16578WAT     H249977   4.629   1.363   2.696
16579WAT      O49978   9.335   1.104   2.937
16579WAT     H149979   9.236   1.098   2.947
16579WAT     H249980   9.357   1.146   2.849
16580WAT      O49981   7.932   6.627   9.178
16580WAT     H149982   7.910   6.649   9.273
16580WAT     H249983   8.027   6.651   9.160
16581WAT      O49984   7.997   2.221   1.384
16581WAT     H149985   7.996   2.299   1.447
16581WAT     H249986   8.074   2.230   1.321
16582WAT      O49987   2.712   7.020   9.019
16582WAT     H149988   2.698   6.935   8.968
16582WAT     H249989   2.796   7.013   9.073
16583WAT      O49990   5.294   2.755   6.894
16583WAT     H149991   5.289   2.657   6.873
16583WAT     H249992   5.369   2.772   6.958
16584WAT      O49993   0.508   3.473   7.124
16584WAT     H149994   0.524   3.572   7.125
16584WAT     H249995   0.529   3.436   7.215
16585WAT      O49996   8.736   3.447   1.794
16585WAT     H149997   8.638   3.446   1.771
16585WAT     H249998   8.770   3.541   1.788
16586WAT      O49999   5.786   7.651   6.584
16586WAT     H150000   5.760   7.630   6.678
16586WAT     H250001   5.723   7.720   6.547
16587WAT      O50002   9.778   6.426   0.119
16587WAT     H150003   9.798   6.519   0.151
16587WAT     H250004   9.679   6.411   0.123
16588WAT      O50005   9.003   5.979   1.904
16588WAT     H150006   8.949   6.060   1.930
16588WAT     H250007   8.950   5.897   1.923
16589WAT      O50008   2.891   8.314   7.738
16589WAT     H150009   2.961   8.292   7.670
16589WAT     H250010   2.801   8.315   7.695
16590WAT      O50011   6.568   6.259   1.150
16590WAT     H150012   6.646   6.313   1.118
16590WAT     H250013   6.553   6.181   1.090
16591WAT      O50014   6.437   6.307   7.438
16591WAT     H150015   6.405   6.315   7.343
16591WAT     H250016   6.439   6.210   7.464
16592WAT      O50017   3.568   8.800   9.251
16592WAT     H150018   3.478   8.761   9.272
16592WAT     H250019   3.557   8.898   9.232
16593WAT      O50020   3.624   7.658   4.839
16593WAT     H150021   3.636   7.580   4.900
16593WAT     H250022   3.682   7.648   4.759
16594WAT      O50023   4.100   2.895   3.277
16594WAT     H150024   4.011   2.934   3.251
16594WAT     H250025   4.116   2.911   3.375
16595WAT      O50026   9.641   4.055   1.544
16595WAT     H150027   9.640   4.155   1.539
16595WAT     H250028   9.729   4.020   1.512
16596WAT      O50029   6.988   9.431   6.499
16596WAT     H150030   7.071   9.378   6.519
16596WAT     H250031   7.014   9.524   6.472
16597WAT      O50032   7.776   0.463   3.309
16597WAT     H150033   7.781   0.562   3.295
16597WAT     H250034   7.791   0.417   3.221
16598WAT      O50035   6.728   3.315   4.688
16598WAT     H150036   6.686   3.291   4.600
16598WAT     H250037   6.742   3.232   4.742
16599WAT      O50038   2.483   7.249   0.336
16599WAT     H150039   2.552   7.177   0.337
16599WAT     H250040   2.392   7.209   0.349
16600WAT      O50041   5.377   3.215   8.888
16600WAT     H150042   5.336   3.234   8.977
16600WAT     H250043   5.436   3.135   8.894
16601WAT      O50044   1.880   9.454   2.528
16601WAT     H150045   1.965   9.415   2.493
16601WAT     H250046   1.894   9.549   2.554
16602WAT      O50047   6.584   1.809   3.485
16602WAT     H150048   6.633   1.729   3.518
16602WAT     H250049   6.636   1.853   3.412
16603WAT      O50050   4.001   6.101   0.793
16603WAT     H150051   3.920   6.047   0.767
16603WAT     H250052   4.004   6.184   0.737
16604WAT      O50053   6.691   9.303   3.546
16604WAT     H150054   6.611   9.259   3.588
16604WAT     H250055   6.766   9.305   3.611
16605WAT      O50056   2.944   5.069   9.385
16605WAT     H150057   2.973   5.116   9.302
16605WAT     H250058   2.969   5.124   9.465
16606WAT      O50059   7.920   4.557   5.733
16606WAT     H150060   7.859   4.628   5.768
16606WAT     H250061   7.867   4.486   5.687
16607WAT      O50062   4.910   0.827   0.078
16607WAT     H150063   4.884   0.752   0.018
16607WAT     H250064   4.980   0.884   0.033
16608WAT      O50065   3.981   2.414   1.365
16608WAT     H150066   4.045   2.459   1.303
16608WAT     H250067   3.973   2.467   1.449
16609WAT      O50068   6.295   8.611   2.361
16609WAT     H150069   6.320   8.656   2.447
16609WAT     H250070   6.252   8.677   2.300
16610WAT      O50071   3.136   8.417   4.044
16610WAT     H150072   3.194   8.335   4.051
16610WAT     H250073   3.146   8.456   3.952
16611WAT      O50074   5.332   1.998   7.904
16611WAT     H150075   5.406   1.932   7.896
16611WAT     H250076   5.344   2.052   7.987
16612WAT      O50077   2.358   0.217   5.350
16612WAT     H150078   2.370   0.268   5.265
16612WAT     H250079   2.264   0.229   5.383
16613WAT      O50080   1.329   1.072   0.674
16613WAT     H150081   1.240   1.112   0.696
16613WAT     H250082   1.332   1.049   0.577
16614WAT      O50083   2.542   7.763   9.060
16614WAT     H150084   2.507   7.674   9.031
16614WAT     H250085   2.499   7.835   9.006
16615WAT      O50086   8.347   8.499   5.629
16615WAT     H150087   8.250   8.485   5.650
16615WAT     H250088   8.357   8.573   5.564
16616WAT      O50089   5.981   3.851   6.346
16616WAT     H150090   5.982   3.912   6.267
16616WAT     H250091   5.905   3.786   6.335
16617WAT      O50092   1.195   7.008   9.043
16617WAT     H150093   1.275   6.960   9.076
16617WAT     H250094   1.113   6.955   9.065
16618WAT      O50095   3.369   7.037   3.484
16618WAT     H150096   3.325   6.982   3.412
16618WAT     H250097   3.373   6.983   3.568
16619WAT      O50098   1.391   1.640   9.716
16619WAT     H150099   1.446   1.688   9.783
16619WAT     H250100   1.341   1.706   9.659
16620WAT      O50101   1.989   0.411   2.821
16620WAT     H150102   1.899   0.420   2.863
16620WAT     H250103   2.019   0.316   2.828
16621WAT      O50104   1.841   4.238   8.566
16621WAT     H150105   1.756   4.290   8.574
16621WAT     H250106   1.819   4.143   8.542
16622WAT      O50107   4.203   4.440   6.154
16622WAT     H150108   4.105   4.461   6.160
16622WAT     H250109   4.251   4.515   6.108
16623WAT      O50110   2.887   7.609   5.083
16623WAT     H150111   2.855   7.547   5.012
16623WAT     H250112   2.916   7.557   5.163
16624WAT      O50113   2.900   1.190   9.381
16624WAT     H150114   2.861   1.231   9.299
16624WAT     H250115   3.000   1.194   9.377
16625WAT      O50116   1.419   0.125   9.550
16625WAT     H150117   1.480   0.057   9.590
16625WAT     H250118   1.324   0.094   9.560
16626WAT      O50119   2.664   7.498   3.089
16626WAT     H150120   2.598   7.442   3.139
16626WAT     H250121   2.625   7.525   3.001
16627WAT      O50122   6.891   4.666   0.750
16627WAT     H150123   6.817   4.650   0.684
16627WAT     H250124   6.856   4.655   0.843
16628WAT      O50125   0.541   6.424   5.464
16628WAT     H150126   0.574   6.502   5.518
16628WAT     H250127   0.549   6.340   5.519
16629WAT      O50128   2.787   4.362   2.266
16629WAT     H150129   2.856   4.297   2.233
16629WAT     H250130   2.793   4.447   2.214
16630WAT      O50131   6.245   7.130   1.941
16630WAT     H150132   6.223   7.215   1.990
16630WAT     H250133   6.239   7.053   2.005
16631WAT      O50134   4.271   4.469   0.078
16631WAT     H150135   4.301   4.557   0.114
16631WAT     H250136   4.348   4.420   0.039
16632WAT      O50137   4.849   2.598   6.192
16632WAT     H150138   4.822   2.581   6.097
16632WAT     H250139   4.783   2.660   6.234
16633WAT      O50140   5.997   5.328   5.186
16633WAT     H150141   5.915   5.293   5.230
16633WAT     H250142   6.042   5.394   5.246
16634WAT      O50143   0.889   1.365   9.261
16634WAT     H150144   0.902   1.270   9.232
16634WAT     H250145   0.820   1.368   9.333
16635WAT      O50146   8.547   7.894   6.581
16635WAT     H150147   8.506   7.981   6.554
16635WAT     H250148   8.527   7.825   6.511
16636WAT      O50149   8.186   4.676   5.348
16636WAT     H150150   8.202   4.760   5.296
16636WAT     H250151   8.215   4.688   5.443
16637WAT      O50152   3.685   1.861   5.849
16637WAT     H150153   3.733   1.899   5.929
16637WAT     H250154   3.728   1.894   5.765
16638WAT      O50155   8.876   7.459   3.544
16638WAT     H150156   8.787   7.489   3.508
16638WAT     H250157   8.892   7.503   3.633
16639WAT      O50158   5.650   7.526   7.205
16639WAT     H150159   5.746   7.498   7.203
16639WAT     H250160   5.593   7.452   7.170
16640WAT      O50161   1.725   3.835   0.589
16640WAT     H150162   1.653   3.837   0.658
16640WAT     H250163   1.697   3.888   0.509
16641WAT      O50164   2.102   7.161   0.108
16641WAT     H150165   2.168   7.093   0.077
16641WAT     H250166   2.012   7.118   0.117
16642WAT      O50167   3.620   5.578   3.336
16642WAT     H150168   3.702   5.614   3.292
16642WAT     H250169   3.628   5.479   3.345
16643WAT      O50170   4.613   3.684   7.388
16643WAT     H150171   4.562   3.667   7.472
16643WAT     H250172   4.711   3.689   7.409
16644WAT      O50173   5.581   1.449   8.121
16644WAT     H150174   5.539   1.538   8.100
16644WAT     H250175   5.541   1.412   8.205
16645WAT      O50176   9.635   5.066   5.450
16645WAT     H150177   9.665   5.144   5.504
16645WAT     H250178   9.613   5.096   5.357
16646WAT      O50179   6.484   7.943   2.306
16646WAT     H150180   6.410   7.990   2.354
16646WAT     H250181   6.452   7.854   2.275
16647WAT      O50182   1.775   9.325   0.569
16647WAT     H150183   1.850   9.281   0.618
16647WAT     H250184   1.799   9.336   0.473
16648WAT      O50185   2.281   4.644   9.860
16648WAT     H150186   2.351   4.716   9.859
16648WAT     H250187   2.256   4.623   9.955
16649WAT      O50188   8.119   3.011   3.434
16649WAT     H150189   8.164   2.942   3.491
16649WAT     H250190   8.070   3.076   3.492
16650WAT      O50191   9.614   6.447   0.428
16650WAT     H150192   9.544   6.405   0.485
16650WAT     H250193   9.572   6.512   0.365
16651WAT      O50194   9.805   5.402   5.894
16651WAT     H150195   9.750   5.360   5.822
16651WAT     H250196   9.902   5.395   5.869
16652WAT      O50197   4.761   9.500   2.429
16652WAT     H150198   4.703   9.541   2.359
16652WAT     H250199   4.705   9.474   2.507
16653WAT      O50200   6.848   3.964   5.429
16653WAT     H150201   6.885   3.953   5.521
16653WAT     H250202   6.764   4.018   5.433
16654WAT      O50203   9.662   1.573   4.238
16654WAT     H150204   9.678   1.602   4.143
16654WAT     H250205   9.724   1.622   4.299
16655WAT      O50206   9.033   3.564   1.491
16655WAT     H150207   9.019   3.647   1.437
16655WAT     H250208   9.119   3.521   1.465
16656WAT      O50209   1.716   0.134   8.125
16656WAT     H150210   1.733   0.164   8.219
16656WAT     H250211   1.715   0.034   8.122
16657WAT      O50212   4.756   6.742   0.321
16657WAT     H150213   4.672   6.703   0.283
16657WAT     H250214   4.733   6.819   0.380
16658WAT      O50215   0.585   8.520   3.828
16658WAT     H150216   0.525   8.599   3.822
16658WAT     H250217   0.557   8.463   3.905
16659WAT      O50218   0.022   1.177   6.618
16659WAT     H150219  -0.010   1.096   6.667
16659WAT     H250220   0.029   1.156   6.520
16660WAT      O50221   3.795   4.110   6.620
16660WAT     H150222   3.847   4.195   6.628
16660WAT     H250223   3.855   4.032   6.640
16661WAT      O50224   7.316   6.149   6.317
16661WAT     H150225   7.220   6.175   6.329
16661WAT     H250226   7.353   6.117   6.404
16662WAT      O50227   1.515   2.540   9.460
16662WAT     H150228   1.444   2.588   9.511
16662WAT     H250229   1.520   2.445   9.491
16663WAT      O50230   8.124   0.620   3.766
16663WAT     H150231   8.084   0.530   3.783
16663WAT     H250232   8.121   0.640   3.668
16664WAT      O50233   1.612   7.174   2.959
16664WAT     H150234   1.571   7.254   3.004
16664WAT     H250235   1.557   7.148   2.880
16665WAT      O50236   3.546   1.251   3.199
16665WAT     H150237   3.454   1.221   3.224
16665WAT     H250238   3.612   1.211   3.262
16666WAT      O50239   3.943   6.484   7.245
16666WAT     H150240   3.968   6.548   7.173
16666WAT     H250241   4.024   6.462   7.300
16667WAT      O50242   7.847   5.164   6.528
16667WAT     H150243   7.910   5.087   6.528
16667WAT     H250244   7.878   5.232   6.461
16668WAT      O50245   4.166   7.686   5.417
16668WAT     H150246   4.122   7.620   5.356
16668WAT     H250247   4.252   7.648   5.451
16669WAT      O50248   1.345   7.937   4.137
16669WAT     H150249   1.345   7.929   4.236
16669WAT     H250250   1.268   7.995   4.108
16670WAT      O50251   3.668   9.364   7.279
16670WAT     H150252   3.684   9.318   7.366
16670WAT     H250253   3.658   9.462   7.295
16671WAT      O50254   0.520   7.047   7.816
16671WAT     H150255   0.558   6.954   7.814
16671WAT     H250256   0.546   7.095   7.732
16672WAT      O50257   1.214   3.931   7.273
16672WAT     H150258   1.197   3.833   7.277
16672WAT     H250259   1.288   3.954   7.336
16673WAT      O50260   9.195   2.817   4.567
16673WAT     H150261   9.161   2.909   4.586
16673WAT     H250262   9.273   2.822   4.505
16674WAT      O50263   1.493   7.876   2.053
16674WAT     H150264   1.590   7.856   2.047
16674WAT     H250265   1.443   7.792   2.076
16675WAT      O50266   6.901   5.742   0.659
16675WAT     H150267   6.975   5.675   0.646
16675WAT     H250268   6.864   5.733   0.751
16676WAT      O50269   1.633   6.626   3.099
16676WAT     H150270   1.575   6.684   3.156
16676WAT     H250271   1.660   6.676   3.017
16677WAT      O50272   6.047   7.339   1.555
16677WAT     H150273   6.113   7.275   1.594
16677WAT     H250274   6.024   7.409   1.623
16678WAT      O50275   2.634   0.848   7.352
16678WAT     H150276   2.651   0.928   7.410
16678WAT     H250277   2.722   0.814   7.317
16679WAT      O50278   3.147   8.380   0.350
16679WAT     H150279   3.142   8.280   0.350
16679WAT     H250280   3.222   8.410   0.409
16680WAT      O50281   0.585   5.687   4.365
16680WAT     H150282   0.660   5.751   4.351
16680WAT     H250283   0.530   5.716   4.443
16681WAT      O50284   1.844   8.966   8.797
16681WAT     H150285   1.901   8.969   8.879
16681WAT     H250286   1.840   9.058   8.757
16682WAT      O50287   9.641   7.357   9.102
16682WAT     H150288   9.610   7.450   9.122
16682WAT     H250289   9.735   7.345   9.135
16683WAT      O50290   3.836   9.829   2.029
16683WAT     H150291   3.829   9.919   1.987
16683WAT     H250292   3.920   9.784   2.000
16684WAT      O50293   2.043   4.516   4.025
16684WAT     H150294   2.061   4.427   4.067
16684WAT     H250295   2.126   4.572   4.028
16685WAT      O50296   3.543   5.755   2.717
16685WAT     H150297   3.628   5.761   2.770
16685WAT     H250298   3.551   5.812   2.635
16686WAT      O50299   8.401   6.029   0.961
16686WAT     H150300   8.500   6.032   0.974
16686WAT     H250301   8.355   6.056   1.046
16687WAT      O50302   2.540   2.432   2.729
16687WAT     H150303   2.574   2.421   2.636
16687WAT     H250304   2.603   2.389   2.793
16688WAT      O50305   0.803   1.371   8.405
16688WAT     H150306   0.790   1.460   8.448
16688WAT     H250307   0.890   1.332   8.434
16689WAT      O50308   0.562   4.949   0.194
16689WAT     H150309   0.534   4.939   0.290
16689WAT     H250310   0.555   5.045   0.167
16690WAT      O50311   9.264   5.044   8.498
16690WAT     H150312   9.182   5.014   8.546
16690WAT     H250313   9.324   5.092   8.562
16691WAT      O50314   0.398   7.750   7.530
16691WAT     H150315   0.304   7.783   7.536
16691WAT     H250316   0.419   7.691   7.608
16692WAT      O50317   3.591   1.519   7.974
16692WAT     H150318   3.649   1.526   7.892
16692WAT     H250319   3.497   1.541   7.950
16693WAT      O50320   4.488   4.259   3.397
16693WAT     H150321   4.424   4.288   3.468
16693WAT     H250322   4.560   4.328   3.387
16694WAT      O50323   9.085   8.836   2.553
16694WAT     H150324   8.997   8.882   2.559
16694WAT     H250325   9.085   8.774   2.475
16695WAT      O50326   6.382   6.231   3.066
16695WAT     H150327   6.464   6.174   3.056
16695WAT     H250328   6.390   6.285   3.149
16696WAT      O50329   8.362   9.665   8.755
16696WAT     H150330   8.348   9.666   8.854
16696WAT     H250331   8.367   9.570   8.723
16697WAT      O50332   0.482   9.162   6.710
16697WAT     H150333   0.547   9.106   6.658
16697WAT     H250334   0.514   9.171   6.804
16698WAT      O50335   7.700   4.593   7.524
16698WAT     H150336   7.752   4.627   7.603
16698WAT     H250337   7.663   4.671   7.473
16699WAT      O50338   2.322   4.093   7.137
16699WAT     H150339   2.310   4.173   7.079
16699WAT     H250340   2.276   4.014   7.096
16700WAT      O50341   9.139   3.768   6.374
16700WAT     H150342   9.119   3.835   6.445
16700WAT     H250343   9.066   3.701   6.369
16701WAT      O50344   2.206   6.643   6.706
16701WAT     H150345   2.231   6.715   6.642
16701WAT     H250346   2.272   6.568   6.699
16702WAT      O50347   1.347   7.888   1.827
16702WAT     H150348   1.424   7.893   1.891
16702WAT     H250349   1.282   7.961   1.848
16703WAT      O50350   8.689   8.226   3.383
16703WAT     H150351   8.729   8.318   3.376
16703WAT     H250352   8.761   8.159   3.398
16704WAT      O50353   1.904   5.394   8.482
16704WAT     H150354   1.880   5.434   8.393
16704WAT     H250355   1.986   5.337   8.471
16705WAT      O50356   0.818   5.382   6.251
16705WAT     H150357   0.741   5.389   6.187
16705WAT     H250358   0.812   5.454   6.319
16706WAT      O50359   6.220   1.627   6.073
16706WAT     H150360   6.296   1.626   6.008
16706WAT     H250361   6.169   1.541   6.066
16707WAT      O50362   0.735   5.573   3.666
16707WAT     H150363   0.743   5.476   3.646
16707WAT     H250364   0.682   5.618   3.593
16708WAT      O50365   9.239   5.308   4.914
16708WAT     H150366   9.178   5.289   4.838
16708WAT     H250367   9.331   5.327   4.879
16709WAT      O50368   9.377   4.746   5.378
16709WAT     H150369   9.367   4.678   5.305
16709WAT     H250370   9.412   4.831   5.340
16710WAT      O50371   8.550   7.897   2.700
16710WAT     H150372   8.525   7.879   2.795
16710WAT     H250373   8.580   7.993   2.692
16711WAT      O50374   8.106   8.300   0.885
16711WAT     H150375   8.170   8.321   0.959
16711WAT     H250376   8.040   8.376   0.877
16712WAT      O50377   8.771   8.425   2.951
16712WAT     H150378   8.865   8.405   2.980
16712WAT     H250379   8.761   8.523   2.936
16713WAT      O50380   6.916   1.756   3.736
16713WAT     H150381   7.015   1.739   3.732
16713WAT     H250382   6.900   1.854   3.748
16714WAT      O50383   9.693   7.772   1.396
16714WAT     H150384   9.602   7.802   1.365
16714WAT     H250385   9.706   7.798   1.492
16715WAT      O50386   6.553   2.204   3.324
16715WAT     H150387   6.532   2.286   3.271
16715WAT     H250388   6.623   2.150   3.277
16716WAT      O50389   5.275   5.367   6.690
16716WAT     H150390   5.348   5.299   6.676
16716WAT     H250391   5.315   5.449   6.731
16717WAT      O50392   1.153   9.215   3.220
16717WAT     H150393   1.129   9.282   3.150
16717WAT     H250394   1.233   9.163   3.190
16718WAT      O50395   6.676   7.961   7.695
16718WAT     H150396   6.695   8.024   7.770
16718WAT     H250397   6.760   7.912   7.671
16719WAT      O50398   2.555   9.367   4.960
16719WAT     H150399   2.635   9.425   4.969
16719WAT     H250400   2.572   9.296   4.892
16720WAT      O50401   9.450   5.603   4.686
16720WAT     H150402   9.367   5.633   4.638
16720WAT     H250403   9.471   5.667   4.760
16721WAT      O50404   3.714   8.285   8.441
16721WAT     H150405   3.763   8.355   8.390
16721WAT     H250406   3.746   8.284   8.536
16722WAT      O50407   9.527   8.007   1.613
16722WAT     H150408   9.626   7.997   1.603
16722WAT     H250409   9.493   8.075   1.548
16723WAT      O50410   0.007   1.919   6.086
16723WAT     H150411  -0.015   1.997   6.145
16723WAT     H250412   0.094   1.935   6.041
16724WAT      O50413   0.494   2.791   0.766
16724WAT     H150414   0.445   2.794   0.854
16724WAT     H250415   0.435   2.828   0.694
16725WAT      O50416   1.481   8.322   3.783
16725WAT     H150417   1.546   8.300   3.856
16725WAT     H250418   1.523   8.385   3.719
16726WAT      O50419   1.191   3.792   9.847
16726WAT     H150420   1.236   3.867   9.798
16726WAT     H250421   1.096   3.818   9.866
16727WAT      O50422   2.924   6.935   2.794
16727WAT     H150423   2.871   7.020   2.791
16727WAT     H250424   2.999   6.944   2.860
16728WAT      O50425   9.329   3.905   3.179
16728WAT     H150426   9.387   3.946   3.250
16728WAT     H250427   9.376   3.909   3.091
16729WAT      O50428   0.731   2.711   2.385
16729WAT     H150429   0.674   2.645   2.335
16729WAT     H250430   0.715   2.701   2.483
16730WAT      O50431   7.964   5.297   4.890
16730WAT     H150432   7.948   5.198   4.888
16730WAT     H250433   8.062   5.315   4.883
16731WAT      O50434   5.158   1.152   8.723
16731WAT     H150435   5.062   1.178   8.736
16731WAT     H250436   5.174   1.064   8.769
16732WAT      O50437   0.449   6.339   7.432
16732WAT     H150438   0.434   6.437   7.424
16732WAT     H250439   0.362   6.293   7.447
16733WAT      O50440   9.854   6.238   4.997
16733WAT     H150441   9.925   6.174   5.027
16733WAT     H250442   9.776   6.187   4.961
16734WAT      O50443   6.316   1.731   4.520
16734WAT     H150444   6.343   1.818   4.479
16734WAT     H250445   6.285   1.669   4.449
16735WAT      O50446   0.730   2.600   8.928
16735WAT     H150447   0.633   2.573   8.929
16735WAT     H250448   0.763   2.599   8.834
16736WAT      O50449   1.206   6.769   1.399
16736WAT     H150450   1.127   6.709   1.384
16736WAT     H250451   1.288   6.725   1.364
16737WAT      O50452   0.931   1.921   3.432
16737WAT     H150453   0.950   1.993   3.499
16737WAT     H250454   0.969   1.947   3.343
16738WAT      O50455   5.514   5.377   7.873
16738WAT     H150456   5.595   5.436   7.870
16738WAT     H250457   5.496   5.351   7.968
16739WAT      O50458   8.228   2.947   2.080
16739WAT     H150459   8.184   2.986   1.998
16739WAT     H250460   8.238   3.018   2.149
16740WAT      O50461   4.883   8.673   0.939
16740WAT     H150462   4.954   8.710   0.998
16740WAT     H250463   4.883   8.574   0.945
16741WAT      O50464   8.949   4.130   8.112
16741WAT     H150465   8.988   4.127   8.204
16741WAT     H250466   8.944   4.225   8.081
16742WAT      O50467   5.177   6.980   8.975
16742WAT     H150468   5.112   7.054   8.990
16742WAT     H250469   5.143   6.920   8.903
16743WAT      O50470   3.119   0.113   9.351
16743WAT     H150471   3.157   0.064   9.273
16743WAT     H250472   3.027   0.078   9.371
16744WAT      O50473   1.333   8.264   7.258
16744WAT     H150474   1.271   8.324   7.207
16744WAT     H250475   1.298   8.170   7.256
16745WAT      O50476   6.763   6.935   7.691
16745WAT     H150477   6.742   6.850   7.641
16745WAT     H250478   6.788   6.913   7.785
16746WAT      O50479   9.262   5.040   3.540
16746WAT     H150480   9.217   5.048   3.629
16746WAT     H250481   9.257   5.127   3.492
16747WAT      O50482   6.034   1.015   8.384
16747WAT     H150483   5.986   0.927   8.381
16747WAT     H250484   6.090   1.024   8.302
16748WAT      O50485   5.635   5.874   3.676
16748WAT     H150486   5.579   5.844   3.753
16748WAT     H250487   5.582   5.938   3.620
16749WAT      O50488   8.896   5.713   9.196
16749WAT     H150489   8.939   5.664   9.271
16749WAT     H250490   8.797   5.704   9.202
16750WAT      O50491   4.184   4.220   9.714
16750WAT     H150492   4.157   4.160   9.790
16750WAT     H250493   4.103   4.266   9.678
16751WAT      O50494   9.331   2.646   5.423
16751WAT     H150495   9.335   2.574   5.492
16751WAT     H250496   9.269   2.620   5.350
16752WAT      O50497   2.965   6.038   6.433
16752WAT     H150498   2.986   6.136   6.438
16752WAT     H250499   3.001   5.991   6.513
16753WAT      O50500   4.066   9.476   8.878
16753WAT     H150501   4.017   9.539   8.938
16753WAT     H250502   4.030   9.383   8.890
16754WAT      O50503   8.699   1.682   0.806
16754WAT     H150504   8.695   1.588   0.774
16754WAT     H250505   8.660   1.743   0.737
16755WAT      O50506   2.815   1.289   2.018
16755WAT     H150507   2.890   1.263   1.958
16755WAT     H250508   2.816   1.388   2.032
16756WAT      O50509   8.956   9.094   2.229
16756WAT     H150510   8.936   9.159   2.155
16756WAT     H250511   9.055   9.083   2.237
16757WAT      O50512   2.752   6.882   1.668
16757WAT     H150513   2.674   6.849   1.613
16757WAT     H250514   2.718   6.942   1.741
16758WAT      O50515   6.182   6.776   5.480
16758WAT     H150516   6.217   6.702   5.423
16758WAT     H250517   6.187   6.750   5.576
16759WAT      O50518   2.136   2.606   9.012
16759WAT     H150519   2.102   2.568   9.099
16759WAT     H250520   2.118   2.704   9.009
16760WAT      O50521   7.862   0.705   0.047
16760WAT     H150522   7.841   0.673   0.139
16760WAT     H250523   7.914   0.791   0.052
16761WAT      O50524   5.599   3.916   4.343
16761WAT     H150525   5.552   3.877   4.421
16761WAT     H250526   5.535   3.926   4.267
16762WAT      O50527   4.153   9.596   2.601
16762WAT     H150528   4.134   9.688   2.567
16762WAT     H250529   4.245   9.592   2.640
16763WAT      O50530   0.950   4.736   2.947
16763WAT     H150531   1.042   4.737   2.984
16763WAT     H250532   0.887   4.694   3.013
16764WAT      O50533   3.428   0.101   8.213
16764WAT     H150534   3.336   0.082   8.247
16764WAT     H250535   3.426   0.108   8.113
16765WAT      O50536   6.420   4.717   3.481
16765WAT     H150537   6.472   4.801   3.494
16765WAT     H250538   6.402   4.675   3.570
16766WAT      O50539   6.892   5.814   7.025
16766WAT     H150540   6.936   5.735   7.066
16766WAT     H250541   6.807   5.786   6.980
16767WAT      O50542   3.781   8.955   9.005
16767WAT     H150543   3.836   9.012   9.065
16767WAT     H250544   3.758   9.005   8.921
16768WAT      O50545   4.818   6.032   5.102
16768WAT     H150546   4.851   5.952   5.051
16768WAT     H250547   4.885   6.056   5.172
16769WAT      O50548   4.369   4.923   2.602
16769WAT     H150549   4.324   4.958   2.520
16769WAT     H250550   4.367   4.823   2.601
16770WAT      O50551   5.893   5.252   3.819
16770WAT     H150552   5.928   5.161   3.842
16770WAT     H250553   5.969   5.317   3.819
16771WAT      O50554   1.222   8.145   8.353
16771WAT     H150555   1.159   8.216   8.384
16771WAT     H250556   1.255   8.093   8.432
16772WAT      O50557   3.747   6.966   4.364
16772WAT     H150558   3.681   6.896   4.392
16772WAT     H250559   3.821   6.971   4.430
16773WAT      O50560   3.567   9.081   4.003
16773WAT     H150561   3.624   9.048   4.078
16773WAT     H250562   3.515   9.005   3.964
16774WAT      O50563   6.596   6.521   8.094
16774WAT     H150564   6.647   6.438   8.115
16774WAT     H250565   6.575   6.523   7.996
16775WAT      O50566   8.191   8.136   8.034
16775WAT     H150567   8.273   8.185   8.005
16775WAT     H250568   8.215   8.063   8.098
16776WAT      O50569   7.835   8.848   4.280
16776WAT     H150570   7.841   8.751   4.255
16776WAT     H250571   7.916   8.896   4.247
16777WAT      O50572   7.158   2.725   8.603
16777WAT     H150573   7.081   2.785   8.584
16777WAT     H250574   7.232   2.745   8.539
16778WAT      O50575   2.500   5.859   4.445
16778WAT     H150576   2.472   5.920   4.519
16778WAT     H250577   2.542   5.913   4.372
16779WAT      O50578   8.267   2.931   8.993
16779WAT     H150579   8.341   2.957   9.055
16779WAT     H250580   8.212   3.012   8.971
16780WAT      O50581   3.863   4.364   1.774
16780WAT     H150582   3.860   4.460   1.801
16780WAT     H250583   3.855   4.306   1.854
16781WAT      O50584   8.280   5.856   6.119
16781WAT     H150585   8.275   5.764   6.156
16781WAT     H250586   8.245   5.857   6.026
16782WAT      O50587   9.000   2.665   9.293
16782WAT     H150588   9.007   2.757   9.254
16782WAT     H250589   8.946   2.669   9.377
16783WAT      O50590   9.866   7.688   8.040
16783WAT     H150591   9.885   7.779   8.075
16783WAT     H250592   9.767   7.674   8.032
16784WAT      O50593   2.940   1.688   8.060
16784WAT     H150594   3.026   1.707   8.014
16784WAT     H250595   2.958   1.667   8.156
16785WAT      O50596   1.752   1.902   9.523
16785WAT     H150597   1.852   1.896   9.524
16785WAT     H250598   1.718   1.894   9.617
16786WAT      O50599   3.288   1.861   3.571
16786WAT     H150600   3.250   1.884   3.482
16786WAT     H250601   3.362   1.794   3.560
16787WAT      O50602   8.536   1.614   3.750
16787WAT     H150603   8.481   1.548   3.698
16787WAT     H250604   8.585   1.674   3.686
16788WAT      O50605   9.145   0.781   8.809
16788WAT     H150606   9.203   0.735   8.741
16788WAT     H250607   9.149   0.880   8.794
16789WAT      O50608   7.633   6.602   2.482
16789WAT     H150609   7.726   6.609   2.446
16789WAT     H250610   7.579   6.543   2.422
16790WAT      O50611   9.065   0.663   9.045
16790WAT     H150612   9.087   0.727   8.972
16790WAT     H250613   9.149   0.637   9.094
16791WAT      O50614   9.841   3.380   9.703
16791WAT     H150615   9.940   3.394   9.695
16791WAT     H250616   9.796   3.419   9.622
16792WAT      O50617   0.137   3.847   0.748
16792WAT     H150618   0.129   3.803   0.658
16792WAT     H250619   0.134   3.946   0.737
16793WAT      O50620   8.987   7.335   4.740
16793WAT     H150621   8.960   7.255   4.793
16793WAT     H250622   9.085   7.330   4.719
16794WAT      O50623   2.417   8.152   1.682
16794WAT     H150624   2.341   8.191   1.630
16794WAT     H250625   2.381   8.089   1.751
16795WAT      O50626   3.990   7.592   1.940
16795WAT     H150627   4.018   7.666   2.002
16795WAT     H250628   4.048   7.595   1.858
16796WAT      O50629   1.675   3.822   1.797
16796WAT     H150630   1.744   3.761   1.759
16796WAT     H250631   1.712   3.914   1.803
16797WAT      O50632   5.420   3.953   5.754
16797WAT     H150633   5.507   3.972   5.709
16797WAT     H250634   5.364   4.036   5.756
16798WAT      O50635   9.746   7.419   3.000
16798WAT     H150636   9.845   7.428   2.987
16798WAT     H250637   9.711   7.504   3.039
16799WAT      O50638   4.147   6.272   0.372
16799WAT     H150639   4.247   6.273   0.362
16799WAT     H250640   4.123   6.222   0.455
16800WAT      O50641   4.161   9.167   3.708
16800WAT     H150642   4.159   9.106   3.629
16800WAT     H250643   4.069   9.172   3.748
16801WAT      O50644   5.352   2.263   9.321
16801WAT     H150645   5.369   2.217   9.234
16801WAT     H250646   5.437   2.268   9.373
16802WAT      O50647   8.947   9.649   0.890
16802WAT     H150648   8.847   9.651   0.899
16802WAT     H250649   8.988   9.674   0.978
16803WAT      O50650   4.720   8.718   9.810
16803WAT     H150651   4.775   8.641   9.779
16803WAT     H250652   4.623   8.697   9.797
16804WAT      O50653   0.649   0.252   3.074
16804WAT     H150654   0.583   0.311   3.121
16804WAT     H250655   0.692   0.304   2.999
16805WAT      O50656   6.805   5.006   1.331
16805WAT     H150657   6.853   5.005   1.419
16805WAT     H250658   6.770   5.098   1.313
16806WAT      O50659   7.104   0.421   6.402
16806WAT     H150660   7.088   0.439   6.304
16806WAT     H250661   7.148   0.501   6.443
16807WAT      O50662   8.268   4.442   2.053
16807WAT     H150663   8.258   4.379   1.976
16807WAT     H250664   8.285   4.391   2.137
16808WAT      O50665   1.059   4.663   7.064
16808WAT     H150666   1.024   4.669   7.158
16808WAT     H250667   1.158   4.650   7.067
16809WAT      O50668   8.470   8.634   4.045
16809WAT     H150669   8.466   8.599   3.951
16809WAT     H250670   8.385   8.682   4.067
16810WAT      O50671   8.820   4.317   4.069
16810WAT     H150672   8.792   4.257   4.144
16810WAT     H250673   8.743   4.372   4.039
16811WAT      O50674   9.036   4.624   6.456
16811WAT     H150675   9.123   4.665   6.427
16811WAT     H250676   9.054   4.542   6.509
16812WAT      O50677   9.370   1.585   8.249
16812WAT     H150678   9.321   1.502   8.273
16812WAT     H250679   9.349   1.656   8.316
16813WAT      O50680   7.390   5.194   0.256
16813WAT     H150681   7.397   5.285   0.299
16813WAT     H250682   7.293   5.168   0.251
16814WAT      O50683   2.674   8.173   1.028
16814WAT     H150684   2.578   8.176   1.055
16814WAT     H250685   2.726   8.239   1.082
16815WAT      O50686   4.825   3.404   3.395
16815WAT     H150687   4.728   3.427   3.397
16815WAT     H250688   4.847   3.356   3.309
16816WAT      O50689   3.925   3.648   0.090
16816WAT     H150690   3.846   3.668   0.148
16816WAT     H250691   3.987   3.586   0.138
16817WAT      O50692   1.592   1.596   0.712
16817WAT     H150693   1.533   1.670   0.680
16817WAT     H250694   1.578   1.516   0.654
16818WAT      O50695   1.216   4.959   3.137
16818WAT     H150696   1.123   4.967   3.174
16818WAT     H250697   1.224   4.874   3.085
16819WAT      O50698   0.059   3.799   2.139
16819WAT     H150699  -0.040   3.817   2.133
16819WAT     H250700   0.076   3.702   2.122
16820WAT      O50701   7.967   4.526   3.526
16820WAT     H150702   7.920   4.473   3.597
16820WAT     H250703   7.909   4.603   3.499
16821WAT      O50704   0.443   2.744   6.280
16821WAT     H150705   0.453   2.756   6.379
16821WAT     H250706   0.435   2.833   6.236
16822WAT      O50707   1.258   5.972   4.051
16822WAT     H150708   1.219   5.889   4.091
16822WAT     H250709   1.352   5.956   4.024
16823WAT      O50710   0.830   9.184   1.522
16823WAT     H150711   0.796   9.220   1.609
16823WAT     H250712   0.905   9.242   1.490
16824WAT      O50713   0.395   1.841   5.061
16824WAT     H150714   0.464   1.855   4.990
16824WAT     H250715   0.441   1.815   5.146
16825WAT      O50716   7.209   3.335   7.842
16825WAT     H150717   7.282   3.387   7.887
16825WAT     H250718   7.159   3.394   7.780
16826WAT      O50719   4.887   3.558   6.866
16826WAT     H150720   4.947   3.636   6.884
16826WAT     H250721   4.815   3.584   6.802
16827WAT      O50722   5.755   0.916   1.449
16827WAT     H150723   5.667   0.921   1.402
16827WAT     H250724   5.788   0.822   1.449
16828WAT      O50725   7.502   7.433   5.669
16828WAT     H150726   7.586   7.473   5.633
16828WAT     H250727   7.476   7.354   5.614
16829WAT      O50728   6.074   8.403   5.380
16829WAT     H150729   6.087   8.337   5.307
16829WAT     H250730   6.164   8.433   5.414
16830WAT      O50731   8.740   4.087   4.219
16830WAT     H150732   8.689   4.028   4.157
16830WAT     H250733   8.792   4.031   4.284
16831WAT      O50734   8.488   2.709   6.538
16831WAT     H150735   8.532   2.686   6.625
16831WAT     H250736   8.556   2.748   6.476
16832WAT      O50737   0.944   2.364   3.490
16832WAT     H150738   0.983   2.450   3.522
16832WAT     H250739   0.972   2.349   3.395
16833WAT      O50740   5.166   6.036   9.238
16833WAT     H150741   5.149   6.132   9.263
16833WAT     H250742   5.231   6.032   9.163
16834WAT      O50743   9.869   6.521   9.030
16834WAT     H150744   9.890   6.424   9.018
16834WAT     H250745   9.777   6.531   9.066
16835WAT      O50746   6.276   0.599   7.507
16835WAT     H150747   6.235   0.582   7.597
16835WAT     H250748   6.372   0.572   7.509
16836WAT      O50749   5.973   1.901   7.276
16836WAT     H150750   6.026   1.978   7.241
16836WAT     H250751   5.981   1.897   7.376
16837WAT      O50752   3.326   5.267   3.924
16837WAT     H150753   3.324   5.356   3.879
16837WAT     H250754   3.421   5.237   3.936
16838WAT      O50755   2.953   5.490   6.828
16838WAT     H150756   2.867   5.527   6.794
16838WAT     H250757   3.029   5.548   6.799
16839WAT      O50758   8.520   0.190   0.334
16839WAT     H150759   8.610   0.176   0.292
16839WAT     H250760   8.527   0.182   0.433
16840WAT      O50761   5.510   3.338   7.129
16840WAT     H150762   5.477   3.244   7.119
16840WAT     H250763   5.607   3.342   7.108
16841WAT      O50764   7.792   0.079   0.958
16841WAT     H150765   7.862   0.104   0.890
16841WAT     H250766   7.815   0.120   1.046
16842WAT      O50767   1.186   4.895   1.881
16842WAT     H150768   1.242   4.830   1.931
16842WAT     H250769   1.090   4.871   1.891
16843WAT      O50770   4.464   0.542   5.438
16843WAT     H150771   4.412   0.545   5.352
16843WAT     H250772   4.466   0.633   5.479
16844WAT      O50773   0.427   9.614   4.571
16844WAT     H150774   0.524   9.632   4.553
16844WAT     H250775   0.404   9.646   4.663
16845WAT      O50776   6.327   1.318   6.547
16845WAT     H150777   6.230   1.295   6.553
16845WAT     H250778   6.376   1.243   6.502
16846WAT      O50779   0.061   9.056   5.354
16846WAT     H150780   0.023   9.018   5.439
16846WAT     H250781   0.039   9.153   5.349
16847WAT      O50782   8.584   0.837   5.971
16847WAT     H150783   8.598   0.936   5.962
16847WAT     H250784   8.506   0.820   6.032
16848WAT      O50785   5.106   3.086   4.463
16848WAT     H150786   5.132   3.101   4.368
16848WAT     H250787   5.109   3.173   4.512
16849WAT      O50788   5.795   2.017   3.754
16849WAT     H150789   5.883   2.061   3.737
16849WAT     H250790   5.774   1.952   3.681
16850WAT      O50791   1.631   7.033   5.164
16850WAT     H150792   1.640   6.961   5.233
16850WAT     H250793   1.668   7.001   5.077
16851WAT      O50794   4.350   4.244   8.523
16851WAT     H150795   4.372   4.218   8.617
16851WAT     H250796   4.374   4.341   8.509
16852WAT      O50797   8.012   3.265   3.870
16852WAT     H150798   8.065   3.185   3.897
16852WAT     H250799   8.021   3.337   3.939
16853WAT      O50800   3.845   7.963   6.457
16853WAT     H150801   3.821   7.895   6.386
16853WAT     H250802   3.761   8.006   6.491
16854WAT      O50803   8.511   8.714   9.698
16854WAT     H150804   8.609   8.727   9.709
16854WAT     H250805   8.465   8.803   9.693
16855WAT      O50806   7.334   4.440   3.305
16855WAT     H150807   7.256   4.502   3.291
16855WAT     H250808   7.300   4.348   3.325
16856WAT      O50809   2.981   4.708   4.433
16856WAT     H150810   3.051   4.694   4.503
16856WAT     H250811   3.021   4.759   4.356
16857WAT      O50812   8.013   3.970   2.804
16857WAT     H150813   7.914   3.957   2.801
16857WAT     H250814   8.051   3.960   2.712
16858WAT      O50815   9.249   3.226   6.585
16858WAT     H150816   9.221   3.253   6.493
16858WAT     H250817   9.325   3.162   6.579
16859WAT      O50818   9.381   8.937   0.174
16859WAT     H150819   9.349   8.906   0.264
16859WAT     H250820   9.430   9.024   0.184
16860WAT      O50821   0.263   3.533   3.453
16860WAT     H150822   0.310   3.610   3.497
16860WAT     H250823   0.330   3.478   3.403
16861WAT      O50824   9.535   5.567   7.513
16861WAT     H150825   9.541   5.475   7.553
16861WAT     H250826   9.547   5.560   7.414
16862WAT      O50827   3.628   6.034   7.314
16862WAT     H150828   3.697   5.962   7.312
16862WAT     H250829   3.667   6.119   7.279
16863WAT      O50830   9.372   9.018   9.108
16863WAT     H150831   9.319   8.985   9.030
16863WAT     H250832   9.425   8.943   9.146
16864WAT      O50833   1.419   4.639   1.215
16864WAT     H150834   1.449   4.602   1.302
16864WAT     H250835   1.464   4.590   1.140
16865WAT      O50836   1.841   2.929   9.857
16865WAT     H150837   1.893   2.846   9.838
16865WAT     H250838   1.851   2.994   9.782
16866WAT      O50839   2.035   2.385   8.890
16866WAT     H150840   1.955   2.435   8.856
16866WAT     H250841   2.096   2.449   8.937
16867WAT      O50842   3.979   4.277   6.429
16867WAT     H150843   4.044   4.350   6.451
16867WAT     H250844   4.023   4.188   6.442
16868WAT      O50845   1.463   0.280   3.066
16868WAT     H150846   1.556   0.265   3.030
16868WAT     H250847   1.457   0.245   3.159
16869WAT      O50848   4.414   4.707   5.380
16869WAT     H150849   4.361   4.772   5.435
16869WAT     H250850   4.355   4.630   5.355
16870WAT      O50851   6.329   2.196   4.923
16870WAT     H150852   6.263   2.270   4.932
16870WAT     H250853   6.292   2.113   4.963
16871WAT      O50854   7.746   5.452   1.763
16871WAT     H150855   7.770   5.449   1.860
16871WAT     H250856   7.820   5.496   1.711
16872WAT      O50857   9.263   1.692   2.895
16872WAT     H150858   9.349   1.743   2.894
16872WAT     H250859   9.276   1.605   2.942
16873WAT      O50860   4.968   4.079   2.752
16873WAT     H150861   5.005   4.100   2.843
16873WAT     H250862   5.029   4.116   2.682
16874WAT      O50863   6.858   9.000   5.072
16874WAT     H150864   6.839   9.056   5.153
16874WAT     H250865   6.952   8.965   5.077
16875WAT      O50866   9.201   3.039   5.377
16875WAT     H150867   9.194   3.138   5.385
16875WAT     H250868   9.160   2.995   5.457
16876WAT      O50869   1.303   5.391   2.195
16876WAT     H150870   1.350   5.460   2.139
16876WAT     H250871   1.312   5.301   2.152
16877WAT      O50872   4.136   5.920   7.198
16877WAT     H150873   4.187   5.880   7.122
16877WAT     H250874   4.117   6.016   7.179
16878WAT      O50875   4.002   8.293   2.634
16878WAT     H150876   3.973   8.219   2.573
16878WAT     H250877   4.050   8.363   2.582
16879WAT      O50878   2.239   6.924   8.932
16879WAT     H150879   2.300   6.870   8.991
16879WAT     H250880   2.251   6.897   8.837
16880WAT      O50881   4.986   8.561   4.759
16880WAT     H150882   4.936   8.648   4.748
16880WAT     H250883   5.069   8.577   4.811
16881WAT      O50884   3.071   7.209   8.936
16881WAT     H150885   2.980   7.252   8.937
16881WAT     H250886   3.135   7.266   8.988
16882WAT      O50887   0.751   9.571   9.769
16882WAT     H150888   0.769   9.620   9.854
16882WAT     H250889   0.836   9.560   9.718
16883WAT      O50890   3.220   2.023   9.143
16883WAT     H150891   3.299   2.078   9.116
16883WAT     H250892   3.174   2.065   9.220
16884WAT      O50893   2.995   7.766   2.628
16884WAT     H150894   3.071   7.825   2.601
16884WAT     H250895   2.947   7.733   2.547
16885WAT      O50896   6.257   0.126   5.778
16885WAT     H150897   6.352   0.156   5.787
16885WAT     H250898   6.223   0.152   5.688
16886WAT      O50899   5.187   1.448   8.635
16886WAT     H150900   5.155   1.382   8.703
16886WAT     H250901   5.287   1.448   8.632
16887WAT      O50902   8.618   4.948   1.721
16887WAT     H150903   8.568   4.984   1.642
16887WAT     H250904   8.632   5.021   1.787
16888WAT      O50905   3.243   4.980   4.779
16888WAT     H150906   3.329   5.019   4.747
16888WAT     H250907   3.168   5.009   4.719
16889WAT      O50908   9.006   7.062   5.696
16889WAT     H150909   8.952   6.981   5.671
16889WAT     H250910   9.028   7.114   5.614
16890WAT      O50911   3.882   6.722   3.783
16890WAT     H150912   3.801   6.750   3.835
16890WAT     H250913   3.858   6.647   3.723
16891WAT      O50914   4.410   0.977   4.242
16891WAT     H150915   4.432   0.880   4.228
16891WAT     H250916   4.381   1.018   4.155
16892WAT      O50917   5.579   1.082   8.974
16892WAT     H150918   5.571   1.049   9.068
16892WAT     H250919   5.504   1.145   8.953
16893WAT      O50920   7.679   7.771   1.593
16893WAT     H150921   7.655   7.678   1.623
16893WAT     H250922   7.692   7.772   1.494
16894WAT      O50923   4.700   7.858   8.247
16894WAT     H150924   4.605   7.825   8.252
16894WAT     H250925   4.708   7.922   8.171
16895WAT      O50926   2.305   1.126   6.685
16895WAT     H150927   2.329   1.139   6.589
16895WAT     H250928   2.381   1.082   6.733
16896WAT      O50929   4.391   8.783   5.393
16896WAT     H150930   4.411   8.718   5.466
16896WAT     H250931   4.446   8.762   5.312
16897WAT      O50932   2.778   3.314   7.553
16897WAT     H150933   2.876   3.313   7.571
16897WAT     H250934   2.729   3.286   7.636
16898WAT      O50935   3.279   5.026   6.460
16898WAT     H150936   3.193   5.041   6.508
16898WAT     H250937   3.343   4.979   6.521
16899WAT      O50938   9.730   7.427   2.729
16899WAT     H150939   9.805   7.482   2.692
16899WAT     H250940   9.748   7.408   2.826
16900WAT      O50941   6.614   9.554   5.995
16900WAT     H150942   6.639   9.602   6.079
16900WAT     H250943   6.564   9.615   5.935
16901WAT      O50944   8.775   4.299   2.594
16901WAT     H150945   8.747   4.299   2.498
16901WAT     H250946   8.792   4.206   2.625
16902WAT      O50947   5.302   8.756   1.773
16902WAT     H150948   5.329   8.792   1.684
16902WAT     H250949   5.223   8.807   1.807
16903WAT      O50950   4.965   5.884   6.132
16903WAT     H150951   4.873   5.872   6.097
16903WAT     H250952   5.011   5.795   6.138
16904WAT      O50953   8.819   3.690   8.548
16904WAT     H150954   8.849   3.783   8.568
16904WAT     H250955   8.878   3.650   8.478
16905WAT      O50956   8.057   6.519   2.416
16905WAT     H150957   8.130   6.511   2.349
16905WAT     H250958   7.984   6.577   2.380
16906WAT      O50959   0.420   7.151   4.304
16906WAT     H150960   0.345   7.151   4.238
16906WAT     H250961   0.486   7.080   4.280
16907WAT      O50962   6.717   0.055   8.293
16907WAT     H150963   6.714   0.145   8.250
16907WAT     H250964   6.627   0.033   8.331
16908WAT      O50965   6.264   9.431   7.532
16908WAT     H150966   6.202   9.395   7.602
16908WAT     H250967   6.296   9.521   7.560
16909WAT      O50968   7.541   2.624   9.437
16909WAT     H150969   7.514   2.607   9.532
16909WAT     H250970   7.488   2.564   9.377
16910WAT      O50971   9.264   0.845   6.880
16910WAT     H150972   9.231   0.935   6.908
16910WAT     H250973   9.191   0.797   6.831
16911WAT      O50974   0.361   9.040   8.708
16911WAT     H150975   0.352   9.056   8.807
16911WAT     H250976   0.360   8.942   8.690
16912WAT      O50977   7.676   6.959   1.780
16912WAT     H150978   7.775   6.974   1.780
16912WAT     H250979   7.630   7.043   1.749
16913WAT      O50980   4.529   7.306   3.732
16913WAT     H150981   4.600   7.255   3.782
16913WAT     H250982   4.487   7.246   3.664
16914WAT      O50983   4.391   0.002   0.446
16914WAT     H150984   4.345   0.082   0.484
16914WAT     H250985   4.344  -0.081   0.475
16915WAT      O50986   0.470   4.695   1.554
16915WAT     H150987   0.390   4.754   1.546
16915WAT     H250988   0.486   4.674   1.651
16916WAT      O50989   4.927   3.475   2.168
16916WAT     H150990   4.846   3.522   2.203
16916WAT     H250991   5.010   3.522   2.199
16917WAT      O50992   3.251   5.131   7.032
16917WAT     H150993   3.155   5.104   7.035
16917WAT     H250994   3.303   5.062   6.981
16918WAT      O50995   2.883   7.219   2.605
16918WAT     H150996   2.838   7.214   2.694
16918WAT     H250997   2.947   7.297   2.605
16919WAT      O50998   3.676   4.609   0.319
16919WAT     H150999   3.672   4.529   0.258
16919WAT     H251000   3.609   4.677   0.289
16920WAT      O51001   7.727   6.017   3.392
16920WAT     H151002   7.630   6.013   3.415
16920WAT     H251003   7.749   5.944   3.327
16921WAT      O51004   9.880   3.830   0.345
16921WAT     H151005   9.928   3.774   0.413
16921WAT     H251006   9.875   3.781   0.259
16922WAT      O51007   4.266   4.658   7.657
16922WAT     H151008   4.175   4.640   7.619
16922WAT     H251009   4.269   4.750   7.695
16923WAT      O51010   5.823   3.157   5.551
16923WAT     H151011   5.802   3.230   5.485
16923WAT     H251012   5.773   3.174   5.636
16924WAT      O51013   8.763   0.942   6.954
16924WAT     H151014   8.735   0.859   6.907
16924WAT     H251015   8.828   0.992   6.897
16925WAT      O51016   1.430   1.058   4.564
16925WAT     H151017   1.502   1.083   4.629
16925WAT     H251018   1.369   1.136   4.551
16926WAT      O51019   4.478   3.188   5.602
16926WAT     H151020   4.427   3.131   5.667
16926WAT     H251021   4.570   3.150   5.590
16927WAT      O51022   3.880   0.258   6.396
16927WAT     H151023   3.795   0.208   6.407
16927WAT     H251024   3.881   0.336   6.458
16928WAT      O51025   3.882   8.953   7.996
16928WAT     H151026   3.953   8.929   8.061
16928WAT     H251027   3.854   9.048   8.010
16929WAT      O51028   1.277   0.305   0.891
16929WAT     H151029   1.242   0.213   0.909
16929WAT     H251030   1.375   0.301   0.872
16930WAT      O51031   1.073   9.047   1.387
16930WAT     H151032   0.998   9.113   1.389
16930WAT     H251033   1.160   9.096   1.395
16931WAT      O51034   8.887   1.849   5.116
16931WAT     H151035   8.838   1.781   5.062
16931WAT     H251036   8.975   1.869   5.071
16932WAT      O51037   1.846   6.681   1.286
16932WAT     H151038   1.825   6.779   1.285
16932WAT     H251039   1.822   6.641   1.198
16933WAT      O51040   3.127   5.560   5.744
16933WAT     H151041   3.061   5.630   5.771
16933WAT     H251042   3.188   5.597   5.673
16934WAT      O51043   3.015   6.254   7.477
16934WAT     H151044   3.088   6.213   7.423
16934WAT     H251045   3.039   6.248   7.574
16935WAT      O51046   4.087   9.131   1.647
16935WAT     H151047   3.994   9.110   1.676
16935WAT     H251048   4.111   9.223   1.678
16936WAT      O51049   7.190   7.755   7.553
16936WAT     H151050   7.170   7.828   7.488
16936WAT     H251051   7.107   7.729   7.601
16937WAT      O51052   6.276   6.463   1.946
16937WAT     H151053   6.344   6.525   1.907
16937WAT     H251054   6.275   6.472   2.046
16938WAT      O51055   9.246   4.340   0.398
16938WAT     H151056   9.248   4.355   0.497
16938WAT     H251057   9.324   4.283   0.372
16939WAT      O51058   5.701   7.529   8.902
16939WAT     H151059   5.766   7.519   8.827
16939WAT     H251060   5.618   7.477   8.882
16940WAT      O51061   2.198   8.988   9.864
16940WAT     H151062   2.162   9.066   9.812
16940WAT     H251063   2.225   8.916   9.800
16941WAT      O51064   0.216   3.452   2.828
16941WAT     H151065   0.221   3.408   2.738
16941WAT     H251066   0.290   3.517   2.837
16942WAT      O51067   9.094   3.473   9.211
16942WAT     H151068   9.007   3.443   9.249
16942WAT     H251069   9.100   3.572   9.215
16943WAT      O51070   4.746   3.715   2.598
16943WAT     H151071   4.671   3.649   2.602
16943WAT     H251072   4.790   3.720   2.687
16944WAT      O51073   8.820   5.536   2.443
16944WAT     H151074   8.756   5.565   2.372
16944WAT     H251075   8.875   5.460   2.410
16945WAT      O51076   1.658   4.124   2.726
16945WAT     H151077   1.693   4.110   2.819
16945WAT     H251078   1.689   4.050   2.667
16946WAT      O51079   5.556   5.965   7.320
16946WAT     H151080   5.638   6.014   7.290
16946WAT     H251081   5.549   5.971   7.420
16947WAT      O51082   0.409   5.373   1.640
16947WAT     H151083   0.501   5.333   1.639
16947WAT     H251084   0.355   5.337   1.565
16948WAT      O51085   7.969   6.685   5.860
16948WAT     H151086   7.947   6.627   5.782
16948WAT     H251087   8.045   6.745   5.836
16949WAT      O51088   7.626   1.549   0.172
16949WAT     H151089   7.628   1.538   0.271
16949WAT     H251090   7.718   1.568   0.138
16950WAT      O51091   4.826   0.649   2.977
16950WAT     H151092   4.852   0.562   3.021
16950WAT     H251093   4.753   0.632   2.911
16951WAT      O51094   5.951   1.569   5.354
16951WAT     H151095   6.042   1.603   5.330
16951WAT     H251096   5.930   1.594   5.449
16952WAT      O51097   0.562   4.562   7.521
16952WAT     H151098   0.607   4.621   7.588
16952WAT     H251099   0.487   4.513   7.565
16953WAT      O51100   4.049   5.844   3.160
16953WAT     H151101   4.002   5.822   3.074
16953WAT     H251102   4.136   5.889   3.140
16954WAT      O51103   9.026   6.429   1.767
16954WAT     H151104   9.053   6.462   1.857
16954WAT     H251105   9.022   6.506   1.703
16955WAT      O51106   2.025   6.973   3.834
16955WAT     H151107   2.095   7.027   3.788
16955WAT     H251108   2.008   6.889   3.783
16956WAT      O51109   8.334   9.437   8.621
16956WAT     H151110   8.421   9.394   8.597
16956WAT     H251111   8.268   9.367   8.648
16957WAT      O51112   3.097   9.424   1.844
16957WAT     H151113   3.042   9.505   1.866
16957WAT     H251114   3.191   9.451   1.825
16958WAT      O51115   2.642   8.725   2.533
16958WAT     H151116   2.699   8.657   2.581
16958WAT     H251117   2.631   8.805   2.591
16959WAT      O51118   6.703   2.932   0.780
16959WAT     H151119   6.782   2.931   0.718
16959WAT     H251120   6.683   2.838   0.809
16960WAT      O51121   7.212   4.570   4.101
16960WAT     H151122   7.290   4.542   4.157
16960WAT     H251123   7.131   4.580   4.159
16961WAT      O51124   1.357   3.545   0.925
16961WAT     H151125   1.340   3.466   0.867
16961WAT     H251126   1.426   3.603   0.883
16962WAT      O51127   6.264   6.662   7.847
16962WAT     H151128   6.287   6.621   7.758
16962WAT     H251129   6.336   6.726   7.874
16963WAT      O51130   4.406   0.898   3.572
16963WAT     H151131   4.478   0.875   3.507
16963WAT     H251132   4.444   0.903   3.665
16964WAT      O51133   5.865   9.512   0.502
16964WAT     H151134   5.891   9.432   0.556
16964WAT     H251135   5.937   9.532   0.436
16965WAT      O51136   3.061   4.449   1.309
16965WAT     H151137   3.034   4.362   1.268
16965WAT     H251138   3.113   4.432   1.392
16966WAT      O51139   5.529   3.074   0.934
16966WAT     H151140   5.435   3.100   0.953
16966WAT     H251141   5.565   3.020   1.010
16967WAT      O51142   2.047   8.093   8.188
16967WAT     H151143   1.959   8.056   8.215
16967WAT     H251144   2.072   8.167   8.251
16968WAT      O51145   1.113   5.246   4.912
16968WAT     H151146   1.079   5.185   4.840
16968WAT     H251147   1.191   5.298   4.878
16969WAT      O51148   3.445   8.962   6.544
16969WAT     H151149   3.417   8.878   6.498
16969WAT     H251150   3.541   8.982   6.524
16970WAT      O51151   3.432   6.941   4.175
16970WAT     H151152   3.466   6.860   4.223
16970WAT     H251153   3.480   7.022   4.209
16971WAT      O51154   6.642   5.431   0.152
16971WAT     H151155   6.714   5.499   0.136
16971WAT     H251156   6.593   5.414   0.066
16972WAT      O51157   1.552   7.266   5.521
16972WAT     H151158   1.514   7.297   5.608
16972WAT     H251159   1.503   7.184   5.490
16973WAT      O51160   9.712   4.562   8.587
16973WAT     H151161   9.670   4.476   8.616
16973WAT     H251162   9.643   4.620   8.545
16974WAT      O51163   1.251   1.051   6.187
16974WAT     H151164   1.311   0.976   6.159
16974WAT     H251165   1.155   1.021   6.183
16975WAT      O51166   8.238   9.192   6.003
16975WAT     H151167   8.324   9.170   6.048
16975WAT     H251168   8.215   9.288   6.020
16976WAT      O51169   3.525   8.839   3.259
16976WAT     H151170   3.560   8.749   3.288
16976WAT     H251171   3.476   8.881   3.335
16977WAT      O51172   7.876   6.350   9.080
16977WAT     H151173   7.929   6.432   9.103
16977WAT     H251174   7.840   6.358   8.987
16978WAT      O51175   3.371   9.343   4.568
16978WAT     H151176   3.447   9.339   4.503
16978WAT     H251177   3.292   9.295   4.529
16979WAT      O51178   0.057   8.155   0.790
16979WAT     H151179   0.015   8.077   0.742
16979WAT     H251180   0.099   8.216   0.723
16980WAT      O51181   5.969   2.918   1.774
16980WAT     H151182   5.938   3.013   1.768
16980WAT     H251183   5.930   2.866   1.698
16981WAT      O51184   4.432   2.273   7.614
16981WAT     H151185   4.514   2.240   7.567
16981WAT     H251186   4.406   2.363   7.578
16982WAT      O51187   9.678   0.585   0.125
16982WAT     H151188   9.686   0.574   0.224
16982WAT     H251189   9.596   0.638   0.103
16983WAT      O51190   1.728   0.061   1.569
16983WAT     H151191   1.823   0.054   1.539
16983WAT     H251192   1.681  -0.026   1.553
16984WAT      O51193   1.737   4.274   2.118
16984WAT     H151194   1.806   4.326   2.169
16984WAT     H251195   1.740   4.178   2.146
16985WAT      O51196   2.539   1.634   7.043
16985WAT     H151197   2.581   1.544   7.045
16985WAT     H251198   2.541   1.669   6.949
16986WAT      O51199   1.611   5.194   3.682
16986WAT     H151200   1.659   5.112   3.649
16986WAT     H251201   1.515   5.172   3.698
16987WAT      O51202   0.363   1.656   9.589
16987WAT     H151203   0.265   1.678   9.589
16987WAT     H251204   0.411   1.722   9.531
16988WAT      O51205   3.464   0.507   4.019
16988WAT     H151206   3.490   0.600   4.046
16988WAT     H251207   3.403   0.511   3.940
16989WAT      O51208   9.559   0.091   2.161
16989WAT     H151209   9.505   0.152   2.219
16989WAT     H251210   9.501   0.054   2.089
16990WAT      O51211   9.814   0.696   2.616
16990WAT     H151212   9.833   0.662   2.709
16990WAT     H251213   9.720   0.728   2.611
16991WAT      O51214   0.652   6.825   5.917
16991WAT     H151215   0.725   6.807   5.852
16991WAT     H251216   0.587   6.891   5.878
16992WAT      O51217   1.353   7.443   2.769
16992WAT     H151218   1.343   7.382   2.690
16992WAT     H251219   1.263   7.466   2.805
16993WAT      O51220   0.792   8.674   2.889
16993WAT     H151221   0.878   8.709   2.925
16993WAT     H251222   0.803   8.652   2.793
16994WAT      O51223   9.118   3.966   6.588
16994WAT     H151224   9.204   4.009   6.617
16994WAT     H251225   9.060   4.034   6.543
16995WAT      O51226   3.463   0.462   5.760
16995WAT     H151227   3.398   0.536   5.771
16995WAT     H251228   3.555   0.495   5.781
16996WAT      O51229   5.669   1.943   9.614
16996WAT     H151230   5.716   1.886   9.546
16996WAT     H251231   5.575   1.911   9.624
16997WAT      O51232   1.826   4.116   1.497
16997WAT     H151233   1.835   4.017   1.493
16997WAT     H251234   1.915   4.158   1.482
16998WAT      O51235   5.027   8.207   5.547
16998WAT     H151236   4.970   8.276   5.502
16998WAT     H251237   4.987   8.184   5.636
16999WAT      O51238   9.706   7.345   5.276
16999WAT     H151239   9.732   7.441   5.284
16999WAT     H251240   9.613   7.339   5.240
17000WAT      O51241   7.331   2.168   0.219
17000WAT     H151242   7.276   2.196   0.298
17000WAT     H251243   7.398   2.099   0.249
17001WAT      O51244   1.314   1.625   7.545
17001WAT     H151245   1.251   1.563   7.499
17001WAT     H251246   1.402   1.625   7.497
17002WAT      O51247   2.444   9.355   7.442
17002WAT     H151248   2.533   9.398   7.452
17002WAT     H251249   2.444   9.297   7.361
17003WAT      O51250   1.628   0.864   0.305
17003WAT     H151251   1.727   0.859   0.320
17003WAT     H251252   1.604   0.809   0.225
17004WAT      O51253   8.338   3.203   3.296
17004WAT     H151254   8.375   3.169   3.209
17004WAT     H251255   8.263   3.144   3.326
17005WAT      O51256   4.626   9.634   8.241
17005WAT     H151257   4.603   9.669   8.332
17005WAT     H251258   4.543   9.629   8.186
17006WAT      O51259   4.689   3.340   7.506
17006WAT     H151260   4.681   3.391   7.592
17006WAT     H251261   4.614   3.367   7.445
17007WAT      O51262   5.452   3.993   2.707
17007WAT     H151263   5.447   4.050   2.625
17007WAT     H251264   5.389   3.915   2.696
17008WAT      O51265   9.606   3.242   0.202
17008WAT     H151266   9.530   3.195   0.245
17008WAT     H251267   9.653   3.299   0.269
17009WAT      O51268   4.948   5.042   5.980
17009WAT     H151269   4.913   5.134   5.994
17009WAT     H251270   4.879   4.987   5.933
17010WAT      O51271   9.721   5.460   3.025
17010WAT     H151272   9.807   5.442   2.976
17010WAT     H251273   9.650   5.400   2.989
17011WAT      O51274   4.538   3.373   3.402
17011WAT     H151275   4.466   3.326   3.351
17011WAT     H251276   4.523   3.472   3.396
17012WAT      O51277   9.265   8.202   2.477
17012WAT     H151278   9.255   8.120   2.421
17012WAT     H251279   9.175   8.232   2.509
17013WAT      O51280   6.897   5.722   8.883
17013WAT     H151281   6.877   5.812   8.923
17013WAT     H251282   6.845   5.652   8.931
17014WAT      O51283   9.859   6.975   2.307
17014WAT     H151284   9.880   6.890   2.259
17014WAT     H251285   9.857   6.958   2.405
17015WAT      O51286   4.956   5.377   8.525
17015WAT     H151287   5.035   5.325   8.557
17015WAT     H251288   4.928   5.442   8.596
17016WAT      O51289   1.869   5.419   0.411
17016WAT     H151290   1.916   5.407   0.498
17016WAT     H251291   1.841   5.330   0.375
17017WAT      O51292   2.770   7.276   1.759
17017WAT     H151293   2.822   7.294   1.843
17017WAT     H251294   2.707   7.352   1.742
17018WAT      O51295   3.956   5.572   6.284
17018WAT     H151296   4.002   5.525   6.209
17018WAT     H251297   3.945   5.508   6.361
17019WAT      O51298   3.541   5.472   4.183
17019WAT     H151299   3.595   5.554   4.200
17019WAT     H251300   3.468   5.493   4.118
17020WAT      O51301   0.663   2.400   5.291
17020WAT     H151302   0.641   2.407   5.388
17020WAT     H251303   0.664   2.491   5.250
17021WAT      O51304   0.553   3.904   5.664
17021WAT     H151305   0.552   3.811   5.700
17021WAT     H251306   0.642   3.925   5.625
17022WAT      O51307   7.964   3.655   4.791
17022WAT     H151308   8.048   3.636   4.843
17022WAT     H251309   7.885   3.647   4.852
17023WAT      O51310   2.416   9.786   8.711
17023WAT     H151311   2.445   9.878   8.736
17023WAT     H251312   2.421   9.727   8.791
17024WAT      O51313   3.936   9.747   4.404
17024WAT     H151314   3.963   9.651   4.412
17024WAT     H251315   3.845   9.759   4.444
17025WAT      O51316   2.815   4.453   7.413
17025WAT     H151317   2.755   4.420   7.340
17025WAT     H251318   2.780   4.541   7.447
17026WAT      O51319   7.444   1.072   3.927
17026WAT     H151320   7.425   1.140   3.856
17026WAT     H251321   7.534   1.032   3.912
17027WAT      O51322   2.209   9.763   8.546
17027WAT     H151323   2.157   9.847   8.529
17027WAT     H251324   2.280   9.782   8.614
17028WAT      O51325   5.527   5.256   7.125
17028WAT     H151326   5.551   5.329   7.061
17028WAT     H251327   5.544   5.288   7.219
17029WAT      O51328   1.135   4.900   5.453
17029WAT     H151329   1.095   4.987   5.426
17029WAT     H251330   1.221   4.916   5.502
17030WAT      O51331   5.874   9.493   4.806
17030WAT     H151332   5.908   9.571   4.859
17030WAT     H251333   5.860   9.522   4.711
17031WAT      O51334   9.157   8.179   1.475
17031WAT     H151335   9.072   8.198   1.525
17031WAT     H251336   9.147   8.207   1.380
17032WAT      O51337   1.796   0.334   0.935
17032WAT     H151338   1.708   0.287   0.938
17032WAT     H251339   1.835   0.326   0.843
17033WAT      O51340   8.442   9.150   1.271
17033WAT     H151341   8.390   9.148   1.356
17033WAT     H251342   8.512   9.221   1.276
17034WAT      O51343   1.683   6.740   2.842
17034WAT     H151344   1.741   6.725   2.761
17034WAT     H251345   1.672   6.838   2.856
17035WAT      O51346   3.102   0.246   3.554
17035WAT     H151347   3.059   0.220   3.641
17035WAT     H251348   3.090   0.173   3.487
17036WAT      O51349   0.590   2.102   3.383
17036WAT     H151350   0.578   2.164   3.460
17036WAT     H251351   0.654   2.142   3.317
17037WAT      O51352   9.577   1.069   5.239
17037WAT     H151353   9.485   1.081   5.202
17037WAT     H251354   9.637   1.031   5.168
17038WAT      O51355   0.025   0.197   7.855
17038WAT     H151356   0.063   0.278   7.810
17038WAT     H251357  -0.060   0.171   7.809
17039WAT      O51358   2.015   1.043   8.242
17039WAT     H151359   2.105   1.029   8.201
17039WAT     H251360   1.987   1.138   8.230
17040WAT      O51361   3.387   4.911   7.639
17040WAT     H151362   3.425   4.996   7.673
17040WAT     H251363   3.297   4.928   7.599
17041WAT      O51364   2.101   9.297   6.760
17041WAT     H151365   2.055   9.385   6.766
17041WAT     H251366   2.129   9.267   6.851
17042WAT      O51367   6.189   5.012   9.119
17042WAT     H151368   6.273   5.064   9.105
17042WAT     H251369   6.209   4.933   9.177
17043WAT      O51370   9.380   4.729   9.209
17043WAT     H151371   9.452   4.673   9.251
17043WAT     H251372   9.295   4.676   9.203
17044WAT      O51373   7.087   0.248   0.914
17044WAT     H151374   7.130   0.338   0.906
17044WAT     H251375   7.158   0.178   0.916
17045WAT      O51376   4.449   5.510   3.832
17045WAT     H151377   4.376   5.557   3.783
17045WAT     H251378   4.500   5.576   3.887
17046WAT      O51379   6.734   8.493   7.218
17046WAT     H151380   6.769   8.439   7.295
17046WAT     H251381   6.640   8.522   7.238
17047WAT      O51382   0.377   2.412   2.363
17047WAT     H151383   0.316   2.482   2.399
17047WAT     H251384   0.330   2.324   2.361
17048WAT      O51385   1.496   2.976   6.183
17048WAT     H151386   1.463   2.885   6.208
17048WAT     H251387   1.497   2.984   6.083
17049WAT      O51388   5.652   9.657   6.355
17049WAT     H151389   5.709   9.627   6.278
17049WAT     H251390   5.585   9.586   6.376
17050WAT      O51391   7.907   7.608   3.650
17050WAT     H151392   7.813   7.644   3.646
17050WAT     H251393   7.928   7.562   3.564
17051WAT      O51394   7.834   6.308   4.572
17051WAT     H151395   7.861   6.334   4.479
17051WAT     H251396   7.735   6.318   4.582
17052WAT      O51397   9.483   4.981   4.123
17052WAT     H151398   9.451   5.075   4.130
17052WAT     H251399   9.454   4.929   4.203
17053WAT      O51400   9.692   6.875   3.124
17053WAT     H151401   9.662   6.954   3.071
17053WAT     H251402   9.719   6.801   3.062
17054WAT      O51403   5.070   0.537   0.172
17054WAT     H151404   5.086   0.450   0.217
17054WAT     H251405   5.143   0.601   0.196
17055WAT      O51406   9.204   6.012   5.885
17055WAT     H151407   9.204   6.107   5.853
17055WAT     H251408   9.253   6.007   5.972
17056WAT      O51409   2.949   3.678   3.521
17056WAT     H151410   2.873   3.614   3.523
17056WAT     H251411   2.953   3.722   3.431
17057WAT      O51412   2.114   6.524   9.216
17057WAT     H151413   2.102   6.606   9.161
17057WAT     H251414   2.200   6.479   9.190
17058WAT      O51415   9.380   9.547   0.722
17058WAT     H151416   9.413   9.605   0.797
17058WAT     H251417   9.348   9.460   0.759
17059WAT      O51418   0.246   4.503   2.508
17059WAT     H151419   0.341   4.480   2.525
17059WAT     H251420   0.210   4.444   2.436
17060WAT      O51421   9.713   9.020   4.112
17060WAT     H151422   9.674   8.928   4.116
17060WAT     H251423   9.808   9.014   4.084
17061WAT      O51424   8.225   0.735   5.285
17061WAT     H151425   8.324   0.739   5.296
17061WAT     H251426   8.187   0.667   5.347
17062WAT      O51427   3.688   1.753   6.853
17062WAT     H151428   3.683   1.853   6.849
17062WAT     H251429   3.648   1.714   6.771
17063WAT      O51430   1.435   9.776   6.177
17063WAT     H151431   1.369   9.800   6.248
17063WAT     H251432   1.456   9.678   6.182
17064WAT      O51433   2.515   5.793   9.639
17064WAT     H151434   2.460   5.766   9.560
17064WAT     H251435   2.456   5.799   9.720
17065WAT      O51436   4.128   1.708   2.003
17065WAT     H151437   4.116   1.806   2.018
17065WAT     H251438   4.067   1.678   1.930
17066WAT      O51439   9.667   0.671   4.820
17066WAT     H151440   9.586   0.666   4.762
17066WAT     H251441   9.717   0.756   4.801
17067WAT      O51442   8.193   7.482   4.591
17067WAT     H151443   8.190   7.486   4.491
17067WAT     H251444   8.130   7.412   4.623
17068WAT      O51445   1.671   4.702   7.064
17068WAT     H151446   1.758   4.747   7.044
17068WAT     H251447   1.639   4.728   7.155
17069WAT      O51448   7.553   1.364   4.031
17069WAT     H151449   7.536   1.318   3.944
17069WAT     H251450   7.562   1.462   4.016
17070WAT      O51451   8.542   4.688   2.619
17070WAT     H151452   8.619   4.652   2.672
17070WAT     H251453   8.543   4.648   2.527
17071WAT      O51454   0.671   7.698   3.768
17071WAT     H151455   0.639   7.792   3.769
17071WAT     H251456   0.657   7.658   3.677
17072WAT      O51457   5.663   1.505   5.518
17072WAT     H151458   5.673   1.541   5.426
17072WAT     H251459   5.569   1.517   5.549
17073WAT      O51460   8.399   6.993   8.082
17073WAT     H151461   8.365   6.921   8.022
17073WAT     H251462   8.358   6.983   8.172
17074WAT      O51463   0.352   2.397   1.521
17074WAT     H151464   0.333   2.450   1.604
17074WAT     H251465   0.267   2.380   1.472
17075WAT      O51466   9.044   9.211   1.533
17075WAT     H151467   9.010   9.161   1.613
17075WAT     H251468   9.037   9.310   1.550
17076WAT      O51469   1.684   5.057   5.807
17076WAT     H151470   1.664   5.104   5.720
17076WAT     H251471   1.730   4.971   5.788
17077WAT      O51472   3.747   7.170   2.521
17077WAT     H151473   3.689   7.174   2.440
17077WAT     H251474   3.776   7.075   2.537
17078WAT      O51475   1.624   5.712   9.885
17078WAT     H151476   1.670   5.673   9.965
17078WAT     H251477   1.574   5.640   9.837
17079WAT      O51478   9.412   8.153   4.218
17079WAT     H151479   9.417   8.101   4.304
17079WAT     H251480   9.504   8.166   4.181
17080WAT      O51481   9.271   7.797   7.981
17080WAT     H151482   9.207   7.721   7.970
17080WAT     H251483   9.253   7.843   8.068
17081WAT      O51484   7.606   3.156   4.212
17081WAT     H151485   7.696   3.111   4.217
17081WAT     H251486   7.559   3.146   4.300
17082WAT      O51487   6.463   3.574   6.078
17082WAT     H151488   6.556   3.547   6.052
17082WAT     H251489   6.397   3.526   6.020
17083WAT      O51490   0.839   0.958   9.304
17083WAT     H151491   0.894   0.907   9.370
17083WAT     H251492   0.898   1.021   9.254
17084WAT      O51493   0.561   0.181   9.757
17084WAT     H151494   0.484   0.159   9.819
17084WAT     H251495   0.646   0.178   9.809
17085WAT      O51496   5.073   6.122   2.162
17085WAT     H151497   5.022   6.208   2.154
17085WAT     H251498   5.046   6.076   2.247
17086WAT      O51499   3.802   3.677   5.269
17086WAT     H151500   3.782   3.773   5.285
17086WAT     H251501   3.869   3.668   5.195
17087WAT      O51502   0.550   1.807   2.714
17087WAT     H151503   0.530   1.905   2.714
17087WAT     H251504   0.521   1.767   2.627
17088WAT      O51505   4.302   2.563   1.850
17088WAT     H151506   4.274   2.476   1.890
17088WAT     H251507   4.223   2.624   1.845
17089WAT      O51508   5.067   9.788   7.610
17089WAT     H151509   5.010   9.755   7.535
17089WAT     H251510   5.104   9.878   7.585
17090WAT      O51511   2.424   7.130   5.880
17090WAT     H151512   2.501   7.183   5.844
17090WAT     H251513   2.430   7.126   5.979
17091WAT      O51514   8.590   2.680   6.197
17091WAT     H151515   8.606   2.776   6.222
17091WAT     H251516   8.609   2.622   6.276
17092WAT      O51517   1.653   6.293   2.889
17092WAT     H151518   1.579   6.332   2.943
17092WAT     H251519   1.671   6.200   2.920
17093WAT      O51520   2.435   1.703   7.654
17093WAT     H151521   2.528   1.737   7.665
17093WAT     H251522   2.436   1.603   7.653
17094WAT      O51523   8.579   4.066   9.583
17094WAT     H151524   8.518   4.112   9.518
17094WAT     H251525   8.529   3.993   9.629
17095WAT      O51526   9.041   5.394   8.330
17095WAT     H151527   9.119   5.448   8.360
17095WAT     H251528   9.020   5.325   8.400
17096WAT      O51529   1.903   2.539   7.050
17096WAT     H151530   1.837   2.471   7.080
17096WAT     H251531   1.909   2.537   6.950
17097WAT      O51532   2.257   6.338   8.697
17097WAT     H151533   2.297   6.428   8.711
17097WAT     H251534   2.214   6.334   8.607
17098WAT      O51535   9.230   1.017   0.332
17098WAT     H151536   9.263   1.053   0.245
17098WAT     H251537   9.287   1.052   0.406
17099WAT      O51538   8.799   6.062   6.018
17099WAT     H151539   8.725   6.000   6.044
17099WAT     H251540   8.846   6.094   6.100
17100WAT      O51541   7.712   9.578   4.517
17100WAT     H151542   7.701   9.540   4.425
17100WAT     H251543   7.680   9.673   4.518
17101WAT      O51544   6.696   6.028   1.607
17101WAT     H151545   6.791   6.058   1.602
17101WAT     H251546   6.692   5.936   1.645
17102WAT      O51547   2.044   9.070   6.986
17102WAT     H151548   2.108   9.131   7.032
17102WAT     H251549   2.066   8.975   7.010
17103WAT      O51550   8.227   1.578   5.086
17103WAT     H151551   8.272   1.654   5.040
17103WAT     H251552   8.154   1.541   5.028
17104WAT      O51553   2.800   8.199   6.949
17104WAT     H151554   2.752   8.168   7.031
17104WAT     H251555   2.776   8.139   6.872
17105WAT      O51556   1.454   3.143   1.138
17105WAT     H151557   1.454   3.183   1.229
17105WAT     H251558   1.509   3.059   1.137
17106WAT      O51559   5.874   3.062   4.540
17106WAT     H151560   5.969   3.086   4.523
17106WAT     H251561   5.821   3.069   4.455
17107WAT      O51562   5.828   3.722   0.401
17107WAT     H151563   5.850   3.811   0.441
17107WAT     H251564   5.738   3.727   0.357
17108WAT      O51565   6.818   7.165   8.341
17108WAT     H151566   6.899   7.214   8.373
17108WAT     H251567   6.838   7.067   8.337
17109WAT      O51568   8.016   0.466   0.027
17109WAT     H151569   7.974   0.422   0.106
17109WAT     H251570   7.960   0.543  -0.002
17110WAT      O51571   8.623   6.594   8.985
17110WAT     H151572   8.709   6.633   8.954
17110WAT     H251573   8.629   6.570   9.082
17111WAT      O51574   2.497   6.131   8.353
17111WAT     H151575   2.488   6.205   8.419
17111WAT     H251576   2.409   6.086   8.341
17112WAT      O51577   9.629   5.855   7.344
17112WAT     H151578   9.676   5.813   7.421
17112WAT     H251579   9.687   5.850   7.263
17113WAT      O51580   1.140   1.026   2.212
17113WAT     H151581   1.199   1.099   2.177
17113WAT     H251582   1.194   0.964   2.268
17114WAT      O51583   6.054   8.112   6.825
17114WAT     H151584   6.081   8.208   6.833
17114WAT     H251585   6.001   8.087   6.906
17115WAT      O51586   9.630   5.194   6.662
17115WAT     H151587   9.664   5.106   6.631
17115WAT     H251588   9.542   5.213   6.617
17116WAT      O51589   8.631   7.888   8.230
17116WAT     H151590   8.716   7.940   8.239
17116WAT     H251591   8.555   7.951   8.219
17117WAT      O51592   3.926   6.005   4.819
17117WAT     H151593   3.927   6.061   4.737
17117WAT     H251594   3.899   5.912   4.796
17118WAT      O51595   1.416   8.175   7.698
17118WAT     H151596   1.494   8.189   7.637
17118WAT     H251597   1.446   8.125   7.780
17119WAT      O51598   4.029   6.183   7.390
17119WAT     H151599   4.028   6.184   7.290
17119WAT     H251600   4.027   6.277   7.425
17120WAT      O51601   5.364   2.913   8.382
17120WAT     H151602   5.264   2.915   8.377
17120WAT     H251603   5.393   2.849   8.453
17121WAT      O51604   6.402   1.943   4.372
17121WAT     H151605   6.395   1.958   4.273
17121WAT     H251606   6.427   2.030   4.416
17122WAT      O51607   2.911   0.712   5.492
17122WAT     H151608   2.943   0.691   5.400
17122WAT     H251609   2.989   0.713   5.555
17123WAT      O51610   1.320   2.186   2.720
17123WAT     H151611   1.321   2.265   2.659
17123WAT     H251612   1.300   2.216   2.813
17124WAT      O51613   3.703   6.065   1.443
17124WAT     H151614   3.751   6.026   1.522
17124WAT     H251615   3.740   6.156   1.423
17125WAT      O51616   0.117   1.113   8.657
17125WAT     H151617   0.196   1.062   8.623
17125WAT     H251618   0.076   1.165   8.581
17126WAT      O51619   9.888   0.825   4.380
17126WAT     H151620   9.931   0.774   4.455
17126WAT     H251621   9.845   0.908   4.417
17127WAT      O51622   1.549   5.494   3.224
17127WAT     H151623   1.547   5.489   3.324
17127WAT     H251624   1.621   5.433   3.189
17128WAT      O51625   4.633   0.336   2.291
17128WAT     H151626   4.641   0.276   2.370
17128WAT     H251627   4.620   0.430   2.321
17129WAT      O51628   8.269   0.392   2.020
17129WAT     H151629   8.262   0.408   2.118
17129WAT     H251630   8.347   0.333   2.001
17130WAT      O51631   2.912   0.075   4.424
17130WAT     H151632   2.863  -0.012   4.411
17130WAT     H251633   2.900   0.132   4.343
17131WAT      O51634   3.923   1.059   5.940
17131WAT     H151635   3.922   0.977   5.883
17131WAT     H251636   4.008   1.062   5.994
17132WAT      O51637   0.681   1.463   2.065
17132WAT     H151638   0.730   1.508   2.140
17132WAT     H251639   0.670   1.366   2.087
17133WAT      O51640   9.436   8.881   7.514
17133WAT     H151641   9.527   8.883   7.556
17133WAT     H251642   9.397   8.973   7.517
17134WAT      O51643   8.983   3.570   2.083
17134WAT     H151644   9.070   3.575   2.034
17134WAT     H251645   8.912   3.616   2.030
17135WAT      O51646   3.849   3.958   6.974
17135WAT     H151647   3.770   3.952   7.035
17135WAT     H251648   3.876   4.054   6.963
17136WAT      O51649   8.230   0.179   4.027
17136WAT     H151650   8.160   0.247   4.051
17136WAT     H251651   8.269   0.141   4.110
17137WAT      O51652   2.736   4.365   9.582
17137WAT     H151653   2.639   4.374   9.604
17137WAT     H251654   2.789   4.428   9.638
17138WAT      O51655   7.780   0.642   5.752
17138WAT     H151656   7.756   0.548   5.779
17138WAT     H251657   7.735   0.664   5.665
17139WAT      O51658   3.645   6.389   8.170
17139WAT     H151659   3.645   6.290   8.183
17139WAT     H251660   3.564   6.429   8.212
17140WAT      O51661   4.855   6.177   1.820
17140WAT     H151662   4.911   6.246   1.775
17140WAT     H251663   4.759   6.190   1.797
17141WAT      O51664   3.404   6.526   8.282
17141WAT     H151665   3.421   6.625   8.284
17141WAT     H251666   3.318   6.509   8.234
17142WAT      O51667   6.205   4.944   9.518
17142WAT     H151668   6.266   4.934   9.597
17142WAT     H251669   6.254   4.992   9.445
17143WAT      O51670   8.808   6.740   3.069
17143WAT     H151671   8.806   6.664   3.005
17143WAT     H251672   8.763   6.820   3.028
17144WAT      O51673   4.361   6.936   4.243
17144WAT     H151674   4.428   6.992   4.291
17144WAT     H251675   4.393   6.841   4.239
17145WAT      O51676   7.633   1.397   9.221
17145WAT     H151677   7.635   1.496   9.236
17145WAT     H251678   7.606   1.351   9.305
17146WAT      O51679   6.079   5.480   2.374
17146WAT     H151680   6.075   5.545   2.299
17146WAT     H251681   6.071   5.528   2.461
17147WAT      O51682   3.267   5.128   9.349
17147WAT     H151683   3.183   5.145   9.298
17147WAT     H251684   3.271   5.191   9.428
17148WAT      O51685   3.352   8.149   0.570
17148WAT     H151686   3.426   8.111   0.626
17148WAT     H251687   3.391   8.189   0.487
17149WAT      O51688   4.607   0.347   8.246
17149WAT     H151689   4.585   0.267   8.303
17149WAT     H251690   4.699   0.380   8.269
17150WAT      O51691   5.038   8.483   8.981
17150WAT     H151692   5.096   8.404   8.960
17150WAT     H251693   5.094   8.559   9.012
17151WAT      O51694   5.135   1.301   3.789
17151WAT     H151695   5.136   1.205   3.760
17151WAT     H251696   5.041   1.329   3.808
17152WAT      O51697   4.201   1.714   1.268
17152WAT     H151698   4.132   1.776   1.305
17152WAT     H251699   4.238   1.752   1.183
17153WAT      O51700   3.510   8.829   6.007
17153WAT     H151701   3.494   8.752   5.945
17153WAT     H251702   3.430   8.889   6.007
17154WAT      O51703   0.212   0.087   4.308
17154WAT     H151704   0.216  -0.010   4.331
17154WAT     H251705   0.245   0.141   4.386
17155WAT      O51706   7.570   6.500   0.012
17155WAT     H151707   7.477   6.496   0.050
17155WAT     H251708   7.604   6.594   0.017
17156WAT      O51709   3.304   4.460   5.022
17156WAT     H151710   3.266   4.508   5.102
17156WAT     H251711   3.398   4.489   5.007
17157WAT      O51712   7.811   1.239   6.227
17157WAT     H151713   7.738   1.186   6.272
17157WAT     H251714   7.873   1.275   6.296
17158WAT      O51715   1.901   1.079   7.838
17158WAT     H151716   1.998   1.054   7.848
17158WAT     H251717   1.876   1.079   7.742
17159WAT      O51718   8.146   7.685   5.584
17159WAT     H151719   8.085   7.636   5.523
17159WAT     H251720   8.169   7.774   5.545
17160WAT      O51721   6.624   9.058   0.054
17160WAT     H151722   6.702   9.110   0.088
17160WAT     H251723   6.592   8.996   0.126
17161WAT      O51724   0.545   1.765   7.454
17161WAT     H151725   0.454   1.730   7.474
17161WAT     H251726   0.555   1.856   7.494
17162WAT      O51727   7.923   2.484   7.559
17162WAT     H151728   7.910   2.507   7.655
17162WAT     H251729   7.852   2.529   7.504
17163WAT      O51730   5.092   7.998   8.565
17163WAT     H151731   5.007   8.051   8.571
17163WAT     H251732   5.074   7.913   8.515
17164WAT      O51733   5.683   9.043   1.760
17164WAT     H151734   5.738   9.117   1.721
17164WAT     H251735   5.741   8.965   1.780
17165WAT      O51736   4.082   4.302   8.786
17165WAT     H151737   4.122   4.315   8.877
17165WAT     H251738   4.133   4.356   8.719
17166WAT      O51739   7.375   0.182   8.024
17166WAT     H151740   7.313   0.109   7.995
17166WAT     H251741   7.331   0.238   8.094
17167WAT      O51742   1.894   6.210   3.831
17167WAT     H151743   1.993   6.218   3.842
17167WAT     H251744   1.860   6.286   3.775
17168WAT      O51745   4.444   0.091   7.446
17168WAT     H151746   4.417   0.050   7.359
17168WAT     H251747   4.395   0.045   7.520
17169WAT      O51748   0.159   5.222   9.497
17169WAT     H151749   0.127   5.316   9.488
17169WAT     H251750   0.252   5.214   9.462
17170WAT      O51751   9.563   7.276   8.304
17170WAT     H151752   9.466   7.296   8.318
17170WAT     H251753   9.596   7.328   8.225
17171WAT      O51754   1.679   9.735   0.191
17171WAT     H151755   1.768   9.721   0.234
17171WAT     H251756   1.609   9.687   0.244
17172WAT      O51757   3.621   6.338   3.863
17172WAT     H151758   3.622   6.239   3.876
17172WAT     H251759   3.567   6.361   3.782
17173WAT      O51760   5.998   7.049   3.422
17173WAT     H151761   6.096   7.067   3.424
17173WAT     H251762   5.974   7.003   3.337
17174WAT      O51763   9.526   0.733   6.906
17174WAT     H151764   9.581   0.738   6.989
17174WAT     H251765   9.435   0.769   6.924
17175WAT      O51766   1.759   7.277   8.194
17175WAT     H151767   1.753   7.349   8.125
17175WAT     H251768   1.854   7.269   8.225
17176WAT      O51769   9.398   3.446   3.520
17176WAT     H151770   9.387   3.350   3.545
17176WAT     H251771   9.478   3.456   3.460
17177WAT      O51772   6.426   3.253   4.631
17177WAT     H151773   6.436   3.271   4.729
17177WAT     H251774   6.373   3.328   4.589
17178WAT      O51775   0.882   4.312   7.305
17178WAT     H151776   0.870   4.235   7.368
17178WAT     H251777   0.960   4.366   7.334
17179WAT      O51778   8.864   3.441   2.694
17179WAT     H151779   8.788   3.501   2.670
17179WAT     H251780   8.837   3.383   2.772
17180WAT      O51781   4.406   1.343   9.642
17180WAT     H151782   4.375   1.248   9.652
17180WAT     H251783   4.483   1.346   9.578
17181WAT      O51784   9.397   5.010   0.716
17181WAT     H151785   9.448   5.032   0.799
17181WAT     H251786   9.299   5.009   0.737
17182WAT      O51787   0.985   4.434   8.768
17182WAT     H151788   0.924   4.464   8.841
17182WAT     H251789   1.065   4.494   8.765
17183WAT      O51790   2.813   7.545   6.957
17183WAT     H151791   2.719   7.510   6.961
17183WAT     H251792   2.871   7.491   7.018
17184WAT      O51793   6.733   8.759   6.572
17184WAT     H151794   6.833   8.754   6.566
17184WAT     H251795   6.693   8.724   6.487
17185WAT      O51796   1.748   6.264   4.325
17185WAT     H151797   1.680   6.306   4.265
17185WAT     H251798   1.725   6.283   4.420
17186WAT      O51799   8.739   0.458   1.226
17186WAT     H151800   8.746   0.518   1.305
17186WAT     H251801   8.643   0.450   1.199
17187WAT      O51802   2.133   6.545   8.116
17187WAT     H151803   2.194   6.599   8.058
17187WAT     H251804   2.156   6.448   8.109
17188WAT      O51805   5.197   0.143   5.089
17188WAT     H151806   5.280   0.088   5.083
17188WAT     H251807   5.157   0.154   4.998
17189WAT      O51808   9.631   8.925   2.972
17189WAT     H151809   9.644   8.949   3.069
17189WAT     H251810   9.641   9.007   2.916
17190WAT      O51811   9.826   6.298   6.293
17190WAT     H151812   9.754   6.231   6.312
17190WAT     H251813   9.887   6.262   6.221
17191WAT      O51814   4.245   2.169   4.515
17191WAT     H151815   4.184   2.245   4.538
17191WAT     H251816   4.339   2.195   4.535
17192WAT      O51817   4.529   3.290   4.134
17192WAT     H151818   4.504   3.379   4.171
17192WAT     H251819   4.629   3.281   4.133
17193WAT      O51820   1.107   0.016   2.006
17193WAT     H151821   1.031   0.040   1.946
17193WAT     H251822   1.171   0.093   2.011
17194WAT      O51823   4.282   7.321   4.046
17194WAT     H151824   4.291   7.392   3.976
17194WAT     H251825   4.329   7.238   4.015
17195WAT      O51826   2.888   4.591   6.325
17195WAT     H151827   2.797   4.554   6.308
17195WAT     H251828   2.909   4.662   6.257
17196WAT      O51829   8.869   6.593   8.334
17196WAT     H151830   8.871   6.532   8.413
17196WAT     H251831   8.959   6.635   8.322
17197WAT      O51832   7.363   6.568   0.791
17197WAT     H151833   7.437   6.586   0.856
17197WAT     H251834   7.401   6.566   0.698
17198WAT      O51835   2.705   2.620   0.154
17198WAT     H151836   2.698   2.643   0.057
17198WAT     H251837   2.651   2.685   0.208
17199WAT      O51838   2.599   9.539   1.916
17199WAT     H151839   2.602   9.631   1.956
17199WAT     H251840   2.601   9.546   1.816
17200WAT      O51841   4.048   0.822   6.246
17200WAT     H151842   3.974   0.859   6.302
17200WAT     H251843   4.014   0.743   6.195
17201WAT      O51844   3.647   9.030   1.240
17201WAT     H151845   3.569   8.981   1.281
17201WAT     H251846   3.722   9.033   1.305
17202WAT      O51847   4.031   3.832   6.303
17202WAT     H151848   4.089   3.787   6.234
17202WAT     H251849   3.950   3.870   6.258
17203WAT      O51850   0.829   4.073   9.063
17203WAT     H151851   0.753   4.031   9.113
17203WAT     H251852   0.860   4.154   9.112
17204WAT      O51853   7.711   5.913   7.242
17204WAT     H151854   7.696   6.010   7.260
17204WAT     H251855   7.801   5.899   7.202
17205WAT      O51856   5.837   6.127   9.720
17205WAT     H151857   5.757   6.181   9.746
17205WAT     H251858   5.867   6.072   9.799
17206WAT      O51859   7.423   3.768   0.861
17206WAT     H151860   7.339   3.730   0.821
17206WAT     H251861   7.484   3.799   0.788
17207WAT      O51862   9.787   4.314   6.241
17207WAT     H151863   9.760   4.321   6.337
17207WAT     H251864   9.886   4.322   6.233
17208WAT      O51865   8.871   5.691   1.325
17208WAT     H151866   8.892   5.784   1.354
17208WAT     H251867   8.955   5.642   1.303
17209WAT      O51868   1.065   2.023   5.749
17209WAT     H151869   1.090   1.982   5.661
17209WAT     H251870   0.986   1.975   5.787
17210WAT      O51871   6.475   3.998   9.337
17210WAT     H151872   6.544   4.071   9.333
17210WAT     H251873   6.429   4.000   9.426
17211WAT      O51874   6.916   0.061   9.285
17211WAT     H151875   6.819   0.083   9.292
17211WAT     H251876   6.945   0.068   9.190
17212WAT      O51877   1.123   1.115   7.735
17212WAT     H151878   1.107   1.018   7.717
17212WAT     H251879   1.221   1.133   7.740
17213WAT      O51880   7.491   1.722   7.353
17213WAT     H151881   7.515   1.805   7.403
17213WAT     H251882   7.511   1.735   7.256
17214WAT      O51883   4.482   3.728   6.503
17214WAT     H151884   4.523   3.721   6.412
17214WAT     H251885   4.449   3.821   6.517
17215WAT      O51886   9.224   4.283   5.297
17215WAT     H151887   9.199   4.245   5.386
17215WAT     H251888   9.144   4.278   5.236
17216WAT      O51889   3.182   0.787   9.740
17216WAT     H151890   3.281   0.775   9.744
17216WAT     H251891   3.137   0.701   9.764
17217WAT      O51892   1.837   2.082   0.106
17217WAT     H151893   1.928   2.051   0.080
17217WAT     H251894   1.787   2.113   0.025
17218WAT      O51895   6.132   7.799   9.046
17218WAT     H151896   6.103   7.708   9.075
17218WAT     H251897   6.113   7.810   8.948
17219WAT      O51898   9.130   7.181   7.804
17219WAT     H151899   9.153   7.176   7.901
17219WAT     H251900   9.104   7.090   7.770
17220WAT      O51901   0.692   8.317   3.634
17220WAT     H151902   0.650   8.385   3.694
17220WAT     H251903   0.767   8.359   3.583
17221WAT      O51904   1.412   6.890   0.256
17221WAT     H151905   1.385   6.975   0.301
17221WAT     H251906   1.364   6.882   0.169
17222WAT      O51907   2.679   4.688   2.262
17222WAT     H151908   2.715   4.734   2.343
17222WAT     H251909   2.753   4.671   2.197
17223WAT      O51910   2.165   9.715   8.879
17223WAT     H151911   2.136   9.810   8.887
17223WAT     H251912   2.084   9.656   8.878
17224WAT      O51913   6.981   6.353   9.199
17224WAT     H151914   7.018   6.381   9.287
17224WAT     H251915   6.897   6.300   9.213
17225WAT      O51916   9.497   4.425   2.506
17225WAT     H151917   9.413   4.479   2.509
17225WAT     H251918   9.510   4.388   2.414
17226WAT      O51919   9.729   0.026   3.908
17226WAT     H151920   9.667  -0.052   3.906
17226WAT     H251921   9.816  -0.002   3.950
17227WAT      O51922   4.925   2.705   6.676
17227WAT     H151923   4.981   2.787   6.683
17227WAT     H251924   4.905   2.670   6.768
17228WAT      O51925   5.124   8.796   6.633
17228WAT     H151926   5.037   8.845   6.633
17228WAT     H251927   5.176   8.820   6.715
17229WAT      O51928   8.819   6.874   8.139
17229WAT     H151929   8.806   6.854   8.236
17229WAT     H251930   8.753   6.944   8.111
17230WAT      O51931   2.211   6.944   2.965
17230WAT     H151932   2.168   6.911   2.881
17230WAT     H251933   2.271   6.873   3.002
17231WAT      O51934   8.841   5.362   9.681
17231WAT     H151935   8.904   5.380   9.757
17231WAT     H251936   8.892   5.354   9.596
17232WAT      O51937   8.183   5.012   5.931
17232WAT     H151938   8.161   5.023   6.028
17232WAT     H251939   8.212   4.918   5.914
17233WAT      O51940   9.406   9.382   8.583
17233WAT     H151941   9.376   9.405   8.675
17233WAT     H251942   9.348   9.428   8.516
17234WAT      O51943   5.103   2.218   7.013
17234WAT     H151944   5.019   2.170   7.038
17234WAT     H251945   5.171   2.153   6.980
17235WAT      O51946   0.647   6.859   4.454
17235WAT     H151947   0.588   6.885   4.377
17235WAT     H251948   0.700   6.938   4.484
17236WAT      O51949   7.681   5.682   8.348
17236WAT     H151950   7.743   5.605   8.333
17236WAT     H251951   7.607   5.654   8.408
17237WAT      O51952   1.942   9.226   8.175
17237WAT     H151953   1.856   9.181   8.153
17237WAT     H251954   1.929   9.287   8.254
17238WAT      O51955   3.588   7.490   8.773
17238WAT     H151956   3.523   7.435   8.826
17238WAT     H251957   3.566   7.587   8.783
17239WAT      O51958   9.451   4.936   9.692
17239WAT     H151959   9.421   4.895   9.778
17239WAT     H251960   9.411   4.886   9.615
17240WAT      O51961   1.590   7.895   8.550
17240WAT     H151962   1.630   7.966   8.608
17240WAT     H251963   1.605   7.917   8.454
17241WAT      O51964   2.655   3.676   0.667
17241WAT     H151965   2.645   3.772   0.693
17241WAT     H251966   2.710   3.669   0.584
17242WAT      O51967   4.344   2.482   3.160
17242WAT     H151968   4.357   2.547   3.085
17242WAT     H251969   4.286   2.407   3.128
17243WAT      O51970   2.501   0.296   6.451
17243WAT     H151971   2.541   0.321   6.363
17243WAT     H251972   2.465   0.378   6.495
17244WAT      O51973   3.053   4.427   6.155
17244WAT     H151974   3.065   4.329   6.171
17244WAT     H251975   2.985   4.463   6.219
17245WAT      O51976   2.209   1.051   2.404
17245WAT     H151977   2.287   1.060   2.341
17245WAT     H251978   2.209   0.960   2.444
17246WAT      O51979   8.958   7.150   0.366
17246WAT     H151980   8.900   7.176   0.444
17246WAT     H251981   8.930   7.061   0.333
17247WAT      O51982   1.397   3.298   5.701
17247WAT     H151983   1.409   3.386   5.657
17247WAT     H251984   1.300   3.272   5.701
17248WAT      O51985   4.950   1.551   4.611
17248WAT     H151986   5.038   1.589   4.583
17248WAT     H251987   4.884   1.560   4.537
17249WAT      O51988   1.774   4.579   1.525
17249WAT     H151989   1.726   4.577   1.613
17249WAT     H251990   1.808   4.671   1.508
17250WAT      O51991   5.670   1.293   3.899
17250WAT     H151992   5.656   1.364   3.968
17250WAT     H251993   5.586   1.239   3.890
17251WAT      O51994   1.753   9.533   8.316
17251WAT     H151995   1.789   9.440   8.326
17251WAT     H251996   1.828   9.598   8.313
17252WAT      O51997   6.839   7.624   4.362
17252WAT     H151998   6.926   7.674   4.354
17252WAT     H251999   6.785   7.664   4.436
17253WAT      O52000   6.692   7.613   7.958
17253WAT     H152001   6.743   7.546   8.011
17253WAT     H252002   6.754   7.664   7.899
17254WAT      O52003   0.902   8.974   5.256
17254WAT     H152004   0.910   8.974   5.156
17254WAT     H252005   0.855   9.057   5.286
17255WAT      O52006   2.301   6.642   5.862
17255WAT     H152007   2.246   6.610   5.784
17255WAT     H252008   2.351   6.725   5.835
17256WAT      O52009   0.391   5.676   2.284
17256WAT     H152010   0.443   5.698   2.202
17256WAT     H252011   0.449   5.685   2.364
17257WAT      O52012   9.013   6.868   3.429
17257WAT     H152013   9.051   6.890   3.518
17257WAT     H252014   8.989   6.771   3.425
17258WAT      O52015   6.255   8.186   5.572
17258WAT     H152016   6.291   8.277   5.593
17258WAT     H252017   6.293   8.155   5.484
17259WAT      O52018   6.558   1.892   2.229
17259WAT     H152019   6.589   1.969   2.174
17259WAT     H252020   6.458   1.894   2.237
17260WAT      O52021   4.025   6.610   2.055
17260WAT     H152022   4.079   6.695   2.056
17260WAT     H252023   4.084   6.534   2.028
17261WAT      O52024   1.472   4.079   7.089
17261WAT     H152025   1.425   3.991   7.089
17261WAT     H252026   1.417   4.146   7.139
17262WAT      O52027   8.548   8.060   8.972
17262WAT     H152028   8.562   8.149   9.016
17262WAT     H252029   8.529   8.073   8.875
17263WAT      O52030   0.872   0.997   8.951
17263WAT     H152031   0.940   1.033   9.015
17263WAT     H252032   0.805   0.941   9.001
17264WAT      O52033   6.542   7.045   7.969
17264WAT     H152034   6.616   7.097   8.012
17264WAT     H252035   6.500   7.100   7.896
17265WAT      O52036   9.081   1.218   0.875
17265WAT     H152037   8.998   1.199   0.928
17265WAT     H252038   9.160   1.179   0.923
17266WAT      O52039   8.275   9.391   3.382
17266WAT     H152040   8.203   9.460   3.371
17266WAT     H252041   8.269   9.352   3.474
17267WAT      O52042   2.335   6.392   4.041
17267WAT     H152043   2.313   6.489   4.051
17267WAT     H252044   2.302   6.342   4.121
17268WAT      O52045   3.766   5.304   3.377
17268WAT     H152046   3.699   5.253   3.323
17268WAT     H252047   3.856   5.261   3.366
17269WAT      O52048   5.690   6.180   3.889
17269WAT     H152049   5.685   6.280   3.890
17269WAT     H252050   5.617   6.144   3.830
17270WAT      O52051   1.146   1.714   7.258
17270WAT     H152052   1.087   1.638   7.287
17270WAT     H252053   1.105   1.801   7.286
17271WAT      O52054   6.501   9.311   5.962
17271WAT     H152055   6.429   9.300   6.030
17271WAT     H252056   6.549   9.397   5.977
17272WAT      O52057   3.221   9.495   6.281
17272WAT     H152058   3.180   9.573   6.328
17272WAT     H252059   3.153   9.423   6.271
17273WAT      O52060   1.181   3.570   3.649
17273WAT     H152061   1.130   3.604   3.728
17273WAT     H252062   1.189   3.470   3.655
17274WAT      O52063   4.296   9.414   2.921
17274WAT     H152064   4.267   9.366   2.839
17274WAT     H252065   4.390   9.445   2.910
17275WAT      O52066   7.769   5.753   1.406
17275WAT     H152067   7.698   5.782   1.469
17275WAT     H252068   7.791   5.827   1.342
17276WAT      O52069   1.951   6.389   2.535
17276WAT     H152070   1.997   6.432   2.457
17276WAT     H252071   1.958   6.289   2.527
17277WAT      O52072   5.673   8.148   4.449
17277WAT     H152073   5.635   8.058   4.470
17277WAT     H252074   5.768   8.152   4.479
17278WAT      O52075   8.252   5.827   3.498
17278WAT     H152076   8.222   5.804   3.405
17278WAT     H252077   8.351   5.845   3.497
17279WAT      O52078   9.730   6.907   5.906
17279WAT     H152079   9.704   6.930   5.999
17279WAT     H252080   9.785   6.981   5.867
17280WAT      O52081   7.656   1.272   5.571
17280WAT     H152082   7.588   1.342   5.595
17280WAT     H252083   7.662   1.206   5.646
17281WAT      O52084   7.509   8.312   8.890
17281WAT     H152085   7.445   8.352   8.956
17281WAT     H252086   7.461   8.294   8.804
17282WAT      O52087   7.081   6.422   9.450
17282WAT     H152088   7.080   6.506   9.504
17282WAT     H252089   7.167   6.373   9.464
17283WAT      O52090   7.832   2.143   0.755
17283WAT     H152091   7.763   2.193   0.808
17283WAT     H252092   7.826   2.172   0.659
17284WAT      O52093   1.731   8.867   7.973
17284WAT     H152094   1.659   8.910   7.920
17284WAT     H252095   1.697   8.782   8.013
17285WAT      O52096   0.581   5.209   4.620
17285WAT     H152097   0.543   5.235   4.709
17285WAT     H252098   0.541   5.122   4.591
17286WAT      O52099   9.320   3.188   8.179
17286WAT     H152100   9.397   3.124   8.183
17286WAT     H252101   9.343   3.264   8.117
17287WAT      O52102   2.569   5.518   9.408
17287WAT     H152103   2.497   5.587   9.397
17287WAT     H252104   2.581   5.498   9.505
17288WAT      O52105   5.270   8.996   3.650
17288WAT     H152106   5.188   8.939   3.648
17288WAT     H252107   5.255   9.075   3.709
17289WAT      O52108   7.206   8.979   6.200
17289WAT     H152109   7.138   8.908   6.184
17289WAT     H252110   7.172   9.066   6.165
17290WAT      O52111   9.228   3.507   8.338
17290WAT     H152112   9.258   3.493   8.432
17290WAT     H252113   9.307   3.528   8.280
17291WAT      O52114   9.438   9.735   2.386
17291WAT     H152115   9.389   9.720   2.472
17291WAT     H252116   9.448   9.833   2.370
17292WAT      O52117   3.138   1.581   5.995
17292WAT     H152118   3.147   1.580   6.095
17292WAT     H252119   3.178   1.498   5.957
17293WAT      O52120   1.615   4.997   5.252
17293WAT     H152121   1.535   5.015   5.195
17293WAT     H252122   1.626   4.898   5.262
17294WAT      O52123   4.990   5.743   6.861
17294WAT     H152124   5.045   5.730   6.779
17294WAT     H252125   4.918   5.810   6.843
17295WAT      O52126   8.874   3.699   5.179
17295WAT     H152127   8.869   3.791   5.142
17295WAT     H252128   8.911   3.637   5.110
17296WAT      O52129   7.225   4.361   5.259
17296WAT     H152130   7.166   4.440   5.243
17296WAT     H252131   7.215   4.296   5.184
17297WAT      O52132   9.668   2.666   4.611
17297WAT     H152133   9.653   2.662   4.710
17297WAT     H252134   9.659   2.575   4.571
17298WAT      O52135   5.142   9.183   6.601
17298WAT     H152136   5.077   9.117   6.637
17298WAT     H252137   5.219   9.192   6.664
17299WAT      O52138   1.252   7.753   9.418
17299WAT     H152139   1.332   7.724   9.471
17299WAT     H252140   1.210   7.832   9.462
17300WAT      O52141   2.627   7.722   7.141
17300WAT     H152142   2.720   7.720   7.177
17300WAT     H252143   2.581   7.805   7.172
17301WAT      O52144   5.514   7.773   0.394
17301WAT     H152145   5.578   7.839   0.354
17301WAT     H252146   5.553   7.681   0.389
17302WAT      O52147   5.256   2.130   4.212
17302WAT     H152148   5.220   2.061   4.149
17302WAT     H252149   5.188   2.148   4.283
17303WAT      O52150   5.623   6.592   6.536
17303WAT     H152151   5.581   6.519   6.591
17303WAT     H252152   5.678   6.551   6.464
17304WAT      O52153   9.711   6.145   2.303
17304WAT     H152154   9.667   6.069   2.255
17304WAT     H252155   9.662   6.164   2.388
17305WAT      O52156   6.261   2.794   4.406
17305WAT     H152157   6.218   2.842   4.483
17305WAT     H252158   6.202   2.801   4.326
17306WAT      O52159   2.984   3.364   8.649
17306WAT     H152160   2.934   3.376   8.563
17306WAT     H252161   3.031   3.276   8.648
17307WAT      O52162   2.977   8.899   3.015
17307WAT     H152163   2.897   8.952   2.986
17307WAT     H252164   2.961   8.862   3.106
17308WAT      O52165   3.763   4.926   2.172
17308WAT     H152166   3.803   5.001   2.119
17308WAT     H252167   3.818   4.843   2.160
17309WAT      O52168   1.043   6.677   8.619
17309WAT     H152169   0.985   6.642   8.693
17309WAT     H252170   1.139   6.673   8.648
17310WAT      O52171   7.658   6.802   1.070
17310WAT     H152172   7.735   6.846   1.023
17310WAT     H252173   7.584   6.867   1.082
17311WAT      O52174   5.141   7.307   9.158
17311WAT     H152175   5.195   7.390   9.146
17311WAT     H252176   5.085   7.292   9.077
17312WAT      O52177   9.049   2.376   8.388
17312WAT     H152178   9.005   2.331   8.311
17312WAT     H252179   9.115   2.314   8.430
17313WAT      O52180   6.438   5.366   2.488
17313WAT     H152181   6.450   5.296   2.559
17313WAT     H252182   6.394   5.324   2.408
17314WAT      O52183   8.522   3.390   5.656
17314WAT     H152184   8.541   3.438   5.570
17314WAT     H252185   8.486   3.299   5.636
17315WAT      O52186   0.543   0.703   4.779
17315WAT     H152187   0.478   0.772   4.810
17315WAT     H252188   0.560   0.713   4.681
17316WAT      O52189   9.626   2.887   4.341
17316WAT     H152190   9.577   2.818   4.395
17316WAT     H252191   9.721   2.892   4.373
17317WAT      O52192   5.099   2.159   8.246
17317WAT     H152193   5.022   2.212   8.281
17317WAT     H252194   5.066   2.078   8.199
17318WAT      O52195   0.104   2.196   5.702
17318WAT     H152196   0.146   2.286   5.696
17318WAT     H252197   0.006   2.203   5.683
17319WAT      O52198   6.051   8.949   5.140
17319WAT     H152199   6.051   8.988   5.232
17319WAT     H252200   5.996   8.866   5.139
17320WAT      O52201   0.072   9.053   5.777
17320WAT     H152202   0.135   9.012   5.843
17320WAT     H252203   0.118   9.126   5.728
17321WAT      O52204   4.518   9.678   7.121
17321WAT     H152205   4.514   9.653   7.025
17321WAT     H252206   4.429   9.712   7.151
17322WAT      O52207   7.005   1.992   8.201
17322WAT     H152208   7.019   1.963   8.106
17322WAT     H252209   6.908   2.007   8.217
17323WAT      O52210   7.664   5.001   2.185
17323WAT     H152211   7.735   4.997   2.256
17323WAT     H252212   7.706   5.028   2.099
17324WAT      O52213   5.194   8.775   7.115
17324WAT     H152214   5.176   8.847   7.182
17324WAT     H252215   5.241   8.699   7.160
17325WAT      O52216   6.997   5.278   8.499
17325WAT     H152217   6.922   5.329   8.456
17325WAT     H252218   7.027   5.325   8.582
17326WAT      O52219   3.159   8.598   2.411
17326WAT     H152220   3.222   8.650   2.469
17326WAT     H252221   3.188   8.606   2.316
17327WAT      O52222   2.594   9.793   0.768
17327WAT     H152223   2.664   9.854   0.731
17327WAT     H252224   2.547   9.837   0.844
17328WAT      O52225   1.020   5.914   5.499
17328WAT     H152226   1.075   5.986   5.542
17328WAT     H252227   1.067   5.880   5.418
17329WAT      O52228   4.425   3.037   9.386
17329WAT     H152229   4.443   3.114   9.324
17329WAT     H252230   4.488   2.962   9.366
17330WAT      O52231   7.829   5.140   2.548
17330WAT     H152232   7.741   5.127   2.593
17330WAT     H252233   7.854   5.056   2.499
17331WAT      O52234   9.393   3.943   5.033
17331WAT     H152235   9.468   3.899   4.983
17331WAT     H252236   9.336   3.873   5.076
17332WAT      O52237   0.656   7.579   1.480
17332WAT     H152238   0.564   7.580   1.441
17332WAT     H252239   0.669   7.658   1.539
17333WAT      O52240   7.601   8.077   8.349
17333WAT     H152241   7.527   8.088   8.283
17333WAT     H252242   7.563   8.045   8.436
17334WAT      O52243   0.579   3.194   4.743
17334WAT     H152244   0.487   3.229   4.759
17334WAT     H252245   0.575   3.108   4.693
17335WAT      O52246   9.425   0.355   9.886
17335WAT     H152247   9.377   0.392   9.965
17335WAT     H252248   9.495   0.290   9.916
17336WAT      O52249   8.224   5.845   3.802
17336WAT     H152250   8.145   5.807   3.852
17336WAT     H252251   8.204   5.847   3.704
17337WAT      O52252   6.154   1.751   8.280
17337WAT     H152253   6.246   1.788   8.289
17337WAT     H252254   6.113   1.740   8.371
17338WAT      O52255   0.758   6.627   0.246
17338WAT     H152256   0.664   6.662   0.245
17338WAT     H252257   0.820   6.696   0.210
17339WAT      O52258   0.273   5.377   4.735
17339WAT     H152259   0.265   5.477   4.739
17339WAT     H252260   0.365   5.350   4.762
17340WAT      O52261   0.392   7.034   4.969
17340WAT     H152262   0.309   7.036   5.024
17340WAT     H252263   0.470   7.013   5.028
17341WAT      O52264   5.543   6.529   1.171
17341WAT     H152265   5.459   6.501   1.217
17341WAT     H252266   5.533   6.513   1.072
17342WAT      O52267   9.858   4.228   4.693
17342WAT     H152268   9.821   4.252   4.783
17342WAT     H252269   9.786   4.235   4.624
17343WAT      O52270   8.237   4.693   6.379
17343WAT     H152271   8.139   4.678   6.370
17343WAT     H252272   8.262   4.779   6.335
17344WAT      O52273   1.666   6.025   5.002
17344WAT     H152274   1.729   5.966   5.052
17344WAT     H252275   1.620   5.973   4.930
17345WAT      O52276   4.616   8.347   8.259
17345WAT     H152277   4.521   8.321   8.275
17345WAT     H252278   4.641   8.422   8.319
17346WAT      O52279   3.134   5.360   8.308
17346WAT     H152280   3.092   5.319   8.227
17346WAT     H252281   3.092   5.321   8.390
17347WAT      O52282   1.998   7.929   0.825
17347WAT     H152283   1.899   7.925   0.809
17347WAT     H252284   2.026   8.025   0.832
17348WAT      O52285   9.264   7.936   5.136
17348WAT     H152286   9.304   7.896   5.219
17348WAT     H252287   9.222   7.863   5.081
17349WAT      O52288   4.852   8.859   5.710
17349WAT     H152289   4.776   8.795   5.715
17349WAT     H252290   4.825   8.946   5.750
17350WAT      O52291   1.800   3.613   6.934
17350WAT     H152292   1.754   3.687   6.885
17350WAT     H252293   1.874   3.652   6.990
17351WAT      O52294   3.887   8.812   8.753
17351WAT     H152295   3.846   8.820   8.844
17351WAT     H252296   3.877   8.717   8.721
17352WAT      O52297   3.436   8.359   2.799
17352WAT     H152298   3.479   8.370   2.889
17352WAT     H252299   3.348   8.314   2.809
17353WAT      O52300   9.029   8.521   7.687
17353WAT     H152301   9.030   8.532   7.588
17353WAT     H252302   9.109   8.469   7.716
17354WAT      O52303   8.697   0.027   3.519
17354WAT     H152304   8.764   0.060   3.585
17354WAT     H252305   8.685  -0.072   3.531
17355WAT      O52306   0.975   8.930   8.226
17355WAT     H152307   1.025   9.013   8.203
17355WAT     H252308   1.038   8.863   8.267
17356WAT      O52309   4.088   7.272   0.073
17356WAT     H152310   4.006   7.329   0.065
17356WAT     H252311   4.167   7.322   0.037
17357WAT      O52312   6.057   0.032   1.036
17357WAT     H152313   5.966   0.051   1.074
17357WAT     H252314   6.126   0.042   1.108
17358WAT      O52315   3.291   1.258   4.798
17358WAT     H152316   3.257   1.250   4.892
17358WAT     H252317   3.302   1.167   4.759
17359WAT      O52318   4.141   0.475   8.611
17359WAT     H152319   4.111   0.408   8.679
17359WAT     H252320   4.118   0.443   8.520
17360WAT      O52321   3.814   2.501   9.853
17360WAT     H152322   3.870   2.421   9.835
17360WAT     H252323   3.718   2.479   9.835
17361WAT      O52324   2.285   3.808   3.897
17361WAT     H152325   2.212   3.750   3.859
17361WAT     H252326   2.315   3.873   3.828
17362WAT      O52327   0.818   8.809   0.881
17362WAT     H152328   0.751   8.736   0.882
17362WAT     H252329   0.814   8.860   0.967
17363WAT      O52330   6.363   7.026   1.001
17363WAT     H152331   6.428   7.005   1.074
17363WAT     H252332   6.294   6.953   0.997
17364WAT      O52333   3.443   1.434   6.662
17364WAT     H152334   3.468   1.524   6.628
17364WAT     H252335   3.437   1.436   6.761
17365WAT      O52336   0.315   2.902   4.951
17365WAT     H152337   0.305   2.992   4.907
17365WAT     H252338   0.245   2.891   5.021
17366WAT      O52339   5.883   2.993   8.515
17366WAT     H152340   5.945   2.927   8.472
17366WAT     H252341   5.927   3.082   8.519
17367WAT      O52342   2.513   5.103   5.331
17367WAT     H152343   2.437   5.053   5.371
17367WAT     H252344   2.511   5.092   5.231
17368WAT      O52345   4.351   8.509   7.666
17368WAT     H152346   4.409   8.579   7.624
17368WAT     H252347   4.380   8.418   7.635
17369WAT      O52348   3.234   5.421   0.698
17369WAT     H152349   3.182   5.457   0.775
17369WAT     H252350   3.177   5.356   0.647
17370WAT      O52351   4.226   8.609   3.710
17370WAT     H152352   4.275   8.614   3.623
17370WAT     H252353   4.274   8.546   3.771
17371WAT      O52354   0.016   2.318   4.010
17371WAT     H152355  -0.052   2.385   4.039
17371WAT     H252356   0.086   2.363   3.955
17372WAT      O52357   7.592   3.316   7.075
17372WAT     H152358   7.573   3.313   7.173
17372WAT     H252359   7.653   3.241   7.050
17373WAT      O52360   7.124   2.270   9.856
17373WAT     H152361   7.074   2.196   9.901
17373WAT     H252362   7.100   2.357   9.899
17374WAT      O52363   0.769   9.813   4.125
17374WAT     H152364   0.854   9.863   4.139
17374WAT     H252365   0.704   9.871   4.076
17375WAT      O52366   4.545   9.550   5.953
17375WAT     H152367   4.459   9.530   6.000
17375WAT     H252368   4.540   9.517   5.859
17376WAT      O52369   0.482   4.848   4.235
17376WAT     H152370   0.515   4.756   4.217
17376WAT     H252371   0.461   4.894   4.148
17377WAT      O52372   5.898   2.896   2.956
17377WAT     H152373   5.951   2.874   2.875
17377WAT     H252374   5.801   2.897   2.934
17378WAT      O52375   7.459   0.607   1.468
17378WAT     H152376   7.505   0.572   1.386
17378WAT     H252377   7.410   0.691   1.446
17379WAT      O52378   2.244   1.366   4.577
17379WAT     H152379   2.223   1.280   4.532
17379WAT     H252380   2.266   1.435   4.508
17380WAT      O52381   0.875   2.616   9.152
17380WAT     H152382   0.969   2.606   9.119
17380WAT     H252383   0.812   2.598   9.077
17381WAT      O52384   7.502   3.394   8.413
17381WAT     H152385   7.431   3.323   8.423
17381WAT     H252386   7.584   3.365   8.461
17382WAT      O52387   4.052   4.380   6.820
17382WAT     H152388   4.136   4.388   6.874
17382WAT     H252389   4.072   4.402   6.724
17383WAT      O52390   8.954   2.781   3.649
17383WAT     H152391   8.971   2.858   3.711
17383WAT     H252392   8.945   2.816   3.556
17384WAT      O52393   4.982   7.585   3.637
17384WAT     H152394   4.969   7.487   3.649
17384WAT     H252395   5.013   7.603   3.543
17385WAT      O52396   2.268   4.222   8.287
17385WAT     H152397   2.312   4.182   8.206
17385WAT     H252398   2.294   4.171   8.368
17386WAT      O52399   1.750   0.867   4.636
17386WAT     H152400   1.808   0.817   4.700
17386WAT     H252401   1.709   0.946   4.682
17387WAT      O52402   7.139   2.532   6.574
17387WAT     H152403   7.100   2.577   6.494
17387WAT     H252404   7.232   2.567   6.589
17388WAT      O52405   4.113   2.107   4.227
17388WAT     H152406   4.095   2.170   4.303
17388WAT     H252407   4.165   2.155   4.157
17389WAT      O52408   4.392   1.422   4.886
17389WAT     H152409   4.385   1.474   4.801
17389WAT     H252410   4.421   1.482   4.960
17390WAT      O52411   9.683   8.176   7.113
17390WAT     H152412   9.721   8.095   7.069
17390WAT     H252413   9.588   8.188   7.084
17391WAT      O52414   5.703   5.882   4.291
17391WAT     H152415   5.641   5.934   4.349
17391WAT     H252416   5.716   5.790   4.330
17392WAT      O52417   0.399   5.271   2.604
17392WAT     H152418   0.303   5.260   2.576
17392WAT     H252419   0.427   5.189   2.655
17393WAT      O52420   5.959   2.973   1.251
17393WAT     H152421   5.907   2.890   1.230
17393WAT     H252422   5.919   3.050   1.202
17394WAT      O52423   1.746   9.560   1.272
17394WAT     H152424   1.652   9.527   1.270
17394WAT     H252425   1.809   9.482   1.271
17395WAT      O52426   0.160   8.149   3.210
17395WAT     H152427   0.115   8.226   3.164
17395WAT     H252428   0.109   8.065   3.192
17396WAT      O52429   7.528   1.007   8.788
17396WAT     H152430   7.527   0.913   8.753
17396WAT     H252431   7.435   1.043   8.787
17397WAT      O52432   6.418   6.183   8.302
17397WAT     H152433   6.404   6.195   8.400
17397WAT     H252434   6.378   6.261   8.252
17398WAT      O52435   9.852   7.164   8.851
17398WAT     H152436   9.909   7.230   8.900
17398WAT     H252437   9.784   7.213   8.797
17399WAT      O52438   1.113   7.264   9.067
17399WAT     H152439   1.129   7.166   9.079
17399WAT     H252440   1.196   7.315   9.089
17400WAT      O52441   5.645   7.095   8.331
17400WAT     H152442   5.641   7.037   8.412
17400WAT     H252443   5.678   7.186   8.355
17401WAT      O52444   4.589   8.801   3.065
17401WAT     H152445   4.518   8.852   3.016
17401WAT     H252446   4.678   8.823   3.025
17402WAT      O52447   9.092   1.126   7.380
17402WAT     H152448   9.177   1.098   7.426
17402WAT     H252449   9.074   1.065   7.303
17403WAT      O52450   6.021   7.606   9.205
17403WAT     H152451   5.942   7.613   9.265
17403WAT     H252452   6.041   7.510   9.187
17404WAT      O52453   3.723   8.558   5.276
17404WAT     H152454   3.643   8.501   5.256
17404WAT     H252455   3.787   8.506   5.333
17405WAT      O52456   6.125   9.555   2.258
17405WAT     H152457   6.198   9.598   2.312
17405WAT     H252458   6.081   9.484   2.313
17406WAT      O52459   4.030   5.001   1.755
17406WAT     H152460   4.071   5.051   1.678
17406WAT     H252461   4.101   4.975   1.820
17407WAT      O52462   1.418   3.353   4.645
17407WAT     H152463   1.487   3.364   4.573
17407WAT     H252464   1.394   3.443   4.682
17408WAT      O52465   3.883   2.519   5.692
17408WAT     H152466   3.849   2.588   5.629
17408WAT     H252467   3.977   2.495   5.669
17409WAT      O52468   9.082   2.560   4.286
17409WAT     H152469   9.042   2.649   4.268
17409WAT     H252470   9.020   2.505   4.342
17410WAT      O52471   4.452   5.820   0.831
17410WAT     H152472   4.404   5.905   0.852
17410WAT     H252473   4.391   5.760   0.779
17411WAT      O52474   2.635   5.477   2.247
17411WAT     H152475   2.694   5.534   2.191
17411WAT     H252476   2.559   5.443   2.192
17412WAT      O52477   5.002   8.828   0.316
17412WAT     H152478   4.915   8.802   0.275
17412WAT     H252479   5.062   8.867   0.246
17413WAT      O52480   3.255   4.240   1.120
17413WAT     H152481   3.289   4.298   1.046
17413WAT     H252482   3.317   4.247   1.199
17414WAT      O52483   2.673   9.142   4.090
17414WAT     H152484   2.620   9.219   4.125
17414WAT     H252485   2.687   9.076   4.164
17415WAT      O52486   7.755   2.414   8.161
17415WAT     H152487   7.666   2.446   8.129
17415WAT     H252488   7.819   2.491   8.165
17416WAT      O52489   2.172   7.931   1.460
17416WAT     H152490   2.191   7.869   1.536
17416WAT     H252491   2.247   7.926   1.393
17417WAT      O52492   2.076   3.035   6.205
17417WAT     H152493   1.978   3.017   6.201
17417WAT     H252494   2.111   3.008   6.295
17418WAT      O52495   4.303   3.178   0.984
17418WAT     H152496   4.347   3.091   1.006
17418WAT     H252497   4.291   3.232   1.067
17419WAT      O52498   0.616   7.152   7.511
17419WAT     H152499   0.532   7.197   7.540
17419WAT     H252500   0.604   7.115   7.419
17420WAT      O52501   7.340   6.029   9.486
17420WAT     H152502   7.404   5.982   9.424
17420WAT     H252503   7.248   5.992   9.472
17421WAT      O52504   5.659   0.254   9.034
17421WAT     H152505   5.618   0.319   9.098
17421WAT     H252506   5.673   0.298   8.946
17422WAT      O52507   5.711   5.461   5.619
17422WAT     H152508   5.808   5.453   5.644
17422WAT     H252509   5.662   5.512   5.689
17423WAT      O52510   3.482   3.896   9.018
17423WAT     H152511   3.453   3.821   9.078
17423WAT     H252512   3.497   3.861   8.926
17424WAT      O52513   1.705   5.728   0.660
17424WAT     H152514   1.681   5.789   0.584
17424WAT     H252515   1.797   5.748   0.691
17425WAT      O52516   9.031   0.864   0.774
17425WAT     H152517   9.070   0.833   0.687
17425WAT     H252518   9.102   0.862   0.845
17426WAT      O52519   2.516   2.318   6.976
17426WAT     H152520   2.491   2.405   6.932
17426WAT     H252521   2.530   2.333   7.074
17427WAT      O52522   2.997   7.522   3.783
17427WAT     H152523   2.942   7.605   3.776
17427WAT     H252524   3.021   7.506   3.878
17428WAT      O52525   4.863   6.097   8.158
17428WAT     H152526   4.781   6.044   8.139
17428WAT     H252527   4.924   6.044   8.217
17429WAT      O52528   9.816   3.219   6.363
17429WAT     H152529   9.717   3.206   6.355
17429WAT     H252530   9.835   3.317   6.368
17430WAT      O52531   0.161   3.316   2.168
17430WAT     H152532   0.093   3.390   2.164
17430WAT     H252533   0.239   3.340   2.110
17431WAT      O52534   3.376   2.299   1.628
17431WAT     H152535   3.285   2.274   1.594
17431WAT     H252536   3.410   2.227   1.689
17432WAT      O52537   6.948   2.565   8.365
17432WAT     H152538   7.025   2.539   8.423
17432WAT     H252539   6.942   2.503   8.286
17433WAT      O52540   0.342   4.795   6.516
17433WAT     H152541   0.273   4.735   6.557
17433WAT     H252542   0.430   4.782   6.563
17434WAT      O52543   6.474   5.631   2.876
17434WAT     H152544   6.565   5.592   2.885
17434WAT     H252545   6.454   5.688   2.956
17435WAT      O52546   8.816   2.683   7.637
17435WAT     H152547   8.746   2.660   7.705
17435WAT     H252548   8.781   2.752   7.574
17436WAT      O52549   1.358   9.311   0.939
17436WAT     H152550   1.344   9.241   0.868
17436WAT     H252551   1.431   9.281   1.000
17437WAT      O52552   0.432   3.331   5.822
17437WAT     H152553   0.359   3.263   5.821
17437WAT     H252554   0.495   3.314   5.747
17438WAT      O52555   4.127   4.373   7.378
17438WAT     H152556   4.215   4.329   7.362
17438WAT     H252557   4.137   4.472   7.371
17439WAT      O52558   6.634   1.474   5.046
17439WAT     H152559   6.615   1.498   5.141
17439WAT     H252560   6.598   1.383   5.027
17440WAT      O52561   4.443   3.994   2.313
17440WAT     H152562   4.367   4.049   2.345
17440WAT     H252563   4.507   3.976   2.388
17441WAT      O52564   3.593   3.598   9.798
17441WAT     H152565   3.678   3.563   9.837
17441WAT     H252566   3.533   3.522   9.776
17442WAT      O52567   1.057   1.339   3.677
17442WAT     H152568   1.140   1.339   3.621
17442WAT     H252569   0.976   1.347   3.618
17443WAT      O52570   0.698   0.625   3.154
17443WAT     H152571   0.779   0.570   3.171
17443WAT     H252572   0.629   0.571   3.106
17444WAT      O52573   3.503   5.686   6.241
17444WAT     H152574   3.413   5.693   6.199
17444WAT     H252575   3.563   5.631   6.183
17445WAT      O52576   2.888   1.327   8.031
17445WAT     H152577   2.941   1.249   8.067
17445WAT     H252578   2.866   1.389   8.106
17446WAT      O52579   3.609   2.787   9.670
17446WAT     H152580   3.516   2.761   9.647
17446WAT     H252581   3.621   2.781   9.770
17447WAT      O52582   2.099   2.719   6.422
17447WAT     H152583   2.084   2.818   6.416
17447WAT     H252584   2.165   2.700   6.494
17448WAT      O52585   0.945   4.644   9.873
17448WAT     H152586   0.900   4.558   9.851
17448WAT     H252587   0.881   4.705   9.920
17449WAT      O52588   9.218   2.916   0.579
17449WAT     H152589   9.206   2.953   0.671
17449WAT     H252590   9.150   2.957   0.518
17450WAT      O52591   1.166   3.976   2.031
17450WAT     H152592   1.082   4.030   2.026
17450WAT     H252593   1.244   4.037   2.050
17451WAT      O52594   3.662   2.738   6.440
17451WAT     H152595   3.748   2.686   6.438
17451WAT     H252596   3.645   2.778   6.351
17452WAT      O52597   4.762   1.718   9.143
17452WAT     H152598   4.762   1.624   9.176
17452WAT     H252599   4.771   1.780   9.221
17453WAT      O52600   1.941   1.935   6.994
17453WAT     H152601   2.028   1.921   7.042
17453WAT     H252602   1.896   1.847   6.980
17454WAT      O52603   9.549   6.729   5.352
17454WAT     H152604   9.466   6.685   5.318
17454WAT     H252605   9.551   6.824   5.320
17455WAT      O52606   0.262   4.070   8.346
17455WAT     H152607   0.252   4.065   8.446
17455WAT     H252608   0.240   3.981   8.306
17456WAT      O52609   2.434   6.804   0.740
17456WAT     H152610   2.343   6.775   0.710
17456WAT     H252611   2.492   6.820   0.660
17457WAT      O52612   9.049   8.126   7.674
17457WAT     H152613   8.991   8.071   7.613
17457WAT     H252614   9.126   8.071   7.705
17458WAT      O52615   6.927   6.096   5.032
17458WAT     H152616   6.992   6.090   5.108
17458WAT     H252617   6.887   6.005   5.016
17459WAT      O52618   8.892   2.398   3.202
17459WAT     H152619   8.877   2.496   3.191
17459WAT     H252620   8.948   2.364   3.126
17460WAT      O52621   5.627   0.133   6.924
17460WAT     H152622   5.726   0.121   6.921
17460WAT     H252623   5.582   0.046   6.905
17461WAT      O52624   7.935   3.346   5.525
17461WAT     H152625   8.023   3.391   5.536
17461WAT     H252626   7.931   3.264   5.582
17462WAT      O52627   6.136   7.835   3.610
17462WAT     H152628   6.187   7.839   3.697
17462WAT     H252629   6.067   7.763   3.616
17463WAT      O52630   5.637   8.846   9.302
17463WAT     H152631   5.615   8.749   9.307
17463WAT     H252632   5.553   8.899   9.299
17464WAT      O52633   0.487   3.957   7.976
17464WAT     H152634   0.583   3.964   7.948
17464WAT     H252635   0.482   3.913   8.066
17465WAT      O52636   9.582   7.056   3.950
17465WAT     H152637   9.597   6.958   3.963
17465WAT     H252638   9.657   7.094   3.896
17466WAT      O52639   8.622   0.689   0.451
17466WAT     H152640   8.543   0.728   0.499
17466WAT     H252641   8.601   0.679   0.354
17467WAT      O52642   3.399   9.609   7.763
17467WAT     H152643   3.409   9.633   7.860
17467WAT     H252644   3.427   9.686   7.706
17468WAT      O52645   7.833   0.424   0.820
17468WAT     H152646   7.927   0.415   0.787
17468WAT     H252647   7.770   0.384   0.753
17469WAT      O52648   0.624   1.901   1.389
17469WAT     H152649   0.589   1.905   1.295
17469WAT     H252650   0.563   1.952   1.449
17470WAT      O52651   8.130   8.994   5.071
17470WAT     H152652   8.153   8.971   4.977
17470WAT     H252653   8.208   9.042   5.113
17471WAT      O52654   3.624   9.377   4.127
17471WAT     H152655   3.671   9.418   4.050
17471WAT     H252656   3.531   9.414   4.133
17472WAT      O52657   9.816   4.519   1.007
17472WAT     H152658   9.738   4.491   1.062
17472WAT     H252659   9.812   4.617   0.991
17473WAT      O52660   3.364   2.301   8.692
17473WAT     H152661   3.415   2.386   8.681
17473WAT     H252662   3.365   2.274   8.788
17474WAT      O52663   0.716   6.368   0.172
17474WAT     H152664   0.725   6.464   0.198
17474WAT     H252665   0.630   6.332   0.207
17475WAT      O52666   2.023   4.035   4.996
17475WAT     H152667   1.946   3.974   4.977
17475WAT     H252668   2.106   3.999   4.954
17476WAT      O52669   1.784   8.387   2.360
17476WAT     H152670   1.784   8.358   2.456
17476WAT     H252671   1.831   8.317   2.305
17477WAT      O52672   9.199   0.172   2.477
17477WAT     H152673   9.166   0.266   2.462
17477WAT     H252674   9.122   0.108   2.469
17478WAT      O52675   6.208   1.396   9.512
17478WAT     H152676   6.268   1.473   9.489
17478WAT     H252677   6.254   1.337   9.578
17479WAT      O52678   0.770   6.876   2.804
17479WAT     H152679   0.726   6.966   2.802
17479WAT     H252680   0.822   6.862   2.721
17480WAT      O52681   8.247   4.474   6.611
17480WAT     H152682   8.250   4.553   6.549
17480WAT     H252683   8.172   4.414   6.585
17481WAT      O52684   0.228   4.256   4.615
17481WAT     H152685   0.134   4.225   4.630
17481WAT     H252686   0.271   4.201   4.544
17482WAT      O52687   0.280   2.518   0.725
17482WAT     H152688   0.372   2.487   0.699
17482WAT     H252689   0.220   2.514   0.645
17483WAT      O52690   8.865   9.153   9.232
17483WAT     H152691   8.872   9.053   9.234
17483WAT     H252692   8.895   9.187   9.143
17484WAT      O52693   7.923   5.683   6.928
17484WAT     H152694   7.865   5.704   6.850
17484WAT     H252695   7.911   5.588   6.955
17485WAT      O52696   0.932   5.628   2.130
17485WAT     H152697   0.980   5.625   2.218
17485WAT     H252698   0.975   5.564   2.067
17486WAT      O52699   5.426   3.853   2.001
17486WAT     H152700   5.505   3.891   1.954
17486WAT     H252701   5.452   3.825   2.094
17487WAT      O52702   9.284   3.733   7.104
17487WAT     H152703   9.312   3.727   7.008
17487WAT     H252704   9.210   3.667   7.121
17488WAT      O52705   5.938   1.298   5.489
17488WAT     H152706   5.935   1.387   5.445
17488WAT     H252707   5.864   1.290   5.555
17489WAT      O52708   6.516   7.985   0.738
17489WAT     H152709   6.448   7.992   0.665
17489WAT     H252710   6.576   8.066   0.735
17490WAT      O52711   2.225   0.231   5.063
17490WAT     H152712   2.175   0.311   5.029
17490WAT     H252713   2.321   0.238   5.035
17491WAT      O52714   7.998   7.428   9.218
17491WAT     H152715   7.992   7.471   9.308
17491WAT     H252716   7.968   7.493   9.148
17492WAT      O52717   5.354   3.665   6.726
17492WAT     H152718   5.366   3.578   6.774
17492WAT     H252719   5.332   3.647   6.630
17493WAT      O52720   8.929   2.180   4.082
17493WAT     H152721   9.001   2.140   4.138
17493WAT     H252722   8.963   2.263   4.039
17494WAT      O52723   1.619   7.919   5.936
17494WAT     H152724   1.605   8.015   5.961
17494WAT     H252725   1.596   7.861   6.014
17495WAT      O52726   9.062   5.516   6.291
17495WAT     H152727   9.028   5.576   6.364
17495WAT     H252728   9.084   5.571   6.211
17496WAT      O52729   5.911   6.903   9.448
17496WAT     H152730   5.914   6.976   9.516
17496WAT     H252731   5.919   6.943   9.357
17497WAT      O52732   0.486   4.809   9.053
17497WAT     H152733   0.523   4.814   8.961
17497WAT     H252734   0.537   4.871   9.113
17498WAT      O52735   2.767   3.215   1.060
17498WAT     H152736   2.788   3.299   1.010
17498WAT     H252737   2.668   3.201   1.061
17499WAT      O52738   9.104   7.898   7.042
17499WAT     H152739   9.069   7.987   7.014
17499WAT     H252740   9.204   7.903   7.050
17500WAT      O52741   2.742   1.017   7.557
17500WAT     H152742   2.724   1.115   7.549
17500WAT     H252743   2.833   0.997   7.520
17501WAT      O52744   3.435   6.220   4.258
17501WAT     H152745   3.443   6.121   4.245
17501WAT     H252746   3.339   6.247   4.256
17502WAT      O52747   2.515   5.693   5.686
17502WAT     H152748   2.494   5.600   5.655
17502WAT     H252749   2.610   5.698   5.714
17503WAT      O52750   0.211   0.757   6.422
17503WAT     H152751   0.184   0.673   6.375
17503WAT     H252752   0.284   0.737   6.487
17504WAT      O52753   1.266   1.895   7.067
17504WAT     H152754   1.230   1.982   7.102
17504WAT     H252755   1.242   1.821   7.130
17505WAT      O52756   6.415   2.447   1.439
17505WAT     H152757   6.331   2.469   1.389
17505WAT     H252758   6.494   2.468   1.382
17506WAT      O52759   4.361   5.236   1.608
17506WAT     H152760   4.352   5.194   1.699
17506WAT     H252761   4.450   5.214   1.569
17507WAT      O52762   9.036   7.225   5.500
17507WAT     H152763   9.123   7.235   5.451
17507WAT     H252764   9.019   7.308   5.554
17508WAT      O52765   2.323   5.095   3.647
17508WAT     H152766   2.285   5.003   3.642
17508WAT     H252767   2.384   5.103   3.726
17509WAT      O52768   1.660   6.243   7.239
17509WAT     H152769   1.723   6.166   7.229
17509WAT     H252770   1.710   6.329   7.225
17510WAT      O52771   8.041   5.045   3.280
17510WAT     H152772   8.074   5.007   3.367
17510WAT     H252773   8.000   5.134   3.297
17511WAT      O52774   3.817   0.598   9.275
17511WAT     H152775   3.881   0.604   9.352
17511WAT     H252776   3.801   0.502   9.253
17512WAT      O52777   7.376   4.438   0.726
17512WAT     H152778   7.322   4.355   0.712
17512WAT     H252779   7.318   4.518   0.714
17513WAT      O52780   2.064   2.746   7.548
17513WAT     H152781   2.103   2.719   7.460
17513WAT     H252782   2.048   2.665   7.604
17514WAT      O52783   2.560   1.049   0.608
17514WAT     H152784   2.510   1.060   0.523
17514WAT     H252785   2.496   1.042   0.684
17515WAT      O52786   6.463   2.610   7.945
17515WAT     H152787   6.399   2.687   7.938
17515WAT     H252788   6.456   2.554   7.863
17516WAT      O52789   3.648   7.495   6.477
17516WAT     H152790   3.710   7.468   6.403
17516WAT     H252791   3.583   7.422   6.495
17517WAT      O52792   1.149   8.589   9.024
17517WAT     H152793   1.117   8.680   8.997
17517WAT     H252794   1.110   8.564   9.113
17518WAT      O52795   0.159   0.353   0.561
17518WAT     H152796   0.155   0.452   0.557
17518WAT     H252797   0.155   0.315   0.469
17519WAT      O52798   5.241   0.735   0.223
17519WAT     H152799   5.262   0.811   0.161
17519WAT     H252800   5.327   0.694   0.254
17520WAT      O52801   4.891   2.294   8.355
17520WAT     H152802   4.894   2.334   8.263
17520WAT     H252803   4.798   2.300   8.390
17521WAT      O52804   4.888   9.251   0.446
17521WAT     H152805   4.987   9.243   0.432
17521WAT     H252806   4.841   9.184   0.389
17522WAT      O52807   1.742   9.832   5.770
17522WAT     H152808   1.707   9.903   5.709
17522WAT     H252809   1.668   9.799   5.829
17523WAT      O52810   5.209   1.948   7.663
17523WAT     H152811   5.290   1.937   7.605
17523WAT     H252812   5.238   1.972   7.756
17524WAT      O52813   6.797   6.574   6.794
17524WAT     H152814   6.836   6.663   6.820
17524WAT     H252815   6.699   6.574   6.818
17525WAT      O52816   6.327   4.406   2.849
17525WAT     H152817   6.336   4.498   2.888
17525WAT     H252818   6.305   4.412   2.752
17526WAT      O52819   1.119   2.240   6.700
17526WAT     H152820   1.103   2.212   6.605
17526WAT     H252821   1.115   2.160   6.759
17527WAT      O52822   8.526   2.150   9.833
17527WAT     H152823   8.444   2.096   9.850
17527WAT     H252824   8.518   2.238   9.879
17528WAT      O52825   9.085   4.871   2.165
17528WAT     H152826   9.024   4.915   2.098
17528WAT     H252827   9.175   4.913   2.161
17529WAT      O52828   7.422   1.285   4.868
17529WAT     H152829   7.486   1.287   4.944
17529WAT     H252830   7.414   1.191   4.834
17530WAT      O52831   9.725   9.813   6.444
17530WAT     H152832   9.679   9.901   6.457
17530WAT     H252833   9.823   9.825   6.460
17531WAT      O52834   9.649   6.214   1.837
17531WAT     H152835   9.598   6.205   1.922
17531WAT     H252836   9.589   6.252   1.766
17532WAT      O52837   4.153   9.280   2.736
17532WAT     H152838   4.072   9.304   2.789
17532WAT     H252839   4.146   9.186   2.705
17533WAT      O52840   1.291   2.858   2.154
17533WAT     H152841   1.357   2.818   2.091
17533WAT     H252842   1.256   2.787   2.215
17534WAT      O52843   1.295   5.550   1.117
17534WAT     H152844   1.384   5.512   1.092
17534WAT     H252845   1.245   5.483   1.173
17535WAT      O52846   1.144   4.677   8.133
17535WAT     H152847   1.129   4.616   8.055
17535WAT     H252848   1.056   4.707   8.170
17536WAT      O52849   0.216   7.012   1.740
17536WAT     H152850   0.254   7.001   1.832
17536WAT     H252851   0.143   6.945   1.726
17537WAT      O52852   4.709   3.587   7.725
17537WAT     H152853   4.692   3.551   7.816
17537WAT     H252854   4.624   3.624   7.687
17538WAT      O52855   3.081   5.328   2.151
17538WAT     H152856   3.084   5.428   2.147
17538WAT     H252857   3.025   5.299   2.228
17539WAT      O52858   6.422   4.069   6.778
17539WAT     H152859   6.507   4.104   6.819
17539WAT     H252860   6.368   4.145   6.744
17540WAT      O52861   6.177   8.425   7.220
17540WAT     H152862   6.246   8.450   7.153
17540WAT     H252863   6.093   8.395   7.173
17541WAT      O52864   1.196   9.364   9.793
17541WAT     H152865   1.159   9.336   9.704
17541WAT     H252866   1.184   9.462   9.805
17542WAT      O52867   3.861   2.192   4.529
17542WAT     H152868   3.816   2.278   4.505
17542WAT     H252869   3.793   2.120   4.539
17543WAT      O52870   9.415   9.588   9.294
17543WAT     H152871   9.514   9.604   9.292
17543WAT     H252872   9.374   9.617   9.208
17544WAT      O52873   3.879   4.910   8.234
17544WAT     H152874   3.966   4.871   8.202
17544WAT     H252875   3.880   4.914   8.334
17545WAT      O52876   3.915   3.555   8.130
17545WAT     H152877   3.895   3.559   8.032
17545WAT     H252878   3.952   3.643   8.160
17546WAT      O52879   5.364   2.354   3.038
17546WAT     H152880   5.437   2.288   3.054
17546WAT     H252881   5.308   2.322   2.961
17547WAT      O52882   6.694   1.740   7.725
17547WAT     H152883   6.760   1.689   7.670
17547WAT     H252884   6.691   1.703   7.817
17548WAT      O52885   8.484   2.779   2.217
17548WAT     H152886   8.571   2.733   2.195
17548WAT     H252887   8.450   2.825   2.135
17549WAT      O52888   9.370   9.370   2.791
17549WAT     H152889   9.409   9.450   2.837
17549WAT     H252890   9.321   9.314   2.858
17550WAT      O52891   3.285   3.189   1.811
17550WAT     H152892   3.221   3.163   1.739
17550WAT     H252893   3.371   3.218   1.770
17551WAT      O52894   3.260   9.205   8.734
17551WAT     H152895   3.260   9.146   8.815
17551WAT     H252896   3.281   9.151   8.653
17552WAT      O52897   8.864   1.961   6.564
17552WAT     H152898   8.825   1.883   6.516
17552WAT     H252899   8.929   2.008   6.503
17553WAT      O52900   6.484   7.760   1.594
17553WAT     H152901   6.411   7.828   1.587
17553WAT     H252902   6.572   7.807   1.607
17554WAT      O52903   1.454   6.555   8.357
17554WAT     H152904   1.358   6.548   8.383
17554WAT     H252905   1.475   6.649   8.329
17555WAT      O52906   6.414   4.560   0.928
17555WAT     H152907   6.326   4.539   0.971
17555WAT     H252908   6.481   4.583   0.999
17556WAT      O52909   9.665   3.838   9.272
17556WAT     H152910   9.667   3.774   9.196
17556WAT     H252911   9.752   3.835   9.321
17557WAT      O52912   3.583   4.653   8.521
17557WAT     H152913   3.580   4.728   8.455
17557WAT     H252914   3.503   4.658   8.581
17558WAT      O52915   7.725   6.617   2.081
17558WAT     H152916   7.665   6.658   2.014
17558WAT     H252917   7.794   6.561   2.035
17559WAT      O52918   1.475   2.161   1.450
17559WAT     H152919   1.454   2.194   1.542
17559WAT     H252920   1.390   2.149   1.399
17560WAT      O52921   8.867   5.017   2.042
17560WAT     H152922   8.770   5.031   2.060
17560WAT     H252923   8.913   5.105   2.036
17561WAT      O52924   0.911   0.013   2.428
17561WAT     H152925   1.003  -0.014   2.399
17561WAT     H252926   0.853   0.026   2.348
17562WAT      O52927   1.252   2.162   7.105
17562WAT     H152928   1.319   2.190   7.035
17562WAT     H252929   1.220   2.244   7.154
17563WAT      O52930   3.339   0.098   3.940
17563WAT     H152931   3.291   0.172   3.989
17563WAT     H252932   3.294   0.081   3.853
17564WAT      O52933   8.287   7.096   6.505
17564WAT     H152934   8.298   7.016   6.563
17564WAT     H252935   8.233   7.072   6.424
17565WAT      O52936   4.648   8.745   6.606
17565WAT     H152937   4.724   8.792   6.560
17565WAT     H252938   4.568   8.805   6.608
17566WAT      O52939   5.468   6.542   8.672
17566WAT     H152940   5.547   6.509   8.724
17566WAT     H252941   5.452   6.638   8.692
17567WAT      O52942   8.432   6.512   0.347
17567WAT     H152943   8.356   6.467   0.300
17567WAT     H252944   8.519   6.486   0.304
17568WAT      O52945   6.570   3.624   0.151
17568WAT     H152946   6.638   3.551   0.161
17568WAT     H252947   6.579   3.664   0.060
17569WAT      O52948   8.043   5.030   0.611
17569WAT     H152949   8.074   4.936   0.591
17569WAT     H252950   8.122   5.092   0.607
17570WAT      O52951   5.805   1.948   4.369
17570WAT     H152952   5.768   1.993   4.450
17570WAT     H252953   5.824   2.016   4.298
17571WAT      O52954   4.412   1.826   0.435
17571WAT     H152955   4.344   1.758   0.407
17571WAT     H252956   4.424   1.823   0.534
17572WAT      O52957   7.429   2.377   0.058
17572WAT     H152958   7.388   2.299   0.107
17572WAT     H252959   7.357   2.435   0.021
17573WAT      O52960   3.507   0.671   7.438
17573WAT     H152961   3.417   0.712   7.445
17573WAT     H252962   3.570   0.735   7.394
17574WAT      O52963   6.426   3.258   6.279
17574WAT     H152964   6.405   3.329   6.346
17574WAT     H252965   6.524   3.240   6.280
17575WAT      O52966   7.339   0.434   4.987
17575WAT     H152967   7.369   0.419   4.892
17575WAT     H252968   7.253   0.484   4.988
17576WAT      O52969   3.558   5.019   4.875
17576WAT     H152970   3.515   4.985   4.958
17576WAT     H252971   3.656   5.034   4.893
17577WAT      O52972   2.372   7.747   0.522
17577WAT     H152973   2.277   7.763   0.549
17577WAT     H252974   2.374   7.709   0.430
17578WAT      O52975   6.997   3.944   3.603
17578WAT     H152976   6.983   3.958   3.505
17578WAT     H252977   7.050   3.861   3.617
17579WAT      O52978   7.260   2.731   2.765
17579WAT     H152979   7.222   2.718   2.674
17579WAT     H252980   7.349   2.687   2.771
17580WAT      O52981   2.639   3.959   5.324
17580WAT     H152982   2.738   3.955   5.317
17580WAT     H252983   2.614   4.018   5.401
17581WAT      O52984   9.680   2.871   0.401
17581WAT     H152985   9.676   2.779   0.360
17581WAT     H252986   9.650   2.866   0.496
17582WAT      O52987   8.883   1.565   4.105
17582WAT     H152988   8.979   1.573   4.131
17582WAT     H252989   8.837   1.500   4.166
17583WAT      O52990   1.927   0.631   3.346
17583WAT     H152991   1.887   0.609   3.435
17583WAT     H252992   1.866   0.693   3.297
17584WAT      O52993   7.778   7.417   1.862
17584WAT     H152994   7.806   7.323   1.882
17584WAT     H252995   7.859   7.473   1.846
17585WAT      O52996   5.601   3.003   3.947
17585WAT     H152997   5.515   3.005   3.898
17585WAT     H252998   5.644   2.913   3.938
17586WAT      O52999   3.384   4.774   0.653
17586WAT     H153000   3.291   4.794   0.622
17586WAT     H253001   3.437   4.858   0.659
17587WAT      O53002   3.406   8.662   0.038
17587WAT     H153003   3.326   8.686  -0.016
17587WAT     H253004   3.410   8.719   0.120
17588WAT      O53005   3.768   2.458   7.115
17588WAT     H153006   3.834   2.452   7.190
17588WAT     H253007   3.718   2.372   7.108
17589WAT      O53008   3.998   4.866   0.771
17589WAT     H153009   4.084   4.909   0.800
17589WAT     H253010   3.973   4.901   0.681
17590WAT      O53011   2.338   8.823   3.606
17590WAT     H153012   2.283   8.907   3.609
17590WAT     H253013   2.284   8.747   3.642
17591WAT      O53014   5.208   5.143   7.101
17591WAT     H153015   5.109   5.155   7.091
17591WAT     H253016   5.247   5.119   7.012
17592WAT      O53017   5.061   0.581   6.564
17592WAT     H153018   5.089   0.528   6.484
17592WAT     H253019   5.087   0.677   6.551
17593WAT      O53020   7.964   1.532   1.173
17593WAT     H153021   7.961   1.548   1.271
17593WAT     H253022   7.970   1.620   1.125
17594WAT      O53023   3.423   6.197   0.313
17594WAT     H153024   3.380   6.155   0.233
17594WAT     H253025   3.511   6.155   0.330
17595WAT      O53026   4.896   4.295   1.621
17595WAT     H153027   4.813   4.339   1.656
17595WAT     H253028   4.872   4.229   1.550
17596WAT      O53029   8.076   0.249   9.389
17596WAT     H153030   8.062   0.157   9.351
17596WAT     H253031   8.061   0.317   9.318
17597WAT      O53032   8.321   6.698   9.864
17597WAT     H153033   8.309   6.782   9.811
17597WAT     H253034   8.394   6.711   9.931
17598WAT      O53035   2.895   3.934   5.303
17598WAT     H153036   2.946   3.903   5.223
17598WAT     H253037   2.919   3.877   5.382
17599WAT      O53038   6.333   4.663   6.067
17599WAT     H153039   6.376   4.602   6.001
17599WAT     H253040   6.350   4.630   6.160
17600WAT      O53041   7.248   1.089   9.366
17600WAT     H153042   7.257   1.172   9.311
17600WAT     H253043   7.279   1.108   9.459
17601WAT      O53044   0.834   5.532   5.829
17601WAT     H153045   0.908   5.575   5.880
17601WAT     H253046   0.769   5.602   5.799
17602WAT      O53047   1.534   2.050   2.830
17602WAT     H153048   1.590   2.125   2.863
17602WAT     H253049   1.448   2.086   2.793
17603WAT      O53050   9.799   5.846   7.094
17603WAT     H153051   9.806   5.867   6.997
17603WAT     H253052   9.831   5.752   7.110
17604WAT      O53053   4.331   6.646   9.824
17604WAT     H153054   4.326   6.578   9.896
17604WAT     H253055   4.426   6.659   9.795
17605WAT      O53056   8.561   4.673   1.097
17605WAT     H153057   8.491   4.611   1.060
17605WAT     H253058   8.650   4.627   1.096
17606WAT      O53059   4.616   0.827   3.427
17606WAT     H153060   4.636   0.918   3.390
17606WAT     H253061   4.701   0.777   3.441
17607WAT      O53062   7.500   6.216   4.457
17607WAT     H153063   7.498   6.300   4.512
17607WAT     H253064   7.474   6.138   4.514
17608WAT      O53065   7.084   4.218   7.711
17608WAT     H153066   7.064   4.133   7.759
17608WAT     H253067   7.098   4.200   7.614
17609WAT      O53068   4.681   9.831   2.142
17609WAT     H153069   4.702   9.736   2.119
17609WAT     H253070   4.638   9.876   2.064
17610WAT      O53071   8.436   2.615   0.358
17610WAT     H153072   8.454   2.524   0.397
17610WAT     H253073   8.521   2.667   0.354
17611WAT      O53074   2.799   6.047   7.696
17611WAT     H153075   2.713   6.098   7.696
17611WAT     H253076   2.782   5.954   7.729
17612WAT      O53077   8.847   0.225   1.310
17612WAT     H153078   8.818   0.298   1.249
17612WAT     H253079   8.844   0.137   1.262
17613WAT      O53080   5.282   8.385   8.318
17613WAT     H153081   5.271   8.417   8.412
17613WAT     H253082   5.193   8.357   8.281
17614WAT      O53083   3.922   3.132   7.734
17614WAT     H153084   3.882   3.214   7.693
17614WAT     H253085   4.000   3.157   7.790
17615WAT      O53086   7.611   7.757   5.791
17615WAT     H153087   7.573   7.682   5.846
17615WAT     H253088   7.688   7.723   5.737
17616WAT      O53089   4.689   2.526   7.574
17616WAT     H153090   4.607   2.548   7.522
17616WAT     H253091   4.758   2.597   7.559
17617WAT      O53092   3.043   0.266   8.188
17617WAT     H153093   3.097   0.311   8.259
17617WAT     H253094   2.952   0.307   8.183
17618WAT      O53095   7.271   4.622   8.169
17618WAT     H153096   7.252   4.703   8.225
17618WAT     H253097   7.185   4.586   8.133
17619WAT      O53098   1.030   1.140   1.261
17619WAT     H153099   1.102   1.156   1.193
17619WAT     H253100   1.042   1.204   1.337
17620WAT      O53101   7.502   6.665   3.872
17620WAT     H153102   7.596   6.670   3.907
17620WAT     H253103   7.462   6.756   3.873
17621WAT      O53104   7.479   9.002   3.390
17621WAT     H153105   7.529   8.918   3.368
17621WAT     H253106   7.447   8.998   3.485
17622WAT      O53107   5.326   8.540   0.221
17622WAT     H153108   5.253   8.518   0.157
17622WAT     H253109   5.378   8.618   0.187
17623WAT      O53110   6.772   8.692   0.639
17623WAT     H153111   6.791   8.599   0.671
17623WAT     H253112   6.713   8.739   0.705
17624WAT      O53113   4.438   0.695   4.454
17624WAT     H153114   4.521   0.728   4.498
17624WAT     H253115   4.437   0.724   4.358
17625WAT      O53116   2.595   2.469   0.985
17625WAT     H153117   2.513   2.441   0.933
17625WAT     H253118   2.598   2.568   0.993
17626WAT      O53119   6.084   1.958   8.118
17626WAT     H153120   6.142   1.888   8.161
17626WAT     H253121   6.050   2.021   8.188
17627WAT      O53122   6.564   9.048   4.544
17627WAT     H153123   6.557   9.078   4.639
17627WAT     H253124   6.659   9.047   4.515
17628WAT      O53125   0.247   8.986   1.565
17628WAT     H153126   0.327   9.002   1.507
17628WAT     H253127   0.191   9.069   1.567
17629WAT      O53128   2.335   6.517   2.026
17629WAT     H153129   2.398   6.548   2.098
17629WAT     H253130   2.247   6.563   2.037
17630WAT      O53131   0.070   7.874   1.987
17630WAT     H153132   0.105   7.957   1.943
17630WAT     H253133  -0.023   7.891   2.019
17631WAT      O53134   0.323   3.062   0.208
17631WAT     H153135   0.358   3.028   0.295
17631WAT     H253136   0.251   3.002   0.175
17632WAT      O53137   5.145   6.199   6.900
17632WAT     H153138   5.066   6.153   6.942
17632WAT     H253139   5.229   6.161   6.937
17633WAT      O53140   9.357   0.072   4.179
17633WAT     H153141   9.313  -0.013   4.148
17633WAT     H253142   9.446   0.050   4.218
17634WAT      O53143   6.963   6.350   7.791
17634WAT     H153144   7.009   6.277   7.740
17634WAT     H253145   6.930   6.420   7.727
17635WAT      O53146   0.440   9.488   1.463
17635WAT     H153147   0.398   9.553   1.400
17635WAT     H253148   0.478   9.411   1.412
17636WAT      O53149   1.239   2.881   9.304
17636WAT     H153150   1.178   2.944   9.257
17636WAT     H253151   1.263   2.918   9.394
17637WAT      O53152   1.252   2.013   2.497
17637WAT     H153153   1.279   1.919   2.520
17637WAT     H253154   1.245   2.067   2.580
17638WAT      O53155   9.857   9.483   5.473
17638WAT     H153156   9.827   9.489   5.378
17638WAT     H253157   9.794   9.424   5.525
17639WAT      O53158   3.585   2.105   5.100
17639WAT     H153159   3.616   2.017   5.063
17639WAT     H253160   3.642   2.131   5.177
17640WAT      O53161   5.618   9.630   9.104
17640WAT     H153162   5.632   9.664   9.011
17640WAT     H253163   5.648   9.534   9.109
17641WAT      O53164   7.806   7.608   4.749
17641WAT     H153165   7.855   7.570   4.827
17641WAT     H253166   7.853   7.583   4.664
17642WAT      O53167   9.467   1.487   2.623
17642WAT     H153168   9.503   1.418   2.560
17642WAT     H253169   9.369   1.500   2.606
17643WAT      O53170   3.418   8.837   6.818
17643WAT     H153171   3.335   8.781   6.813
17643WAT     H253172   3.416   8.906   6.745
17644WAT      O53173   5.235   3.486   5.884
17644WAT     H153174   5.206   3.410   5.942
17644WAT     H253175   5.156   3.539   5.855
17645WAT      O53176   4.751   6.776   6.260
17645WAT     H153177   4.705   6.834   6.327
17645WAT     H253178   4.850   6.787   6.268
17646WAT      O53179   4.537   0.519   1.753
17646WAT     H153180   4.629   0.555   1.770
17646WAT     H253181   4.493   0.498   1.840
17647WAT      O53182   2.109   5.591   5.813
17647WAT     H153183   2.138   5.596   5.718
17647WAT     H253184   2.124   5.679   5.857
17648WAT      O53185   0.128   0.282   0.826
17648WAT     H153186   0.210   0.241   0.864
17648WAT     H253187   0.145   0.309   0.731
17649WAT      O53188   5.503   8.474   8.190
17649WAT     H153189   5.487   8.457   8.093
17649WAT     H253190   5.426   8.437   8.243
17650WAT      O53191   8.225   2.954   8.438
17650WAT     H153192   8.196   3.033   8.385
17650WAT     H253193   8.146   2.897   8.460
17651WAT      O53194   7.217   8.352   1.624
17651WAT     H153195   7.146   8.303   1.675
17651WAT     H253196   7.200   8.344   1.526
17652WAT      O53197   4.945   6.020   5.800
17652WAT     H153198   4.962   6.118   5.796
17652WAT     H253199   4.853   6.003   5.835
17653WAT      O53200   6.864   7.707   1.345
17653WAT     H153201   6.939   7.736   1.285
17653WAT     H253202   6.821   7.787   1.386
17654WAT      O53203   4.580   9.093   1.783
17654WAT     H153204   4.519   9.022   1.817
17654WAT     H253205   4.531   9.153   1.720
17655WAT      O53206   7.350   6.652   1.638
17655WAT     H153207   7.350   6.685   1.544
17655WAT     H253208   7.343   6.730   1.700
17656WAT      O53209   2.572   3.030   4.776
17656WAT     H153210   2.666   3.062   4.779
17656WAT     H253211   2.564   2.953   4.713
17657WAT      O53212   7.343   8.161   2.231
17657WAT     H153213   7.311   8.235   2.172
17657WAT     H253214   7.374   8.199   2.319
17658WAT      O53215   3.332   3.367   5.819
17658WAT     H153216   3.362   3.447   5.768
17658WAT     H253217   3.312   3.292   5.755
17659WAT      O53218   3.665   9.289   0.737
17659WAT     H153219   3.644   9.379   0.774
17659WAT     H253220   3.674   9.223   0.812
17660WAT      O53221   2.340   8.498   5.177
17660WAT     H153222   2.381   8.444   5.104
17660WAT     H253223   2.341   8.595   5.152
17661WAT      O53224   8.960   8.613   3.629
17661WAT     H153225   8.871   8.651   3.654
17661WAT     H253226   8.958   8.585   3.533
17662WAT      O53227   2.998   2.870   6.989
17662WAT     H153228   2.903   2.840   6.990
17662WAT     H253229   3.059   2.791   6.997
17663WAT      O53230   5.941   0.864   9.780
17663WAT     H153231   6.033   0.847   9.744
17663WAT     H253232   5.925   0.805   9.859
17664WAT      O53233   9.403   8.090   6.127
17664WAT     H153234   9.422   8.030   6.049
17664WAT     H253235   9.413   8.039   6.212
17665WAT      O53236   7.596   7.032   3.301
17665WAT     H153237   7.629   7.124   3.320
17665WAT     H253238   7.628   6.970   3.373
17666WAT      O53239   0.148   7.999   5.296
17666WAT     H153240   0.213   8.045   5.237
17666WAT     H253241   0.198   7.943   5.363
17667WAT      O53242   6.083   3.042   3.410
17667WAT     H153243   6.027   2.966   3.380
17667WAT     H253244   6.028   3.125   3.413
17668WAT      O53245   0.696   4.304   8.194
17668WAT     H153246   0.629   4.289   8.268
17668WAT     H253247   0.713   4.402   8.184
17669WAT      O53248   6.938   1.756   1.366
17669WAT     H153249   6.988   1.721   1.287
17669WAT     H253250   6.865   1.817   1.335
17670WAT      O53251   3.254   6.252   2.089
17670WAT     H153252   3.295   6.337   2.057
17670WAT     H253253   3.307   6.215   2.165
17671WAT      O53254   6.981   9.104   1.770
17671WAT     H153255   7.067   9.053   1.781
17671WAT     H253256   6.959   9.149   1.857
17672WAT      O53257   1.547   7.032   9.829
17672WAT     H153258   1.500   7.022   9.741
17672WAT     H253259   1.536   6.947   9.882
17673WAT      O53260   3.063   7.819   5.507
17673WAT     H153261   3.145   7.834   5.452
17673WAT     H253262   3.027   7.727   5.489
17674WAT      O53263   4.806   0.127   4.772
17674WAT     H153264   4.752   0.158   4.693
17674WAT     H253265   4.816   0.202   4.837
17675WAT      O53266   7.739   1.178   3.118
17675WAT     H153267   7.649   1.204   3.155
17675WAT     H253268   7.769   1.248   3.053
17676WAT      O53269   8.458   6.019   4.303
17676WAT     H153270   8.390   5.968   4.250
17676WAT     H253271   8.521   5.956   4.348
17677WAT      O53272   0.873   2.022   8.549
17677WAT     H153273   0.953   1.965   8.569
17677WAT     H253274   0.846   2.011   8.454
17678WAT      O53275   1.708   4.092   1.747
17678WAT     H153276   1.727   4.109   1.650
17678WAT     H253277   1.792   4.102   1.800
17679WAT      O53278   8.467   7.752   4.621
17679WAT     H153279   8.472   7.662   4.664
17679WAT     H253280   8.442   7.743   4.525
17680WAT      O53281   1.841   5.387   5.074
17680WAT     H153282   1.903   5.388   5.153
17680WAT     H253283   1.881   5.438   4.999
17681WAT      O53284   4.823   8.963   2.905
17681WAT     H153285   4.821   9.050   2.954
17681WAT     H253286   4.881   8.971   2.824
17682WAT      O53287   7.591   1.556   5.894
17682WAT     H153288   7.595   1.533   5.991
17682WAT     H253289   7.682   1.583   5.863
17683WAT      O53290   4.424   6.066   2.212
17683WAT     H153291   4.404   5.973   2.181
17683WAT     H253292   4.345   6.124   2.196
17684WAT      O53293   3.381   2.525   1.131
17684WAT     H153294   3.418   2.495   1.043
17684WAT     H253295   3.327   2.607   1.119
17685WAT      O53296   2.124   4.933   8.543
17685WAT     H153297   2.112   4.977   8.633
17685WAT     H253298   2.037   4.894   8.514
17686WAT      O53299   4.651   5.964   7.180
17686WAT     H153300   4.618   5.920   7.096
17686WAT     H253301   4.574   5.974   7.244
17687WAT      O53302   7.936   4.709   1.685
17687WAT     H153303   8.008   4.664   1.738
17687WAT     H253304   7.882   4.768   1.745
17688WAT      O53305   0.663   2.927   7.460
17688WAT     H153306   0.611   2.890   7.537
17688WAT     H253307   0.755   2.953   7.490
17689WAT      O53308   2.028   1.563   4.169
17689WAT     H153309   2.009   1.466   4.155
17689WAT     H253310   1.959   1.602   4.230
17690WAT      O53311   5.954   9.142   3.509
17690WAT     H153312   5.999   9.055   3.530
17690WAT     H253313   5.856   9.134   3.525
17691WAT      O53314   2.883   5.082   7.783
17691WAT     H153315   2.932   5.168   7.765
17691WAT     H253316   2.822   5.062   7.707
17692WAT      O53317   3.268   2.094   2.572
17692WAT     H153318   3.292   2.187   2.601
17692WAT     H253319   3.321   2.028   2.625
17693WAT      O53320   7.322   4.535   2.385
17693WAT     H153321   7.299   4.522   2.289
17693WAT     H253322   7.249   4.498   2.442
17694WAT      O53323   7.356   5.683   1.674
17694WAT     H153324   7.309   5.747   1.614
17694WAT     H253325   7.331   5.702   1.769
17695WAT      O53326   2.744   3.895   2.024
17695WAT     H153327   2.783   3.974   2.071
17695WAT     H253328   2.648   3.913   2.003
17696WAT      O53329   8.445   1.830   0.283
17696WAT     H153330   8.462   1.863   0.190
17696WAT     H253331   8.398   1.901   0.335
17697WAT      O53332   2.889   0.657   7.348
17697WAT     H153333   2.935   0.579   7.390
17697WAT     H253334   2.840   0.627   7.266
17698WAT      O53335   6.863   8.690   6.139
17698WAT     H153336   6.900   8.634   6.065
17698WAT     H253337   6.865   8.639   6.225
17699WAT      O53338   8.802   0.080   5.534
17699WAT     H153339   8.876   0.141   5.504
17699WAT     H253340   8.780   0.100   5.630
17700WAT      O53341   1.031   3.947   8.277
17700WAT     H153342   1.075   3.938   8.187
17700WAT     H253343   1.010   3.856   8.312
17701WAT      O53344   5.464   0.396   6.402
17701WAT     H153345   5.541   0.391   6.339
17701WAT     H253346   5.381   0.363   6.357
17702WAT      O53347   8.155   0.864   2.798
17702WAT     H153348   8.249   0.896   2.810
17702WAT     H253349   8.136   0.853   2.701
17703WAT      O53350   9.423   5.930   6.668
17703WAT     H153351   9.499   5.993   6.686
17703WAT     H253352   9.400   5.881   6.752
17704WAT      O53353   1.030   6.139   8.127
17704WAT     H153354   1.022   6.158   8.029
17704WAT     H253355   1.126   6.147   8.154
17705WAT      O53356   8.090   3.254   2.185
17705WAT     H153357   8.184   3.221   2.197
17705WAT     H253358   8.056   3.287   2.273
17706WAT      O53359   3.225   7.146   4.987
17706WAT     H153360   3.156   7.084   5.025
17706WAT     H253361   3.287   7.176   5.059
17707WAT      O53362   0.703   1.755   9.238
17707WAT     H153363   0.638   1.753   9.162
17707WAT     H253364   0.775   1.820   9.218
17708WAT      O53365   9.419   1.623   5.088
17708WAT     H153366   9.322   1.633   5.114
17708WAT     H253367   9.429   1.642   4.991
17709WAT      O53368   0.965   8.497   0.883
17709WAT     H153369   1.000   8.534   0.969
17709WAT     H253370   1.011   8.542   0.807
17710WAT      O53371   0.830   5.490   6.784
17710WAT     H153372   0.917   5.489   6.735
17710WAT     H253373   0.830   5.417   6.853
17711WAT      O53374   1.619   2.084   9.340
17711WAT     H153375   1.548   2.021   9.309
17711WAT     H253376   1.674   2.040   9.411
17712WAT      O53377   4.273   5.078   1.252
17712WAT     H153378   4.283   5.015   1.174
17712WAT     H253379   4.358   5.128   1.264
17713WAT      O53380   2.705   1.508   0.983
17713WAT     H153381   2.649   1.492   0.902
17713WAT     H253382   2.796   1.469   0.969
17714WAT      O53383   2.507   2.072   3.434
17714WAT     H153384   2.410   2.095   3.424
17714WAT     H253385   2.562   2.131   3.375
17715WAT      O53386   3.143   3.588   9.076
17715WAT     H153387   3.057   3.625   9.111
17715WAT     H253388   3.128   3.549   8.985
17716WAT      O53389   6.446   8.293   4.698
17716WAT     H153390   6.367   8.354   4.700
17716WAT     H253391   6.507   8.320   4.624
17717WAT      O53392   5.675   2.992   7.722
17717WAT     H153393   5.581   3.025   7.728
17717WAT     H253394   5.737   3.061   7.762
17718WAT      O53395   7.721   0.397   5.823
17718WAT     H153396   7.761   0.399   5.915
17718WAT     H253397   7.632   0.351   5.827
17719WAT      O53398   6.060   9.135   6.400
17719WAT     H153399   6.053   9.233   6.420
17719WAT     H253400   6.069   9.085   6.486
17720WAT      O53401   3.538   8.595   1.562
17720WAT     H153402   3.449   8.614   1.602
17720WAT     H253403   3.606   8.583   1.635
17721WAT      O53404   7.395   4.498   7.667
17721WAT     H153405   7.426   4.521   7.759
17721WAT     H253406   7.427   4.567   7.602
17722WAT      O53407   6.538   9.138   4.802
17722WAT     H153408   6.600   9.067   4.836
17722WAT     H253409   6.452   9.134   4.852
17723WAT      O53410   8.735   3.503   1.055
17723WAT     H153411   8.655   3.531   1.002
17723WAT     H253412   8.715   3.514   1.152
17724WAT      O53413   2.404   7.279   7.583
17724WAT     H153414   2.463   7.242   7.653
17724WAT     H253415   2.401   7.379   7.591
17725WAT      O53416   0.211   4.763   0.469
17725WAT     H153417   0.190   4.856   0.502
17725WAT     H253418   0.159   4.697   0.523
17726WAT      O53419   2.089   1.736   0.611
17726WAT     H153420   2.067   1.685   0.694
17726WAT     H253421   2.065   1.681   0.531
17727WAT      O53422   3.911   1.462   0.182
17727WAT     H153423   3.859   1.427   0.105
17727WAT     H253424   3.851   1.471   0.261
17728WAT      O53425   7.757   2.216   3.991
17728WAT     H153426   7.846   2.261   4.002
17728WAT     H253427   7.687   2.285   3.971
17729WAT      O53428   4.140   8.666   4.611
17729WAT     H153429   4.069   8.596   4.607
17729WAT     H253430   4.105   8.747   4.659
17730WAT      O53431   1.971   7.902   0.320
17730WAT     H153432   2.060   7.936   0.351
17730WAT     H253433   1.966   7.803   0.336
17731WAT      O53434   6.767   5.952   2.810
17731WAT     H153435   6.698   5.924   2.744
17731WAT     H253436   6.850   5.897   2.798
17732WAT      O53437   5.758   4.540   3.658
17732WAT     H153438   5.820   4.485   3.602
17732WAT     H253439   5.755   4.502   3.750
17733WAT      O53440   1.838   7.488   2.756
17733WAT     H153441   1.759   7.434   2.729
17733WAT     H253442   1.858   7.473   2.853
17734WAT      O53443   7.045   3.904   3.215
17734WAT     H153444   7.125   3.956   3.187
17734WAT     H253445   6.972   3.967   3.242
17735WAT      O53446   1.250   6.479   3.288
17735WAT     H153447   1.239   6.503   3.191
17735WAT     H253448   1.249   6.380   3.298
17736WAT      O53449   5.522   0.571   8.881
17736WAT     H153450   5.536   0.669   8.866
17736WAT     H253451   5.546   0.548   8.975
17737WAT      O53452   4.655   8.501   8.822
17737WAT     H153453   4.728   8.559   8.785
17737WAT     H253454   4.644   8.521   8.919
17738WAT      O53455   0.597   5.037   0.976
17738WAT     H153456   0.634   5.109   1.035
17738WAT     H253457   0.633   4.948   1.006
17739WAT      O53458   6.840   7.554   0.387
17739WAT     H153459   6.779   7.624   0.350
17739WAT     H253460   6.796   7.464   0.379
17740WAT      O53461   3.738   9.079   8.353
17740WAT     H153462   3.755   9.008   8.421
17740WAT     H253463   3.666   9.048   8.290
17741WAT      O53464   6.950   5.986   3.299
17741WAT     H153465   7.043   5.968   3.265
17741WAT     H253466   6.908   5.900   3.328
17742WAT      O53467   6.982   0.677   6.609
17742WAT     H153468   7.037   0.690   6.691
17742WAT     H253469   6.947   0.583   6.606
17743WAT      O53470   1.110   4.200   4.731
17743WAT     H153471   1.158   4.246   4.657
17743WAT     H253472   1.024   4.162   4.697
17744WAT      O53473   7.950   1.588   3.100
17744WAT     H153474   8.015   1.665   3.097
17744WAT     H253475   7.991   1.508   3.056
17745WAT      O53476   0.965   5.294   2.445
17745WAT     H153477   1.053   5.310   2.400
17745WAT     H253478   0.980   5.259   2.537
17746WAT      O53479   7.409   4.961   4.764
17746WAT     H153480   7.312   4.978   4.781
17746WAT     H253481   7.461   4.972   4.849
17747WAT      O53482   4.482   0.301   4.101
17747WAT     H153483   4.578   0.311   4.127
17747WAT     H253484   4.474   0.233   4.029
17748WAT      O53485   1.267   1.530   0.865
17748WAT     H153486   1.313   1.449   0.828
17748WAT     H253487   1.312   1.558   0.949
17749WAT      O53488   7.439   5.610   4.617
17749WAT     H153489   7.532   5.613   4.580
17749WAT     H253490   7.432   5.534   4.682
17750WAT      O53491   2.696   2.253   7.622
17750WAT     H153492   2.636   2.212   7.691
17750WAT     H253493   2.682   2.352   7.619
17751WAT      O53494   1.345   5.933   8.074
17751WAT     H153495   1.258   5.926   8.026
17751WAT     H253496   1.352   5.861   8.142
17752WAT      O53497   7.037   4.519   0.503
17752WAT     H153498   7.089   4.445   0.459
17752WAT     H253499   7.076   4.537   0.593
17753WAT      O53500   9.378   2.472   9.857
17753WAT     H153501   9.412   2.493   9.765
17753WAT     H253502   9.395   2.550   9.918
17754WAT      O53503   4.468   6.468   8.582
17754WAT     H153504   4.532   6.414   8.637
17754WAT     H253505   4.493   6.461   8.486
17755WAT      O53506   8.526   3.010   7.872
17755WAT     H153507   8.475   2.935   7.830
17755WAT     H253508   8.463   3.078   7.909
17756WAT      O53509   7.974   9.759   6.010
17756WAT     H153510   7.950   9.702   6.088
17756WAT     H253511   7.892   9.780   5.956
17757WAT      O53512   9.136   8.560   1.796
17757WAT     H153513   9.154   8.621   1.874
17757WAT     H253514   9.215   8.502   1.780
17758WAT      O53515   0.027   0.306   4.244
17758WAT     H153516   0.095   0.379   4.234
17758WAT     H253517   0.074   0.219   4.259
17759WAT      O53518   0.801   0.455   5.875
17759WAT     H153519   0.771   0.382   5.813
17759WAT     H253520   0.750   0.448   5.961
17760WAT      O53521   8.091   9.201   7.760
17760WAT     H153522   8.149   9.142   7.703
17760WAT     H253523   8.031   9.144   7.816
17761WAT      O53524   9.494   9.500   3.354
17761WAT     H153525   9.503   9.451   3.268
17761WAT     H253526   9.421   9.568   3.347
17762WAT      O53527   8.362   9.809   8.312
17762WAT     H153528   8.414   9.781   8.232
17762WAT     H253529   8.419   9.868   8.370
17763WAT      O53530   5.432   5.597   8.412
17763WAT     H153531   5.421   5.537   8.333
17763WAT     H253532   5.503   5.561   8.472
17764WAT      O53533   0.549   1.566   6.389
17764WAT     H153534   0.620   1.498   6.406
17764WAT     H253535   0.591   1.657   6.382
17765WAT      O53536   3.384   7.570   7.499
17765WAT     H153537   3.451   7.584   7.427
17765WAT     H253538   3.292   7.574   7.460
17766WAT      O53539   8.509   3.078   3.080
17766WAT     H153540   8.607   3.078   3.060
17766WAT     H253541   8.458   3.065   2.995
17767WAT      O53542   0.554   2.414   0.664
17767WAT     H153543   0.549   2.359   0.747
17767WAT     H253544   0.624   2.484   0.675
17768WAT      O53545   9.524   7.665   5.513
17768WAT     H153546   9.606   7.716   5.537
17768WAT     H253547   9.537   7.568   5.532
17769WAT      O53548   5.128   7.972   5.490
17769WAT     H153549   5.209   7.964   5.549
17769WAT     H253550   5.091   8.064   5.497
17770WAT      O53551   5.318   0.321   2.345
17770WAT     H153552   5.389   0.390   2.330
17770WAT     H253553   5.346   0.235   2.302
17771WAT      O53554   3.709   2.421   4.507
17771WAT     H153555   3.705   2.413   4.606
17771WAT     H253556   3.617   2.419   4.469
17772WAT      O53557   7.125   1.640   7.884
17772WAT     H153558   7.177   1.589   7.815
17772WAT     H253559   7.185   1.708   7.927
17773WAT      O53560   1.974   0.739   1.599
17773WAT     H153561   1.965   0.652   1.551
17773WAT     H253562   1.885   0.769   1.632
17774WAT      O53563   0.976   0.615   0.561
17774WAT     H153564   1.029   0.574   0.635
17774WAT     H253565   0.977   0.715   0.571
17775WAT      O53566   6.869   1.724   9.233
17775WAT     H153567   6.957   1.766   9.214
17775WAT     H253568   6.878   1.625   9.231
17776WAT      O53569   5.149   6.777   1.687
17776WAT     H153570   5.248   6.762   1.685
17776WAT     H253571   5.119   6.809   1.597
17777WAT      O53572   2.256   3.163   5.061
17777WAT     H153573   2.290   3.100   5.131
17777WAT     H253574   2.304   3.251   5.069
17778WAT      O53575   6.807   6.391   2.372
17778WAT     H153576   6.762   6.353   2.453
17778WAT     H253577   6.741   6.403   2.298
17779WAT      O53578   2.070   3.495   4.057
17779WAT     H153579   1.995   3.489   4.123
17779WAT     H253580   2.146   3.545   4.100
17780WAT      O53581   3.792   3.081   4.667
17780WAT     H153582   3.890   3.099   4.659
17780WAT     H253583   3.771   2.994   4.622
17781WAT      O53584   5.904   2.433   9.710
17781WAT     H153585   5.888   2.464   9.616
17781WAT     H253586   5.857   2.346   9.725
17782WAT      O53587   8.579   9.396   3.727
17782WAT     H153588   8.537   9.306   3.740
17782WAT     H253589   8.508   9.463   3.709
17783WAT      O53590   2.736   6.639   7.267
17783WAT     H153591   2.726   6.667   7.362
17783WAT     H253592   2.820   6.677   7.229
17784WAT      O53593   5.052   3.752   6.936
17784WAT     H153594   5.134   3.723   6.987
17784WAT     H253595   5.040   3.851   6.945
17785WAT      O53596   5.904   2.898   5.553
17785WAT     H153597   5.959   2.872   5.633
17785WAT     H253598   5.863   2.989   5.568
17786WAT      O53599   4.017   7.086   1.226
17786WAT     H153600   3.934   7.084   1.170
17786WAT     H253601   4.047   7.181   1.236
17787WAT      O53602   0.779   7.909   3.532
17787WAT     H153603   0.817   7.902   3.624
17787WAT     H253604   0.730   7.995   3.523
17788WAT      O53605   4.142   3.394   6.406
17788WAT     H153606   4.060   3.391   6.349
17788WAT     H253607   4.130   3.461   6.479
17789WAT      O53608   3.907   8.095   2.483
17789WAT     H153609   3.865   8.090   2.393
17789WAT     H253610   3.914   8.003   2.523
17790WAT      O53611   5.509   1.766   1.289
17790WAT     H153612   5.506   1.670   1.317
17790WAT     H253613   5.470   1.822   1.362
17791WAT      O53614   9.232   5.407   6.475
17791WAT     H153615   9.302   5.470   6.509
17791WAT     H253616   9.179   5.452   6.403
17792WAT      O53617   2.910   6.802   7.605
17792WAT     H153618   3.001   6.843   7.604
17792WAT     H253619   2.846   6.862   7.555
17793WAT      O53620   9.347   4.932   0.288
17793WAT     H153621   9.422   4.972   0.340
17793WAT     H253622   9.342   4.834   0.307
17794WAT      O53623   2.099   6.720   1.092
17794WAT     H153624   2.130   6.785   1.160
17794WAT     H253625   2.129   6.628   1.118
17795WAT      O53626   1.509   0.559   3.232
17795WAT     H153627   1.540   0.466   3.251
17795WAT     H253628   1.587   0.616   3.208
17796WAT      O53629   9.048   5.568   0.381
17796WAT     H153630   8.966   5.624   0.386
17796WAT     H253631   9.094   5.567   0.470
17797WAT      O53632   2.109   9.412   7.523
17797WAT     H153633   2.041   9.468   7.571
17797WAT     H253634   2.199   9.429   7.562
17798WAT      O53635   7.597   4.477   2.627
17798WAT     H153636   7.547   4.400   2.666
17798WAT     H253637   7.532   4.549   2.601
17799WAT      O53638   6.471   5.992   5.076
17799WAT     H153639   6.505   5.898   5.072
17799WAT     H253640   6.405   6.006   5.002
17800WAT      O53641   0.499   8.720   4.174
17800WAT     H153642   0.531   8.811   4.201
17800WAT     H253643   0.559   8.651   4.214
17801WAT      O53644   8.188   5.069   0.071
17801WAT     H153645   8.218   5.021  -0.011
17801WAT     H253646   8.137   5.006   0.130
17802WAT      O53647   1.519   9.744   7.582
17802WAT     H153648   1.485   9.650   7.591
17802WAT     H253649   1.570   9.754   7.497
17803WAT      O53650   5.991   2.477   2.606
17803WAT     H153651   5.908   2.491   2.551
17803WAT     H253652   5.968   2.430   2.691
17804WAT      O53653   4.237   6.626   5.497
17804WAT     H153654   4.315   6.682   5.526
17804WAT     H253655   4.174   6.613   5.574
17805WAT      O53656   4.670   1.811   3.474
17805WAT     H153657   4.744   1.869   3.440
17805WAT     H253658   4.588   1.866   3.488
17806WAT      O53659   5.295   1.934   5.795
17806WAT     H153660   5.216   1.953   5.737
17806WAT     H253661   5.371   1.993   5.770
17807WAT      O53662   3.956   2.675   7.597
17807WAT     H153663   4.024   2.625   7.650
17807WAT     H253664   3.866   2.636   7.614
17808WAT      O53665   6.044   1.923   7.545
17808WAT     H153666   6.006   1.993   7.606
17808WAT     H253667   6.139   1.906   7.571
17809WAT      O53668   2.714   7.771   3.002
17809WAT     H153669   2.743   7.786   2.908
17809WAT     H253670   2.664   7.851   3.036
17810WAT      O53671   1.933   1.305   5.375
17810WAT     H153672   1.933   1.214   5.417
17810WAT     H253673   1.855   1.313   5.313
17811WAT      O53674   4.342   1.144   5.384
17811WAT     H153675   4.336   1.243   5.395
17811WAT     H253676   4.427   1.120   5.337
17812WAT      O53677   2.844   7.727   0.565
17812WAT     H153678   2.754   7.769   0.574
17812WAT     H253679   2.891   7.766   0.486
17813WAT      O53680   3.614   6.770   4.495
17813WAT     H153681   3.574   6.718   4.419
17813WAT     H253682   3.577   6.736   4.582
17814WAT      O53683   9.737   1.736   4.955
17814WAT     H153684   9.696   1.697   4.873
17814WAT     H253685   9.761   1.662   5.019
17815WAT      O53686   4.102   8.199   9.522
17815WAT     H153687   4.162   8.132   9.480
17815WAT     H253688   4.098   8.183   9.621
17816WAT      O53689   4.547   1.919   4.042
17816WAT     H153690   4.548   1.862   3.960
17816WAT     H253691   4.468   1.894   4.098
17817WAT      O53692   4.579   1.150   8.869
17817WAT     H153693   4.621   1.089   8.802
17817WAT     H253694   4.651   1.198   8.920
17818WAT      O53695   8.220   0.342   2.956
17818WAT     H153696   8.169   0.428   2.955
17818WAT     H253697   8.314   0.359   2.927
17819WAT      O53698   2.654   5.660   9.120
17819WAT     H153699   2.620   5.609   9.199
17819WAT     H253700   2.591   5.735   9.099
17820WAT      O53701   4.307   9.813   7.236
17820WAT     H153702   4.263   9.761   7.309
17820WAT     H253703   4.246   9.887   7.206
17821WAT      O53704   2.637   7.363   4.220
17821WAT     H153705   2.624   7.402   4.128
17821WAT     H253706   2.641   7.264   4.213
17822WAT      O53707   5.625   4.284   2.098
17822WAT     H153708   5.627   4.350   2.173
17822WAT     H253709   5.570   4.321   2.023
17823WAT      O53710   1.620   6.489   1.397
17823WAT     H153711   1.641   6.425   1.324
17823WAT     H253712   1.648   6.450   1.485
17824WAT      O53713   1.431   9.411   7.271
17824WAT     H153714   1.443   9.312   7.260
17824WAT     H253715   1.438   9.455   7.182
17825WAT      O53716   1.634   0.415   9.348
17825WAT     H153717   1.693   0.421   9.428
17825WAT     H253718   1.686   0.375   9.272
17826WAT      O53719   3.730   2.152   9.877
17826WAT     H153720   3.635   2.176   9.894
17826WAT     H253721   3.777   2.138   9.965
17827WAT      O53722   2.015   2.205   8.682
17827WAT     H153723   2.079   2.129   8.693
17827WAT     H253724   2.023   2.266   8.761
17828WAT      O53725   0.416   0.783   9.557
17828WAT     H153726   0.408   0.864   9.500
17828WAT     H253727   0.370   0.799   9.645
17829WAT      O53728   3.330   4.933   1.378
17829WAT     H153729   3.360   4.874   1.303
17829WAT     H253730   3.246   4.897   1.418
17830WAT      O53731   5.693   3.843   3.308
17830WAT     H153732   5.639   3.861   3.226
17830WAT     H253733   5.633   3.846   3.388
17831WAT      O53734   1.351   8.375   6.113
17831WAT     H153735   1.344   8.409   6.207
17831WAT     H253736   1.268   8.324   6.090
17832WAT      O53737   9.330   0.075   7.987
17832WAT     H153738   9.359   0.076   8.083
17832WAT     H253739   9.293   0.165   7.962
17833WAT      O53740   2.775   1.548   2.111
17833WAT     H153741   2.834   1.507   2.181
17833WAT     H253742   2.741   1.636   2.145
17834WAT      O53743   9.140   1.533   4.190
17834WAT     H153744   9.155   1.471   4.267
17834WAT     H253745   9.177   1.493   4.106
17835WAT      O53746   9.835   5.601   6.848
17835WAT     H153747   9.761   5.602   6.780
17835WAT     H253748   9.873   5.693   6.858
17836WAT      O53749   3.720   0.828   4.756
17836WAT     H153750   3.807   0.807   4.800
17836WAT     H253751   3.733   0.835   4.657
17837WAT      O53752   8.893   6.361   7.007
17837WAT     H153753   8.798   6.383   7.029
17837WAT     H253754   8.905   6.262   7.003
17838WAT      O53755   6.124   3.224   4.471
17838WAT     H153756   6.161   3.316   4.473
17838WAT     H253757   6.128   3.188   4.378
17839WAT      O53758   0.645   0.256   8.755
17839WAT     H153759   0.547   0.275   8.754
17839WAT     H253760   0.690   0.313   8.823
17840WAT      O53761   2.772   0.180   2.209
17840WAT     H153762   2.819   0.174   2.121
17840WAT     H253763   2.674   0.190   2.195
17841WAT      O53764   1.724   7.771   0.919
17841WAT     H153765   1.643   7.803   0.870
17841WAT     H253766   1.704   7.765   1.017
17842WAT      O53767   1.413   7.347   4.701
17842WAT     H153768   1.464   7.426   4.669
17842WAT     H253769   1.457   7.308   4.782
17843WAT      O53770   4.960   3.142   1.771
17843WAT     H153771   5.005   3.218   1.818
17843WAT     H253772   4.861   3.156   1.773
17844WAT      O53773   4.523   7.312   5.722
17844WAT     H153774   4.616   7.312   5.757
17844WAT     H253775   4.473   7.390   5.760
17845WAT      O53776   2.969   1.557   7.658
17845WAT     H153777   2.942   1.468   7.694
17845WAT     H253778   2.913   1.578   7.578
17846WAT      O53779   8.610   3.800   6.029
17846WAT     H153780   8.533   3.807   6.093
17846WAT     H253781   8.613   3.707   5.991
17847WAT      O53782   7.703   6.298   0.135
17847WAT     H153783   7.632   6.246   0.182
17847WAT     H253784   7.663   6.383   0.099
17848WAT      O53785   0.952   4.198   2.606
17848WAT     H153786   0.870   4.188   2.663
17848WAT     H253787   0.964   4.115   2.551
17849WAT      O53788   8.026   7.003   0.108
17849WAT     H153789   8.009   7.099   0.127
17849WAT     H253790   8.054   6.956   0.192
17850WAT      O53791   3.011   4.361   5.114
17850WAT     H153792   3.017   4.365   5.014
17850WAT     H253793   3.103   4.363   5.153
17851WAT      O53794   5.153   7.563   6.533
17851WAT     H153795   5.195   7.472   6.530
17851WAT     H253796   5.082   7.565   6.603
17852WAT      O53797   6.474   8.149   9.566
17852WAT     H153798   6.526   8.235   9.573
17852WAT     H253799   6.468   8.122   9.471
17853WAT      O53800   7.530   5.818   5.194
17853WAT     H153801   7.597   5.760   5.147
17853WAT     H253802   7.438   5.787   5.170
17854WAT      O53803   7.796   8.366   6.127
17854WAT     H153804   7.843   8.426   6.190
17854WAT     H253805   7.697   8.384   6.130
17855WAT      O53806   1.723   1.049   8.901
17855WAT     H153807   1.805   1.094   8.936
17855WAT     H253808   1.715   1.066   8.803
17856WAT      O53809   4.873   0.474   9.494
17856WAT     H153810   4.941   0.470   9.421
17856WAT     H253811   4.798   0.534   9.466
17857WAT      O53812   4.145   3.777   7.896
17857WAT     H153813   4.125   3.706   7.828
17857WAT     H253814   4.101   3.752   7.983
17858WAT      O53815   3.130   7.905   6.754
17858WAT     H153816   3.062   7.857   6.810
17858WAT     H253817   3.173   7.840   6.691
17859WAT      O53818   8.593   4.976   7.284
17859WAT     H153819   8.580   4.958   7.187
17859WAT     H253820   8.684   4.946   7.311
17860WAT      O53821   1.958   0.162   2.486
17860WAT     H153822   1.908   0.225   2.545
17860WAT     H253823   2.055   0.188   2.484
17861WAT      O53824   2.062   2.979   2.002
17861WAT     H153825   2.061   2.885   1.968
17861WAT     H253826   2.111   2.983   2.089
17862WAT      O53827   2.957   5.097   8.333
17862WAT     H153828   2.882   5.037   8.308
17862WAT     H253829   2.991   5.072   8.424
17863WAT      O53830   8.382   2.300   6.465
17863WAT     H153831   8.415   2.241   6.539
17863WAT     H253832   8.452   2.368   6.443
17864WAT      O53833   8.881   8.830   3.040
17864WAT     H153834   8.785   8.805   3.053
17864WAT     H253835   8.892   8.878   2.953
17865WAT      O53836   7.554   7.056   1.055
17865WAT     H153837   7.511   7.114   1.124
17865WAT     H253838   7.509   7.071   0.967
17866WAT      O53839   7.245   1.398   6.993
17866WAT     H153840   7.296   1.335   6.934
17866WAT     H253841   7.221   1.480   6.941
17867WAT      O53842   8.762   8.327   7.143
17867WAT     H153843   8.767   8.258   7.071
17867WAT     H253844   8.734   8.282   7.229
17868WAT      O53845   8.230   7.801   4.150
17868WAT     H153846   8.220   7.739   4.072
17868WAT     H253847   8.173   7.882   4.135
17869WAT      O53848   5.824   2.897   0.287
17869WAT     H153849   5.742   2.912   0.231
17869WAT     H253850   5.884   2.977   0.280
17870WAT      O53851   7.278   0.080   0.947
17870WAT     H153852   7.269  -0.000   0.888
17870WAT     H253853   7.362   0.130   0.923
17871WAT      O53854   3.302   2.259   7.077
17871WAT     H153855   3.214   2.272   7.122
17871WAT     H253856   3.309   2.320   6.998
17872WAT      O53857   6.670   8.365   6.912
17872WAT     H153858   6.732   8.308   6.966
17872WAT     H253859   6.699   8.461   6.919
17873WAT      O53860   8.642   3.496   7.794
17873WAT     H153861   8.677   3.408   7.761
17873WAT     H253862   8.718   3.560   7.804
17874WAT      O53863   9.866   9.636   4.152
17874WAT     H153864   9.954   9.680   4.133
17874WAT     H253865   9.858   9.619   4.251
17875WAT      O53866   3.673   1.081   6.394
17875WAT     H153867   3.668   1.143   6.316
17875WAT     H253868   3.601   1.104   6.459
17876WAT      O53869   0.906   2.083   4.747
17876WAT     H153870   0.925   2.000   4.800
17876WAT     H253871   0.911   2.163   4.806
17877WAT      O53872   3.957   0.039   7.483
17877WAT     H153873   4.027   0.111   7.485
17877WAT     H253874   3.867   0.081   7.490
17878WAT      O53875   8.406   8.471   1.733
17878WAT     H153876   8.341   8.431   1.669
17878WAT     H253877   8.497   8.431   1.718
17879WAT      O53878   3.842   1.440   1.573
17879WAT     H153879   3.923   1.381   1.574
17879WAT     H253880   3.817   1.462   1.479
17880WAT      O53881   7.878   3.708   7.051
17880WAT     H153882   7.897   3.771   7.126
17880WAT     H253883   7.856   3.759   6.968
17881WAT      O53884   7.404   7.651   4.469
17881WAT     H153885   7.330   7.610   4.416
17881WAT     H253886   7.370   7.678   4.559
17882WAT      O53887   3.796   2.854   1.620
17882WAT     H153888   3.863   2.888   1.555
17882WAT     H253889   3.755   2.770   1.586
17883WAT      O53890   3.903   4.394   7.233
17883WAT     H153891   3.883   4.487   7.263
17883WAT     H253892   3.984   4.360   7.281
17884WAT      O53893   2.110   5.142   9.259
17884WAT     H153894   2.185   5.191   9.304
17884WAT     H253895   2.024   5.187   9.281
17885WAT      O53896   3.674   6.747   7.703
17885WAT     H153897   3.614   6.813   7.657
17885WAT     H253898   3.688   6.776   7.798
17886WAT      O53899   7.931   8.926   3.462
17886WAT     H153900   7.848   8.958   3.508
17886WAT     H253901   7.928   8.827   3.452
17887WAT      O53902   7.090   7.509   7.842
17887WAT     H153903   7.171   7.568   7.845
17887WAT     H253904   7.017   7.556   7.794
17888WAT      O53905   1.028   1.474   7.310
17888WAT     H153906   1.110   1.453   7.257
17888WAT     H253907   1.032   1.428   7.399
17889WAT      O53908   4.351   7.889   0.555
17889WAT     H153909   4.369   7.972   0.503
17889WAT     H253910   4.438   7.851   0.587
17890WAT      O53911   8.674   4.429   9.677
17890WAT     H153912   8.731   4.384   9.608
17890WAT     H253913   8.724   4.433   9.764
17891WAT      O53914   6.068   8.962   6.613
17891WAT     H153915   5.998   8.903   6.653
17891WAT     H253916   6.130   8.993   6.685
17892WAT      O53917   7.336   1.251   6.776
17892WAT     H153918   7.309   1.306   6.697
17892WAT     H253919   7.435   1.236   6.774
17893WAT      O53920   5.022   5.498   7.907
17893WAT     H153921   4.972   5.584   7.914
17893WAT     H253922   4.978   5.429   7.964
17894WAT      O53923   3.627   3.953   7.128
17894WAT     H153924   3.571   4.028   7.093
17894WAT     H253925   3.670   3.980   7.214
17895WAT      O53926   2.630   3.279   7.782
17895WAT     H153927   2.649   3.376   7.799
17895WAT     H253928   2.636   3.229   7.869
17896WAT      O53929   0.990   2.399   1.097
17896WAT     H153930   0.954   2.414   1.005
17896WAT     H253931   0.919   2.422   1.164
17897WAT      O53932   7.832   3.730   0.290
17897WAT     H153933   7.912   3.681   0.254
17897WAT     H253934   7.789   3.782   0.216
17898WAT      O53935   9.026   7.798   5.922
17898WAT     H153936   9.044   7.878   5.979
17898WAT     H253937   9.045   7.820   5.826
17899WAT      O53938   7.477   5.621   2.392
17899WAT     H153939   7.573   5.594   2.383
17899WAT     H253940   7.447   5.666   2.308
17900WAT      O53941   6.960   5.245   9.784
17900WAT     H153942   6.890   5.200   9.838
17900WAT     H253943   7.003   5.317   9.838
17901WAT      O53944   5.695   1.690   0.507
17901WAT     H153945   5.672   1.784   0.484
17901WAT     H253946   5.758   1.688   0.585
17902WAT      O53947   3.385   9.443   6.608
17902WAT     H153948   3.294   9.469   6.639
17902WAT     H253949   3.391   9.454   6.509
17903WAT      O53950   4.099   0.861   7.837
17903WAT     H153951   4.112   0.960   7.845
17903WAT     H253952   4.108   0.819   7.928
17904WAT      O53953   5.992   7.581   0.190
17904WAT     H153954   6.060   7.614   0.124
17904WAT     H253955   5.972   7.485   0.171
17905WAT      O53956   8.403   9.385   5.585
17905WAT     H153957   8.349   9.304   5.609
17905WAT     H253958   8.412   9.444   5.665
17906WAT      O53959   4.087   9.129   0.246
17906WAT     H153960   4.172   9.180   0.230
17906WAT     H253961   4.067   9.129   0.344
17907WAT      O53962   0.319   3.970   4.869
17907WAT     H153963   0.417   3.961   4.886
17907WAT     H253964   0.304   4.005   4.776
17908WAT      O53965   2.441   4.282   7.646
17908WAT     H153966   2.522   4.223   7.637
17908WAT     H253967   2.386   4.275   7.564
17909WAT      O53968   1.353   6.552   1.941
17909WAT     H153969   1.275   6.544   2.003
17909WAT     H253970   1.332   6.617   1.868
17910WAT      O53971   6.145   0.649   6.713
17910WAT     H153972   6.053   0.682   6.693
17910WAT     H253973   6.201   0.653   6.631
17911WAT      O53974   1.800   4.452   3.893
17911WAT     H153975   1.726   4.471   3.957
17911WAT     H253976   1.886   4.486   3.930
17912WAT      O53977   7.794   2.111   5.927
17912WAT     H153978   7.856   2.124   5.850
17912WAT     H253979   7.805   2.186   5.992
17913WAT      O53980   3.479   5.077   4.611
17913WAT     H153981   3.418   5.156   4.598
17913WAT     H253982   3.517   5.079   4.704
17914WAT      O53983   8.474   4.484   6.986
17914WAT     H153984   8.525   4.435   6.916
17914WAT     H253985   8.534   4.552   7.029
17915WAT      O53986   1.444   2.347   1.647
17915WAT     H153987   1.463   2.439   1.613
17915WAT     H253988   1.347   2.339   1.671
17916WAT      O53989   6.399   3.118   1.409
17916WAT     H153990   6.415   3.137   1.505
17916WAT     H253991   6.306   3.083   1.397
17917WAT      O53992   9.101   3.326   7.902
17917WAT     H153993   9.072   3.268   7.826
17917WAT     H253994   9.063   3.291   7.988
17918WAT      O53995   5.646   0.268   4.765
17918WAT     H153996   5.716   0.210   4.807
17918WAT     H253997   5.565   0.269   4.823
17919WAT      O53998   6.349   5.097   1.245
17919WAT     H153999   6.391   5.173   1.196
17919WAT     H254000   6.345   5.017   1.185
17920WAT      O54001   9.342   6.075   1.356
17920WAT     H154002   9.311   6.169   1.365
17920WAT     H254003   9.369   6.057   1.262
17921WAT      O54004   6.023   5.914   0.813
17921WAT     H154005   6.083   5.906   0.893
17921WAT     H254006   5.928   5.921   0.843
17922WAT      O54007   1.229   3.242   9.078
17922WAT     H154008   1.179   3.159   9.099
17922WAT     H254009   1.309   3.249   9.137
17923WAT      O54010   6.127   3.079   7.070
17923WAT     H154011   6.031   3.072   7.044
17923WAT     H254012   6.182   3.103   6.989
17924WAT      O54013   2.906   9.663   2.010
17924WAT     H154014   2.933   9.668   1.914
17924WAT     H254015   2.987   9.655   2.068
17925WAT      O54016   3.509   1.444   1.535
17925WAT     H154017   3.435   1.389   1.576
17925WAT     H254018   3.475   1.488   1.452
17926WAT      O54019   8.420   9.009   4.129
17926WAT     H154020   8.371   8.972   4.208
17926WAT     H254021   8.510   9.041   4.157
17927WAT      O54022   8.997   4.617   5.267
17927WAT     H154023   8.943   4.680   5.323
17927WAT     H254024   8.961   4.524   5.276
17928WAT      O54025   0.599   2.394   7.484
17928WAT     H154026   0.514   2.346   7.505
17928WAT     H254027   0.675   2.352   7.535
17929WAT      O54028   1.975   8.593   4.029
17929WAT     H154029   1.939   8.634   4.113
17929WAT     H254030   1.934   8.638   3.949
17930WAT      O54031   9.727   9.773   9.844
17930WAT     H154032   9.741   9.676   9.862
17930WAT     H254033   9.672   9.785   9.762
17931WAT      O54034   5.334   5.987   2.378
17931WAT     H154035   5.357   6.080   2.351
17931WAT     H254036   5.270   5.989   2.455
17932WAT      O54037   0.877   4.011   4.203
17932WAT     H154038   0.844   3.945   4.135
17932WAT     H254039   0.890   4.100   4.159
17933WAT      O54040   0.085   4.433   0.814
17933WAT     H154041   0.011   4.463   0.874
17933WAT     H254042   0.153   4.506   0.806
17934WAT      O54043   3.094   7.228   4.550
17934WAT     H154044   3.190   7.213   4.525
17934WAT     H254045   3.035   7.173   4.491
17935WAT      O54046   1.170   4.212   0.424
17935WAT     H154047   1.135   4.304   0.405
17935WAT     H254048   1.120   4.145   0.370
17936WAT      O54049   4.253   4.019   7.470
17936WAT     H154050   4.272   4.083   7.544
17936WAT     H254051   4.304   3.934   7.486
17937WAT      O54052   9.793   8.057   9.054
17937WAT     H154053   9.847   7.974   9.069
17937WAT     H254054   9.792   8.079   8.956
17938WAT      O54055   7.876   2.255   0.510
17938WAT     H154056   7.876   2.272   0.412
17938WAT     H254057   7.920   2.331   0.558
17939WAT      O54058   4.074   8.973   9.404
17939WAT     H154059   4.087   8.874   9.402
17939WAT     H254060   4.154   9.018   9.365
17940WAT      O54061   7.712   9.166   0.610
17940WAT     H154062   7.642   9.170   0.682
17940WAT     H254063   7.705   9.078   0.562
17941WAT      O54064   8.044   0.626   7.580
17941WAT     H154065   7.950   0.632   7.614
17941WAT     H254066   8.103   0.587   7.652
17942WAT      O54067   1.117   5.756   1.712
17942WAT     H154068   1.020   5.737   1.726
17942WAT     H254069   1.172   5.681   1.749
17943WAT      O54070   6.867   2.328   1.906
17943WAT     H154071   6.872   2.229   1.889
17943WAT     H254072   6.943   2.355   1.965
17944WAT      O54073   3.912   0.971   2.005
17944WAT     H154074   3.833   0.945   1.948
17944WAT     H254075   3.891   1.055   2.055
17945WAT      O54076   6.923   8.415   5.061
17945WAT     H154077   6.995   8.482   5.080
17945WAT     H254078   6.891   8.376   5.147
17946WAT      O54079   0.005   8.659   6.249
17946WAT     H154080   0.010   8.580   6.310
17946WAT     H254081  -0.086   8.664   6.209
17947WAT      O54082   3.128   8.820   1.742
17947WAT     H154083   3.059   8.879   1.700
17947WAT     H254084   3.155   8.858   1.831
17948WAT      O54085   2.904   3.437   6.494
17948WAT     H154086   2.842   3.514   6.509
17948WAT     H254087   2.885   3.395   6.405
17949WAT      O54088   5.881   8.075   7.596
17949WAT     H154089   5.793   8.124   7.598
17949WAT     H254090   5.879   8.000   7.662
17950WAT      O54091   9.031   8.374   3.044
17950WAT     H154092   9.081   8.289   3.028
17950WAT     H254093   9.090   8.452   3.023
17951WAT      O54094   7.263   8.919   7.154
17951WAT     H154095   7.313   8.989   7.205
17951WAT     H254096   7.189   8.961   7.102
17952WAT      O54097   7.322   4.069   6.026
17952WAT     H154098   7.254   4.132   5.989
17952WAT     H254099   7.391   4.122   6.076
17953WAT      O54100   3.761   5.095   1.833
17953WAT     H154101   3.851   5.081   1.793
17953WAT     H254102   3.766   5.166   1.904
17954WAT      O54103   9.788   9.445   5.772
17954WAT     H154104   9.753   9.433   5.865
17954WAT     H254105   9.770   9.362   5.719
17955WAT      O54106   0.567   7.405   2.696
17955WAT     H154107   0.495   7.400   2.766
17955WAT     H254108   0.528   7.444   2.612
17956WAT      O54109   3.098   4.332   3.720
17956WAT     H154110   3.194   4.359   3.717
17956WAT     H254111   3.043   4.400   3.671
17957WAT      O54112   8.607   6.206   0.623
17957WAT     H154113   8.632   6.224   0.527
17957WAT     H254114   8.569   6.289   0.663
17958WAT      O54115   9.111   4.482   6.698
17958WAT     H154116   9.175   4.423   6.747
17958WAT     H254117   9.107   4.571   6.743
17959WAT      O54118   1.404   9.575   0.828
17959WAT     H154119   1.362   9.490   0.858
17959WAT     H254120   1.490   9.556   0.781
17960WAT      O54121   7.387   6.628   0.299
17960WAT     H154122   7.409   6.561   0.228
17960WAT     H254123   7.290   6.620   0.324
17961WAT      O54124   6.766   1.945   1.270
17961WAT     H154125   6.765   2.020   1.204
17961WAT     H254126   6.678   1.940   1.318
17962WAT      O54127   8.929   6.507   9.130
17962WAT     H154128   8.936   6.606   9.119
17962WAT     H254129   8.902   6.465   9.044
17963WAT      O54130   0.754   3.309   3.166
17963WAT     H154131   0.850   3.300   3.141
17963WAT     H254132   0.734   3.406   3.183
17964WAT      O54133   8.989   4.601   1.723
17964WAT     H154134   8.936   4.666   1.669
17964WAT     H254135   8.975   4.620   1.820
17965WAT      O54136   6.571   2.406   8.531
17965WAT     H154137   6.625   2.484   8.502
17965WAT     H254138   6.500   2.436   8.594
17966WAT      O54139   9.877   8.426   6.773
17966WAT     H154140   9.954   8.490   6.765
17966WAT     H254141   9.801   8.471   6.820
17967WAT      O54142   6.017   7.926   1.889
17967WAT     H154143   5.963   7.865   1.947
17967WAT     H254144   6.033   7.882   1.801
17968WAT      O54145   1.826   7.876   3.054
17968WAT     H154146   1.914   7.922   3.064
17968WAT     H254147   1.828   7.816   2.974
17969WAT      O54148   5.471   4.035   6.022
17969WAT     H154149   5.386   4.066   6.064
17969WAT     H254150   5.512   4.110   5.970
17970WAT      O54151   7.417   8.797   4.553
17970WAT     H154152   7.431   8.888   4.515
17970WAT     H254153   7.491   8.737   4.523
17971WAT      O54154   7.422   5.333   9.849
17971WAT     H154155   7.475   5.273   9.909
17971WAT     H254156   7.333   5.353   9.890
17972WAT      O54157   7.380   7.771   5.659
17972WAT     H154158   7.339   7.696   5.711
17972WAT     H254159   7.471   7.791   5.696
17973WAT      O54160   1.059   4.496   9.091
17973WAT     H154161   1.033   4.512   9.186
17973WAT     H254162   1.111   4.574   9.056
17974WAT      O54163   8.043   4.575   0.161
17974WAT     H154164   7.987   4.536   0.088
17974WAT     H254165   7.987   4.634   0.219
17975WAT      O54166   0.193   8.369   0.662
17975WAT     H154167   0.176   8.385   0.565
17975WAT     H254168   0.291   8.356   0.677
17976WAT      O54169   1.549   3.363   6.239
17976WAT     H154170   1.573   3.341   6.334
17976WAT     H254171   1.626   3.343   6.180
17977WAT      O54172   9.601   0.482   8.657
17977WAT     H154173   9.558   0.405   8.610
17977WAT     H254174   9.612   0.559   8.594
17978WAT      O54175   5.034   6.926   5.565
17978WAT     H154176   5.016   6.962   5.657
17978WAT     H254177   5.001   6.990   5.496
17979WAT      O54178   5.624   4.136   6.891
17979WAT     H154179   5.570   4.116   6.973
17979WAT     H254180   5.579   4.096   6.811
17980WAT      O54181   3.895   0.540   4.274
17980WAT     H154182   3.974   0.560   4.332
17980WAT     H254183   3.862   0.448   4.292
17981WAT      O54184   5.242   2.407   4.833
17981WAT     H154185   5.333   2.371   4.817
17981WAT     H254186   5.245   2.507   4.837
17982WAT      O54187   3.767   1.971   6.073
17982WAT     H154188   3.834   1.970   6.148
17982WAT     H254189   3.742   2.066   6.052
17983WAT      O54190   0.590   3.891   4.930
17983WAT     H154191   0.602   3.822   5.002
17983WAT     H254192   0.669   3.952   4.929
17984WAT      O54193   7.670   4.728   6.838
17984WAT     H154194   7.726   4.803   6.875
17984WAT     H254195   7.723   4.678   6.770
17985WAT      O54196   0.011   2.619   1.327
17985WAT     H154197  -0.019   2.684   1.397
17985WAT     H254198   0.019   2.666   1.239
17986WAT      O54199   9.661   4.215   3.842
17986WAT     H154200   9.569   4.177   3.854
17986WAT     H254201   9.657   4.293   3.780
17987WAT      O54202   7.937   8.585   6.241
17987WAT     H154203   7.909   8.681   6.254
17987WAT     H254204   8.034   8.576   6.259
17988WAT      O54205   6.189   6.242   6.840
17988WAT     H154206   6.221   6.198   6.924
17988WAT     H254207   6.104   6.292   6.858
17989WAT      O54208   9.335   2.404   6.959
17989WAT     H154209   9.272   2.447   7.024
17989WAT     H254210   9.338   2.305   6.975
17990WAT      O54211   9.509   8.379   8.169
17990WAT     H154212   9.517   8.281   8.153
17990WAT     H254213   9.438   8.417   8.109
17991WAT      O54214   3.915   4.034   0.952
17991WAT     H154215   3.840   4.086   0.912
17991WAT     H254216   3.915   3.941   0.914
17992WAT      O54217   4.123   7.031   2.784
17992WAT     H154218   4.144   6.965   2.856
17992WAT     H254219   4.084   7.114   2.825
17993WAT      O54220   7.404   0.054   7.515
17993WAT     H154221   7.478   0.057   7.583
17993WAT     H254222   7.387   0.146   7.481
17994WAT      O54223   2.430   7.946   8.921
17994WAT     H154224   2.363   7.928   8.850
17994WAT     H254225   2.510   7.992   8.882
17995WAT      O54226   4.784   3.881   7.755
17995WAT     H154227   4.747   3.788   7.760
17995WAT     H254228   4.764   3.920   7.666
17996WAT      O54229   3.148   6.993   1.793
17996WAT     H154230   3.097   6.916   1.755
17996WAT     H254231   3.115   7.078   1.752
17997WAT      O54232   4.127   2.247   9.557
17997WAT     H154233   4.170   2.179   9.617
17997WAT     H254234   4.063   2.202   9.495
17998WAT      O54235   0.709   7.795   5.876
17998WAT     H154236   0.783   7.851   5.837
17998WAT     H254237   0.637   7.855   5.911
17999WAT      O54238   8.954   6.183   3.798
17999WAT     H154239   8.961   6.171   3.897
17999WAT     H254240   8.862   6.215   3.775
18000WAT      O54241   9.818   3.298   7.677
18000WAT     H154242   9.815   3.334   7.584
18000WAT     H254243   9.731   3.254   7.699
18001WAT      O54244   3.932   2.103   9.447
18001WAT     H154245   3.919   2.004   9.446
18001WAT     H254246   3.844   2.149   9.436
18002WAT      O54247   9.008   9.136   1.778
18002WAT     H154248   9.000   9.189   1.862
18002WAT     H254249   9.097   9.090   1.776
18003WAT      O54250   8.781   6.439   9.379
18003WAT     H154251   8.704   6.475   9.326
18003WAT     H254252   8.854   6.412   9.317
18004WAT      O54253   6.914   6.807   5.401
18004WAT     H154254   6.923   6.766   5.310
18004WAT     H254255   6.997   6.789   5.454
18005WAT      O54256   7.730   2.644   9.261
18005WAT     H154257   7.779   2.560   9.241
18005WAT     H254258   7.677   2.633   9.345
18006WAT      O54259   1.481   4.859   2.938
18006WAT     H154260   1.524   4.946   2.959
18006WAT     H254261   1.494   4.796   3.015
18007WAT      O54262   6.188   0.320   6.599
18007WAT     H154263   6.159   0.339   6.505
18007WAT     H254264   6.126   0.366   6.663
18008WAT      O54265   0.455   3.224   9.403
18008WAT     H154266   0.532   3.168   9.432
18008WAT     H254267   0.414   3.185   9.321
18009WAT      O54268   8.239   5.322   4.871
18009WAT     H154269   8.296   5.291   4.947
18009WAT     H254270   8.271   5.280   4.786
18010WAT      O54271   3.430   9.547   5.529
18010WAT     H154272   3.398   9.616   5.594
18010WAT     H254273   3.478   9.474   5.579
18011WAT      O54274   7.356   6.045   2.181
18011WAT     H154275   7.382   6.006   2.093
18011WAT     H254276   7.308   6.131   2.166
18012WAT      O54277   8.617   7.754   7.278
18012WAT     H154278   8.653   7.778   7.368
18012WAT     H254279   8.683   7.781   7.207
18013WAT      O54280   2.455   2.524   1.473
18013WAT     H154281   2.440   2.428   1.496
18013WAT     H254282   2.367   2.567   1.450
18014WAT      O54283   3.527   1.471   6.160
18014WAT     H154284   3.437   1.435   6.136
18014WAT     H254285   3.575   1.499   6.077
18015WAT      O54286   2.706   3.544   7.411
18015WAT     H154287   2.655   3.511   7.331
18015WAT     H254288   2.722   3.468   7.474
18016WAT      O54289   8.068   5.313   8.763
18016WAT     H154290   8.062   5.402   8.808
18016WAT     H254291   7.992   5.256   8.792
18017WAT      O54292   3.993   3.845   2.370
18017WAT     H154293   4.039   3.836   2.282
18017WAT     H254294   3.905   3.797   2.367
18018WAT      O54295   5.113   5.906   8.964
18018WAT     H154296   5.194   5.962   8.981
18018WAT     H254297   5.124   5.858   8.877
18019WAT      O54298   2.068   6.042   1.077
18019WAT     H154299   2.083   6.125   1.022
18019WAT     H254300   2.111   5.964   1.032
18020WAT      O54301   9.870   8.949   9.685
18020WAT     H154302   9.858   8.998   9.598
18020WAT     H254303   9.928   9.004   9.746
18021WAT      O54304   9.167   3.420   4.518
18021WAT     H154305   9.212   3.334   4.492
18021WAT     H254306   9.234   3.494   4.520
18022WAT      O54307   3.440   6.234   6.706
18022WAT     H154308   3.486   6.271   6.625
18022WAT     H254309   3.480   6.146   6.730
18023WAT      O54310   5.134   8.225   4.578
18023WAT     H154311   5.098   8.141   4.538
18023WAT     H254312   5.089   8.242   4.666
18024WAT      O54313   5.061   4.189   2.989
18024WAT     H154314   4.976   4.208   3.039
18024WAT     H254315   5.126   4.142   3.050
18025WAT      O54316   3.524   0.394   8.958
18025WAT     H154317   3.484   0.416   8.870
18025WAT     H254318   3.451   0.382   9.026
18026WAT      O54319   4.255   5.004   2.378
18026WAT     H154320   4.176   4.945   2.362
18026WAT     H254321   4.229   5.099   2.361
18027WAT      O54322   0.956   4.985   5.015
18027WAT     H154323   0.893   5.003   4.939
18027WAT     H254324   1.044   4.955   4.978
18028WAT      O54325   0.074   8.014   1.192
18028WAT     H154326   0.064   7.915   1.202
18028WAT     H254327   0.150   8.033   1.129
18029WAT      O54328   5.228   9.559   7.319
18029WAT     H154329   5.262   9.591   7.231
18029WAT     H254330   5.193   9.465   7.309
18030WAT      O54331   1.384   5.203   5.835
18030WAT     H154332   1.383   5.169   5.741
18030WAT     H254333   1.377   5.126   5.898
18031WAT      O54334   3.601   9.340   6.054
18031WAT     H154335   3.572   9.295   6.139
18031WAT     H254336   3.546   9.306   5.978
18032WAT      O54337   2.014   1.323   4.060
18032WAT     H154338   1.968   1.307   3.972
18032WAT     H254339   2.077   1.248   4.079
18033WAT      O54340   2.574   1.891   9.631
18033WAT     H154341   2.522   1.914   9.713
18033WAT     H254342   2.595   1.793   9.632
18034WAT      O54343   4.122   1.785   3.505
18034WAT     H154344   4.071   1.735   3.435
18034WAT     H254345   4.119   1.735   3.591
18035WAT      O54346   9.799   3.780   8.516
18035WAT     H154347   9.749   3.786   8.429
18035WAT     H254348   9.776   3.859   8.573
18036WAT      O54349   7.791   3.105   6.994
18036WAT     H154350   7.739   3.049   7.059
18036WAT     H254351   7.879   3.062   6.975
18037WAT      O54352   7.135   4.476   7.807
18037WAT     H154353   7.223   4.512   7.774
18037WAT     H254354   7.103   4.405   7.745
18038WAT      O54355   6.798   2.887   4.258
18038WAT     H154356   6.840   2.894   4.167
18038WAT     H254357   6.699   2.878   4.248
18039WAT      O54358   5.590   0.179   2.140
18039WAT     H154359   5.653   0.102   2.149
18039WAT     H254360   5.625   0.243   2.072
18040WAT      O54361   6.799   4.893   9.645
18040WAT     H154362   6.874   4.936   9.595
18040WAT     H254363   6.832   4.860   9.734
18041WAT      O54364   2.174   9.693   9.441
18041WAT     H154365   2.075   9.703   9.449
18041WAT     H254366   2.219   9.739   9.518
18042WAT      O54367   1.822   2.134   5.728
18042WAT     H154368   1.731   2.149   5.767
18042WAT     H254369   1.863   2.052   5.769
18043WAT      O54370   5.005   1.573   9.226
18043WAT     H154371   5.046   1.483   9.210
18043WAT     H254372   5.015   1.597   9.323
18044WAT      O54373   9.020   8.672   5.198
18044WAT     H154374   8.944   8.617   5.234
18044WAT     H254375   9.106   8.624   5.217
18045WAT      O54376   5.606   8.201   2.425
18045WAT     H154377   5.532   8.248   2.378
18045WAT     H254378   5.604   8.104   2.403
18046WAT      O54379   8.270   0.921   0.009
18046WAT     H154380   8.228   0.852   0.068
18046WAT     H254381   8.207   0.997  -0.004
18047WAT      O54382   3.775   9.539   1.921
18047WAT     H154383   3.858   9.499   1.883
18047WAT     H254384   3.790   9.560   2.018
18048WAT      O54385   7.167   2.378   2.779
18048WAT     H154386   7.137   2.453   2.838
18048WAT     H254387   7.224   2.314   2.831
18049WAT      O54388   7.930   1.409   7.473
18049WAT     H154389   7.850   1.453   7.513
18049WAT     H254390   8.013   1.444   7.516
18050WAT      O54391   1.752   3.300   6.076
18050WAT     H154392   1.690   3.280   6.000
18050WAT     H254393   1.843   3.267   6.054
18051WAT      O54394   1.702   3.273   3.344
18051WAT     H154395   1.717   3.214   3.423
18051WAT     H254396   1.790   3.301   3.306
18052WAT      O54397   3.010   8.874   8.203
18052WAT     H154398   3.043   8.795   8.151
18052WAT     H254399   2.962   8.936   8.141
18053WAT      O54400   0.386   5.582   7.367
18053WAT     H154401   0.412   5.604   7.273
18053WAT     H254402   0.319   5.649   7.399
18054WAT      O54403   1.219   5.546   7.263
18054WAT     H154404   1.282   5.623   7.273
18054WAT     H254405   1.254   5.467   7.314
18055WAT      O54406   9.808   9.251   5.236
18055WAT     H154407   9.727   9.206   5.272
18055WAT     H254408   9.785   9.345   5.208
18056WAT      O54409   5.740   4.584   0.213
18056WAT     H154410   5.792   4.627   0.287
18056WAT     H254411   5.655   4.546   0.250
18057WAT      O54412   2.546   5.494   4.032
18057WAT     H154413   2.493   5.550   4.095
18057WAT     H254414   2.505   5.404   4.023
18058WAT      O54415   6.365   3.719   4.535
18058WAT     H154416   6.347   3.753   4.628
18058WAT     H254417   6.464   3.707   4.523
18059WAT      O54418   0.396   1.047   3.777
18059WAT     H154419   0.484   1.001   3.784
18059WAT     H254420   0.337   1.017   3.852
18060WAT      O54421   5.577   4.719   0.540
18060WAT     H154422   5.510   4.793   0.537
18060WAT     H254423   5.539   4.638   0.495
18061WAT      O54424   8.360   7.251   3.812
18061WAT     H154425   8.413   7.196   3.877
18061WAT     H254426   8.281   7.291   3.859
18062WAT      O54427   3.871   6.845   9.466
18062WAT     H154428   3.923   6.821   9.548
18062WAT     H254429   3.929   6.834   9.386
18063WAT      O54430   8.921   1.689   7.370
18063WAT     H154431   8.887   1.598   7.396
18063WAT     H254432   9.021   1.685   7.358
18064WAT      O54433   8.842   1.008   0.067
18064WAT     H154434   8.851   1.080  -0.002
18064WAT     H254435   8.875   1.043   0.155
18065WAT      O54436   3.173   4.938   2.841
18065WAT     H154437   3.107   4.864   2.839
18065WAT     H254438   3.231   4.929   2.922
18066WAT      O54439   3.606   3.119   0.686
18066WAT     H154440   3.603   3.149   0.591
18066WAT     H254441   3.653   3.188   0.741
18067WAT      O54442   7.588   1.925   6.383
18067WAT     H154443   7.597   1.887   6.475
18067WAT     H254444   7.494   1.915   6.352
18068WAT      O54445   8.671   4.358   5.731
18068WAT     H154446   8.586   4.309   5.750
18068WAT     H254447   8.748   4.295   5.732
18069WAT      O54448   0.161   8.727   3.143
18069WAT     H154449   0.192   8.641   3.103
18069WAT     H254450   0.064   8.721   3.164
18070WAT      O54451   4.710   5.325   8.396
18070WAT     H154452   4.799   5.368   8.386
18070WAT     H254453   4.713   5.255   8.466
18071WAT      O54454   8.688   1.478   3.444
18071WAT     H154455   8.764   1.437   3.394
18071WAT     H254456   8.721   1.559   3.493
18072WAT      O54457   2.614   4.214   3.154
18072WAT     H154458   2.583   4.124   3.122
18072WAT     H254459   2.655   4.206   3.245
18073WAT      O54460   0.948   4.461   1.400
18073WAT     H154461   1.003   4.508   1.331
18073WAT     H254462   0.871   4.415   1.357
18074WAT      O54463   7.015   3.516   4.503
18074WAT     H154464   6.955   3.533   4.581
18074WAT     H254465   7.077   3.594   4.492
18075WAT      O54466   6.805   4.312   2.998
18075WAT     H154467   6.769   4.363   3.076
18075WAT     H254468   6.770   4.352   2.913
18076WAT      O54469   6.819   9.004   6.727
18076WAT     H154470   6.793   8.935   6.660
18076WAT     H254471   6.783   8.978   6.817
18077WAT      O54472   5.765   5.976   4.736
18077WAT     H154473   5.677   6.024   4.740
18077WAT     H254474   5.802   5.967   4.828
18078WAT      O54475   5.028   2.816   8.867
18078WAT     H154476   4.997   2.780   8.955
18078WAT     H254477   5.127   2.831   8.870
18079WAT      O54478   5.886   6.064   7.494
18079WAT     H154479   5.806   6.056   7.434
18079WAT     H254480   5.969   6.066   7.438
18080WAT      O54481   9.006   1.892   6.839
18080WAT     H154482   8.978   1.919   6.746
18080WAT     H254483   9.088   1.942   6.865
18081WAT      O54484   6.087   0.435   5.269
18081WAT     H154485   6.043   0.385   5.344
18081WAT     H254486   6.154   0.376   5.223
18082WAT      O54487   6.105   0.183   8.531
18082WAT     H154488   6.136   0.111   8.469
18082WAT     H254489   6.074   0.142   8.617
18083WAT      O54490   7.784   4.091   1.268
18083WAT     H154491   7.811   4.001   1.304
18083WAT     H254492   7.790   4.090   1.169
18084WAT      O54493   7.723   0.797   9.513
18084WAT     H154494   7.766   0.718   9.558
18084WAT     H254495   7.648   0.831   9.570
18085WAT      O54496   1.721   5.883   2.755
18085WAT     H154497   1.789   5.811   2.774
18085WAT     H254498   1.762   5.953   2.697
18086WAT      O54499   6.900   1.090   8.891
18086WAT     H154500   6.925   0.997   8.865
18086WAT     H254501   6.842   1.086   8.972
18087WAT      O54502   7.515   8.393   9.491
18087WAT     H154503   7.485   8.425   9.581
18087WAT     H254504   7.438   8.355   9.441
18088WAT      O54505   1.862   9.688   6.380
18088WAT     H154506   1.832   9.694   6.285
18088WAT     H254507   1.785   9.706   6.441
18089WAT      O54508   1.097   2.707   1.533
18089WAT     H154509   1.158   2.706   1.453
18089WAT     H254510   1.128   2.638   1.599
18090WAT      O54511   8.611   4.846   1.337
18090WAT     H154512   8.536   4.833   1.402
18090WAT     H254513   8.633   4.759   1.294
18091WAT      O54514   8.125   5.614   4.246
18091WAT     H154515   8.058   5.542   4.229
18091WAT     H254516   8.209   5.574   4.283
18092WAT      O54517   3.878   6.819   8.945
18092WAT     H154518   3.929   6.773   9.017
18092WAT     H254519   3.802   6.761   8.916
18093WAT      O54520   7.738   7.193   2.812
18093WAT     H154521   7.702   7.268   2.867
18093WAT     H254522   7.728   7.107   2.862
18094WAT      O54523   9.145   9.632   4.434
18094WAT     H154524   9.081   9.706   4.454
18094WAT     H254525   9.149   9.618   4.335
18095WAT      O54526   0.609   3.895   1.077
18095WAT     H154527   0.597   3.987   1.041
18095WAT     H254528   0.591   3.895   1.175
18096WAT      O54529   6.263   0.523   8.028
18096WAT     H154530   6.259   0.623   8.033
18096WAT     H254531   6.178   0.484   8.064
18097WAT      O54532   7.133   4.692   9.338
18097WAT     H154533   7.049   4.649   9.305
18097WAT     H254534   7.194   4.707   9.260
18098WAT      O54535   1.744   0.466   6.096
18098WAT     H154536   1.724   0.395   6.029
18098WAT     H254537   1.780   0.424   6.179
18099WAT      O54538   6.870   7.212   5.486
18099WAT     H154539   6.809   7.157   5.428
18099WAT     H254540   6.961   7.212   5.446
18100WAT      O54541   9.659   0.135   9.021
18100WAT     H154542   9.674   0.230   9.048
18100WAT     H254543   9.724   0.076   9.069
18101WAT      O54544   3.080   3.014   2.576
18101WAT     H154545   3.105   3.110   2.585
18101WAT     H254546   3.123   2.961   2.650
18102WAT      O54547   3.969   7.239   6.576
18102WAT     H154548   3.915   7.182   6.637
18102WAT     H254549   3.951   7.335   6.596
18103WAT      O54550   7.724   8.245   3.482
18103WAT     H154551   7.820   8.268   3.468
18103WAT     H254552   7.690   8.292   3.564
18104WAT      O54553   5.450   3.566   1.918
18104WAT     H154554   5.356   3.535   1.901
18104WAT     H254555   5.450   3.663   1.940
18105WAT      O54556   4.751   8.571   5.522
18105WAT     H154557   4.753   8.608   5.615
18105WAT     H254558   4.658   8.541   5.500
18106WAT      O54559   0.683   4.712   1.367
18106WAT     H154560   0.637   4.702   1.455
18106WAT     H254561   0.707   4.621   1.332
18107WAT      O54562   5.569   2.997   2.288
18107WAT     H154563   5.631   2.921   2.310
18107WAT     H254564   5.617   3.083   2.303
18108WAT      O54565   8.962   7.685   5.543
18108WAT     H154566   8.926   7.774   5.513
18108WAT     H254567   9.052   7.671   5.502
18109WAT      O54568   0.569   3.511   4.923
18109WAT     H154569   0.586   3.425   4.971
18109WAT     H254570   0.614   3.586   4.972
18110WAT      O54571   9.083   6.678   3.171
18110WAT     H154572   9.160   6.741   3.179
18110WAT     H254573   9.008   6.723   3.122
18111WAT      O54574   2.757   2.851   1.969
18111WAT     H154575   2.657   2.847   1.970
18111WAT     H254576   2.789   2.880   2.059
18112WAT      O54577   4.181   1.295   7.018
18112WAT     H154578   4.158   1.216   7.075
18112WAT     H254579   4.146   1.378   7.061
18113WAT      O54580   0.402   9.164   6.357
18113WAT     H154581   0.342   9.144   6.435
18113WAT     H254582   0.351   9.209   6.285
18114WAT      O54583   3.854   7.365   2.123
18114WAT     H154584   3.834   7.397   2.030
18114WAT     H254585   3.922   7.425   2.165
18115WAT      O54586   3.960   9.568   5.583
18115WAT     H154587   3.923   9.655   5.549
18115WAT     H254588   4.059   9.576   5.595
18116WAT      O54589   0.130   1.279   7.015
18116WAT     H154590   0.096   1.320   6.930
18116WAT     H254591   0.182   1.347   7.067
18117WAT      O54592   8.362   5.607   3.887
18117WAT     H154593   8.296   5.682   3.893
18117WAT     H254594   8.328   5.537   3.824
18118WAT      O54595   1.350   3.097   8.052
18118WAT     H154596   1.405   3.026   8.009
18118WAT     H254597   1.391   3.123   8.140
18119WAT      O54598   2.855   3.182   3.547
18119WAT     H154599   2.927   3.113   3.558
18119WAT     H254600   2.880   3.244   3.473
18120WAT      O54601   1.161   0.058   0.935
18120WAT     H154602   1.231   0.012   0.989
18120WAT     H254603   1.109  -0.009   0.883
18121WAT      O54604   7.121   0.164   7.012
18121WAT     H154605   7.174   0.234   6.963
18121WAT     H254606   7.182   0.093   7.045
18122WAT      O54607   4.805   7.655   6.520
18122WAT     H154608   4.875   7.724   6.503
18122WAT     H254609   4.769   7.667   6.612
18123WAT      O54610   0.228   8.974   3.055
18123WAT     H154611   0.205   9.001   2.962
18123WAT     H254612   0.173   8.895   3.082
18124WAT      O54613   3.774   1.247   6.821
18124WAT     H154614   3.760   1.148   6.808
18124WAT     H254615   3.819   1.285   6.739
18125WAT      O54616   1.025   3.437   2.586
18125WAT     H154617   0.989   3.441   2.679
18125WAT     H254618   1.040   3.529   2.552
18126WAT      O54619   7.638   4.663   2.069
18126WAT     H154620   7.611   4.574   2.032
18126WAT     H254621   7.674   4.720   1.995
18127WAT      O54622   4.415   0.652   4.749
18127WAT     H154623   4.400   0.619   4.656
18127WAT     H254624   4.473   0.733   4.747
18128WAT      O54625   7.745   0.212   2.586
18128WAT     H154626   7.679   0.194   2.658
18128WAT     H254627   7.811   0.281   2.618
18129WAT      O54628   1.602   2.247   4.308
18129WAT     H154629   1.654   2.168   4.340
18129WAT     H254630   1.612   2.256   4.208
18130WAT      O54631   3.009   4.864   7.062
18130WAT     H154632   2.961   4.920   6.994
18130WAT     H254633   3.042   4.781   7.018
18131WAT      O54634   6.942   1.558   8.088
18131WAT     H154635   6.852   1.573   8.045
18131WAT     H254636   7.014   1.586   8.024
18132WAT      O54637   4.113   5.672   2.205
18132WAT     H154638   4.087   5.767   2.191
18132WAT     H254639   4.087   5.643   2.297
18133WAT      O54640   1.367   9.569   5.846
18133WAT     H154641   1.364   9.520   5.933
18133WAT     H254642   1.311   9.520   5.778
18134WAT      O54643   8.241   9.667   0.367
18134WAT     H154644   8.216   9.759   0.340
18134WAT     H254645   8.310   9.671   0.440
18135WAT      O54646   5.638   7.681   0.878
18135WAT     H154647   5.733   7.670   0.848
18135WAT     H254648   5.577   7.635   0.813
18136WAT      O54649   0.198   6.929   8.029
18136WAT     H154650   0.276   6.867   8.026
18136WAT     H254651   0.223   7.016   7.985
18137WAT      O54652   5.829   8.226   8.081
18137WAT     H154653   5.856   8.318   8.105
18137WAT     H254654   5.863   8.203   7.989
18138WAT      O54655   6.858   6.877   6.409
18138WAT     H154656   6.853   6.963   6.358
18138WAT     H254657   6.792   6.880   6.485
18139WAT      O54658   6.236   1.364   0.749
18139WAT     H154659   6.269   1.450   0.787
18139WAT     H254660   6.136   1.366   0.745
18140WAT      O54661   2.736   0.592   7.863
18140WAT     H154662   2.697   0.500   7.873
18140WAT     H254663   2.689   0.640   7.789
18141WAT      O54664   4.154   0.781   9.079
18141WAT     H154665   4.210   0.723   9.138
18141WAT     H254666   4.196   0.787   8.988
18142WAT      O54667   9.564   7.415   5.633
18142WAT     H154668   9.602   7.328   5.602
18142WAT     H254669   9.474   7.400   5.672
18143WAT      O54670   8.676   3.163   1.059
18143WAT     H154671   8.758   3.113   1.032
18143WAT     H254672   8.596   3.122   1.015
18144WAT      O54673   5.613   1.149   0.967
18144WAT     H154674   5.591   1.183   0.876
18144WAT     H254675   5.534   1.159   1.027
18145WAT      O54676   1.287   0.444   8.967
18145WAT     H154677   1.361   0.505   8.997
18145WAT     H254678   1.268   0.377   9.039
18146WAT      O54679   1.311   7.612   6.012
18146WAT     H154680   1.297   7.593   5.914
18146WAT     H254681   1.222   7.615   6.058
18147WAT      O54682   2.913   7.192   5.723
18147WAT     H154683   2.913   7.250   5.805
18147WAT     H254684   3.004   7.152   5.711
18148WAT      O54685   8.164   5.290   1.759
18148WAT     H154686   8.167   5.386   1.729
18148WAT     H254687   8.123   5.234   1.688
18149WAT      O54688   1.833   7.125   3.984
18149WAT     H154689   1.898   7.090   3.916
18149WAT     H254690   1.779   7.199   3.943
18150WAT      O54691   3.959   4.043   8.635
18150WAT     H154692   3.939   4.030   8.732
18150WAT     H254693   3.892   4.106   8.595
18151WAT      O54694   8.525   5.509   8.889
18151WAT     H154695   8.472   5.444   8.835
18151WAT     H254696   8.475   5.530   8.974
18152WAT      O54697   9.567   5.400   8.505
18152WAT     H154698   9.473   5.393   8.472
18152WAT     H254699   9.585   5.328   8.572
18153WAT      O54700   5.564   7.149   8.850
18153WAT     H154701   5.510   7.233   8.842
18153WAT     H254702   5.534   7.098   8.930
18154WAT      O54703   5.168   2.477   9.378
18154WAT     H154704   5.234   2.549   9.398
18154WAT     H254705   5.216   2.394   9.350
18155WAT      O54706   8.678   4.656   7.043
18155WAT     H154707   8.751   4.674   7.109
18155WAT     H254708   8.718   4.648   6.951
18156WAT      O54709   9.361   9.778   7.756
18156WAT     H154710   9.357   9.821   7.846
18156WAT     H254711   9.268   9.771   7.719
18157WAT      O54712   2.327   7.588   5.142
18157WAT     H154713   2.326   7.682   5.109
18157WAT     H254714   2.398   7.537   5.094
18158WAT      O54715   2.450   2.068   4.249
18158WAT     H154716   2.382   2.000   4.219
18158WAT     H254717   2.453   2.068   4.349
18159WAT      O54718   2.937   4.818   9.480
18159WAT     H154719   2.939   4.909   9.439
18159WAT     H254720   2.873   4.818   9.557
18160WAT      O54721   4.021   7.868   8.225
18160WAT     H154722   3.924   7.849   8.241
18160WAT     H254723   4.062   7.791   8.175
18161WAT      O54724   6.382   8.769   2.603
18161WAT     H154725   6.467   8.813   2.576
18161WAT     H254726   6.398   8.713   2.684
18162WAT      O54727   8.360   9.443   7.749
18162WAT     H154728   8.292   9.452   7.676
18162WAT     H254729   8.335   9.503   7.825
18163WAT      O54730   1.550   7.634   2.480
18163WAT     H154731   1.586   7.578   2.554
18163WAT     H254732   1.458   7.602   2.456
18164WAT      O54733   7.452   0.621   2.282
18164WAT     H154734   7.390   0.652   2.353
18164WAT     H254735   7.547   0.622   2.316
18165WAT      O54736   3.049   8.700   0.954
18165WAT     H154737   2.964   8.721   1.003
18165WAT     H254738   3.027   8.670   0.861
18166WAT      O54739   6.149   7.634   5.155
18166WAT     H154740   6.211   7.639   5.233
18166WAT     H254741   6.059   7.601   5.185
18167WAT      O54742   7.020   9.826   6.780
18167WAT     H154743   6.958   9.748   6.784
18167WAT     H254744   6.975   9.907   6.817
18168WAT      O54745   4.426   4.338   3.873
18168WAT     H154746   4.427   4.362   3.970
18168WAT     H254747   4.505   4.280   3.853
18169WAT      O54748   8.719   9.138   8.377
18169WAT     H154749   8.766   9.167   8.293
18169WAT     H254750   8.652   9.067   8.355
18170WAT      O54751   7.059   6.239   0.103
18170WAT     H154752   7.065   6.318   0.043
18170WAT     H254753   6.980   6.248   0.163
18171WAT      O54754   8.913   2.930   2.524
18171WAT     H154755   8.848   2.997   2.487
18171WAT     H254756   8.978   2.977   2.584
18172WAT      O54757   7.600   2.542   3.875
18172WAT     H154758   7.647   2.500   3.797
18172WAT     H254759   7.665   2.564   3.947
18173WAT      O54760   1.396   3.823   8.804
18173WAT     H154761   1.490   3.840   8.834
18173WAT     H254762   1.389   3.732   8.763
18174WAT      O54763   3.552   3.072   5.986
18174WAT     H154764   3.611   3.146   5.955
18174WAT     H254765   3.499   3.037   5.909
18175WAT      O54766   3.725   8.295   6.990
18175WAT     H154767   3.783   8.327   7.064
18175WAT     H254768   3.782   8.272   6.911
18176WAT      O54769   4.790   1.066   4.169
18176WAT     H154770   4.718   1.058   4.100
18176WAT     H254771   4.763   1.134   4.237
18177WAT      O54772   5.406   2.144   8.107
18177WAT     H154773   5.433   2.232   8.146
18177WAT     H254774   5.339   2.100   8.166
18178WAT      O54775   4.291   5.500   0.036
18178WAT     H154776   4.374   5.501  -0.020
18178WAT     H254777   4.229   5.429   0.001
18179WAT      O54778   9.886   4.996   5.123
18179WAT     H154779   9.848   4.933   5.191
18179WAT     H254780   9.881   4.953   5.033
18180WAT      O54781   1.702   8.678   7.157
18180WAT     H154782   1.657   8.757   7.117
18180WAT     H254783   1.639   8.600   7.159
18181WAT      O54784   0.731   3.309   8.201
18181WAT     H154785   0.662   3.237   8.213
18181WAT     H254786   0.755   3.315   8.104
18182WAT      O54787   6.195   5.347   9.552
18182WAT     H154788   6.133   5.306   9.619
18182WAT     H254789   6.241   5.275   9.500
18183WAT      O54790   8.664   8.262   8.376
18183WAT     H154791   8.694   8.240   8.469
18183WAT     H254792   8.743   8.278   8.318
18184WAT      O54793   5.130   9.191   0.972
18184WAT     H154794   5.104   9.189   0.875
18184WAT     H254795   5.153   9.099   1.002
18185WAT      O54796   0.413   5.832   6.136
18185WAT     H154797   0.497   5.797   6.178
18185WAT     H254798   0.394   5.924   6.172
18186WAT      O54799   0.111   2.380   0.509
18186WAT     H154800   0.127   2.310   0.578
18186WAT     H254801   0.146   2.350   0.421
18187WAT      O54802   2.327   6.938   0.485
18187WAT     H154803   2.288   6.990   0.410
18187WAT     H254804   2.316   6.840   0.466
18188WAT      O54805   6.458   0.519   1.442
18188WAT     H154806   6.485   0.590   1.378
18188WAT     H254807   6.364   0.534   1.472
18189WAT      O54808   9.756   9.115   6.651
18189WAT     H154809   9.824   9.148   6.585
18189WAT     H254810   9.774   9.019   6.671
18190WAT      O54811   0.362   5.948   1.975
18190WAT     H154812   0.454   5.923   2.005
18190WAT     H254813   0.351   6.047   1.981
18191WAT      O54814   0.993   2.826   2.404
18191WAT     H154815   0.915   2.765   2.391
18191WAT     H254816   1.073   2.789   2.356
18192WAT      O54817   3.567   6.739   5.307
18192WAT     H154818   3.633   6.724   5.380
18192WAT     H254819   3.513   6.821   5.327
18193WAT      O54820   2.439   0.264   8.624
18193WAT     H154821   2.366   0.210   8.583
18193WAT     H254822   2.403   0.314   8.703
18194WAT      O54823   2.517   3.745   5.247
18194WAT     H154824   2.557   3.725   5.158
18194WAT     H254825   2.554   3.830   5.283
18195WAT      O54826   1.722   7.750   5.496
18195WAT     H154827   1.766   7.812   5.432
18195WAT     H254828   1.778   7.668   5.508
18196WAT      O54829   0.427   9.409   4.923
18196WAT     H154830   0.355   9.353   4.963
18196WAT     H254831   0.484   9.447   4.997
18197WAT      O54832   9.795   4.052   0.876
18197WAT     H154833   9.836   3.965   0.904
18197WAT     H254834   9.853   4.097   0.809
18198WAT      O54835   5.602   2.562   6.063
18198WAT     H154836   5.505   2.560   6.089
18198WAT     H254837   5.610   2.584   5.966
18199WAT      O54838   5.908   4.496   8.845
18199WAT     H154839   5.918   4.414   8.901
18199WAT     H254840   5.944   4.575   8.894
18200WAT      O54841   2.563   0.465   9.842
18200WAT     H154842   2.508   0.528   9.788
18200WAT     H254843   2.504   0.407   9.897
18201WAT      O54844   3.772   3.924   5.747
18201WAT     H154845   3.825   3.951   5.827
18201WAT     H254846   3.807   3.838   5.710
18202WAT      O54847   7.607   6.093   6.055
18202WAT     H154848   7.639   6.092   6.150
18202WAT     H254849   7.681   6.064   5.995
18203WAT      O54850   0.006   8.732   9.524
18203WAT     H154851   0.005   8.799   9.598
18203WAT     H254852  -0.034   8.646   9.556
18204WAT      O54853   7.817   9.034   0.846
18204WAT     H154854   7.747   9.028   0.776
18204WAT     H254855   7.890   9.095   0.815
18205WAT      O54856   1.318   6.148   5.342
18205WAT     H154857   1.254   6.163   5.267
18205WAT     H254858   1.385   6.079   5.315
18206WAT      O54859   3.398   2.796   5.405
18206WAT     H154860   3.342   2.714   5.393
18206WAT     H254861   3.448   2.815   5.321
18207WAT      O54862   9.705   8.725   5.701
18207WAT     H154863   9.620   8.679   5.678
18207WAT     H254864   9.703   8.754   5.797
18208WAT      O54865   4.902   0.883   7.261
18208WAT     H154866   4.890   0.982   7.269
18208WAT     H254867   5.000   0.861   7.258
18209WAT      O54868   3.551   3.016   6.859
18209WAT     H154869   3.489   2.991   6.784
18209WAT     H254870   3.512   2.985   6.946
18210WAT      O54871   8.723   6.293   9.760
18210WAT     H154872   8.759   6.383   9.737
18210WAT     H254873   8.709   6.287   9.859
18211WAT      O54874   8.860   0.143   5.033
18211WAT     H154875   8.959   0.150   5.043
18211WAT     H254876   8.835   0.151   4.936
18212WAT      O54877   4.340   7.440   1.127
18212WAT     H154878   4.414   7.462   1.190
18212WAT     H254879   4.253   7.441   1.176
18213WAT      O54880   5.140   8.547   3.981
18213WAT     H154881   5.147   8.484   3.904
18213WAT     H254882   5.069   8.616   3.961
18214WAT      O54883   1.904   9.348   1.315
18214WAT     H154884   1.900   9.347   1.415
18214WAT     H254885   1.893   9.255   1.280
18215WAT      O54886   9.022   9.299   3.894
18215WAT     H154887   8.952   9.280   3.963
18215WAT     H254888   9.110   9.312   3.940
18216WAT      O54889   7.978   5.874   0.917
18216WAT     H154890   7.889   5.869   0.962
18216WAT     H254891   8.026   5.956   0.948
18217WAT      O54892   2.755   2.408   2.487
18217WAT     H154893   2.737   2.317   2.450
18217WAT     H254894   2.703   2.476   2.436
18218WAT      O54895   0.110   9.242   7.858
18218WAT     H154896   0.015   9.213   7.873
18218WAT     H254897   0.114   9.342   7.857
18219WAT      O54898   2.484   1.407   1.603
18219WAT     H154899   2.459   1.331   1.543
18219WAT     H254900   2.564   1.454   1.566
18220WAT      O54901   7.502   0.697   1.699
18220WAT     H154902   7.512   0.685   1.600
18220WAT     H254903   7.430   0.764   1.718
18221WAT      O54904   5.657   1.800   3.163
18221WAT     H154905   5.586   1.754   3.215
18221WAT     H254906   5.687   1.882   3.213
18222WAT      O54907   0.747   5.397   0.973
18222WAT     H154908   0.810   5.362   0.904
18222WAT     H254909   0.715   5.489   0.946
18223WAT      O54910   8.836   7.889   1.374
18223WAT     H154911   8.898   7.917   1.301
18223WAT     H254912   8.836   7.789   1.381
18224WAT      O54913   3.244   9.766   9.177
18224WAT     H154914   3.330   9.804   9.144
18224WAT     H254915   3.262   9.684   9.232
18225WAT      O54916   8.074   1.784   6.406
18225WAT     H154917   7.982   1.795   6.370
18225WAT     H254918   8.097   1.862   6.464
18226WAT      O54919   9.634   9.060   2.367
18226WAT     H154920   9.604   8.967   2.387
18226WAT     H254921   9.670   9.103   2.450
18227WAT      O54922   3.620   3.708   1.811
18227WAT     H154923   3.534   3.759   1.818
18227WAT     H254924   3.690   3.752   1.866
18228WAT      O54925   9.467   9.547   9.704
18228WAT     H154926   9.368   9.543   9.719
18228WAT     H254927   9.496   9.642   9.700
18229WAT      O54928   5.117   5.991   8.450
18229WAT     H154929   5.103   5.941   8.365
18229WAT     H254930   5.209   6.031   8.449
18230WAT      O54931   9.283   4.201   9.264
18230WAT     H154932   9.188   4.175   9.279
18230WAT     H254933   9.286   4.290   9.219
18231WAT      O54934   8.080   3.297   6.591
18231WAT     H154935   8.070   3.282   6.492
18231WAT     H254936   8.127   3.384   6.606
18232WAT      O54937   9.394   1.912   4.791
18232WAT     H154938   9.399   1.817   4.823
18232WAT     H254939   9.400   1.914   4.691
18233WAT      O54940   7.243   0.612   0.518
18233WAT     H154941   7.168   0.630   0.581
18233WAT     H254942   7.208   0.601   0.425
18234WAT      O54943   7.276   2.804   4.466
18234WAT     H154944   7.347   2.829   4.532
18234WAT     H254945   7.255   2.706   4.474
18235WAT      O54946   4.373   5.651   6.654
18235WAT     H154947   4.276   5.677   6.649
18235WAT     H254948   4.394   5.619   6.746
18236WAT      O54949   4.899   2.637   8.672
18236WAT     H154950   4.950   2.680   8.747
18236WAT     H254951   4.956   2.632   8.591
18237WAT      O54952   3.250   7.606   5.225
18237WAT     H154953   3.290   7.663   5.297
18237WAT     H254954   3.213   7.522   5.265
18238WAT      O54955   6.113   5.675   3.230
18238WAT     H154956   6.026   5.627   3.244
18238WAT     H254957   6.188   5.609   3.238
18239WAT      O54958   5.410   3.173   6.687
18239WAT     H154959   5.461   3.198   6.605
18239WAT     H254960   5.405   3.073   6.694
18240WAT      O54961   8.058   0.114   6.832
18240WAT     H154962   8.117   0.182   6.874
18240WAT     H254963   8.001   0.071   6.902
18241WAT      O54964   2.989   6.640   4.570
18241WAT     H154965   2.954   6.706   4.637
18241WAT     H254966   3.025   6.689   4.491
18242WAT      O54967   6.228   7.290   7.298
18242WAT     H154968   6.219   7.359   7.369
18242WAT     H254969   6.314   7.304   7.248
18243WAT      O54970   7.043   3.416   6.478
18243WAT     H154971   7.022   3.401   6.574
18243WAT     H254972   7.003   3.502   6.447
18244WAT      O54973   2.214   3.398   2.427
18244WAT     H154974   2.221   3.379   2.525
18244WAT     H254975   2.303   3.426   2.391
18245WAT      O54976   9.451   5.932   1.586
18245WAT     H154977   9.426   6.007   1.524
18245WAT     H254978   9.369   5.899   1.633
18246WAT      O54979   2.022   3.476   4.914
18246WAT     H154980   2.014   3.479   4.815
18246WAT     H254981   2.111   3.439   4.940
18247WAT      O54982   1.834   5.238   9.728
18247WAT     H154983   1.764   5.208   9.662
18247WAT     H254984   1.790   5.290   9.802
18248WAT      O54985   9.723   3.382   0.391
18248WAT     H154986   9.818   3.402   0.414
18248WAT     H254987   9.673   3.357   0.474
18249WAT      O54988   7.339   2.228   1.621
18249WAT     H154989   7.417   2.169   1.604
18249WAT     H254990   7.336   2.300   1.552
18250WAT      O54991   0.616   2.530   2.247
18250WAT     H154992   0.680   2.458   2.221
18250WAT     H254993   0.545   2.492   2.307
18251WAT      O54994   9.796   5.532   7.109
18251WAT     H154995   9.882   5.516   7.159
18251WAT     H254996   9.814   5.539   7.012
18252WAT      O54997   0.371   5.752   6.823
18252WAT     H154998   0.417   5.794   6.745
18252WAT     H254999   0.439   5.709   6.882
18253WAT      O55000   7.256   3.184   0.594
18253WAT     H155001   7.284   3.266   0.543
18253WAT     H255002   7.174   3.145   0.551
18254WAT      O55003   7.133   1.117   2.137
18254WAT     H155004   7.084   1.145   2.054
18254WAT     H255005   7.119   1.020   2.153
18255WAT      O55006   9.337   0.385   4.384
18255WAT     H155007   9.386   0.298   4.389
18255WAT     H255008   9.402   0.461   4.389
18256WAT      O55009   0.119   5.103   5.802
18256WAT     H155010   0.043   5.062   5.853
18256WAT     H255011   0.122   5.201   5.820
18257WAT      O55012   0.767   3.750   0.904
18257WAT     H155013   0.726   3.806   0.976
18257WAT     H255014   0.716   3.761   0.819
18258WAT      O55015   0.496   1.102   8.647
18258WAT     H155016   0.587   1.113   8.685
18258WAT     H255017   0.477   1.177   8.583
18259WAT      O55018   1.149   7.596   8.862
18259WAT     H155019   1.239   7.569   8.894
18259WAT     H255020   1.085   7.520   8.873
18260WAT      O55021   1.336   8.465   4.254
18260WAT     H155022   1.300   8.483   4.162
18260WAT     H255023   1.392   8.382   4.251
18261WAT      O55024   1.128   6.645   0.171
18261WAT     H155025   1.168   6.555   0.154
18261WAT     H255026   1.097   6.684   0.084
18262WAT      O55027   2.674   7.406   7.505
18262WAT     H155028   2.615   7.437   7.580
18262WAT     H255029   2.619   7.362   7.435
18263WAT      O55030   6.333   9.493   5.073
18263WAT     H155031   6.330   9.397   5.100
18263WAT     H255032   6.427   9.519   5.053
18264WAT      O55033   3.959   3.669   8.900
18264WAT     H155034   3.893   3.675   8.824
18264WAT     H255035   3.975   3.761   8.936
18265WAT      O55036   9.786   4.605   9.824
18265WAT     H155037   9.846   4.587   9.902
18265WAT     H255038   9.760   4.701   9.824
18266WAT      O55039   2.891   2.738   3.494
18266WAT     H155040   2.963   2.768   3.432
18266WAT     H255041   2.929   2.724   3.585
18267WAT      O55042   8.871   6.629   3.654
18267WAT     H155043   8.941   6.617   3.583
18267WAT     H255044   8.890   6.568   3.731
18268WAT      O55045   5.261   9.419   1.337
18268WAT     H155046   5.200   9.401   1.260
18268WAT     H255047   5.220   9.490   1.395
18269WAT      O55048   5.668   5.828   5.525
18269WAT     H155049   5.635   5.893   5.594
18269WAT     H255050   5.603   5.826   5.449
18270WAT      O55051   9.849   5.882   6.026
18270WAT     H155052   9.850   5.784   6.050
18270WAT     H255053   9.760   5.920   6.049
18271WAT      O55054   0.476   5.663   0.017
18271WAT     H155055   0.566   5.625  -0.003
18271WAT     H255056   0.451   5.641   0.111
18272WAT      O55057   4.763   6.693   0.850
18272WAT     H155058   4.800   6.609   0.809
18272WAT     H255059   4.804   6.772   0.805
18273WAT      O55060   6.139   9.039   8.395
18273WAT     H155061   6.214   8.989   8.352
18273WAT     H255062   6.090   8.979   8.457
18274WAT      O55063   5.015   9.041   2.695
18274WAT     H155064   5.085   9.059   2.765
18274WAT     H255065   4.960   9.124   2.682
18275WAT      O55066   4.882   5.369   0.693
18275WAT     H155067   4.821   5.433   0.645
18275WAT     H255068   4.887   5.283   0.643
18276WAT      O55069   7.206   7.549   1.337
18276WAT     H155070   7.112   7.521   1.319
18276WAT     H255071   7.206   7.635   1.388
18277WAT      O55072   0.781   1.199   0.643
18277WAT     H155073   0.808   1.156   0.556
18277WAT     H255074   0.688   1.171   0.666
18278WAT      O55075   1.479   5.770   2.687
18278WAT     H155076   1.408   5.828   2.727
18278WAT     H255077   1.567   5.790   2.730
18279WAT      O55078   2.823   0.822   1.283
18279WAT     H155079   2.744   0.875   1.252
18279WAT     H255080   2.797   0.765   1.361
18280WAT      O55081   0.054   1.838   2.678
18280WAT     H155082  -0.010   1.812   2.751
18280WAT     H255083   0.113   1.912   2.710
18281WAT      O55084   8.957   4.270   0.550
18281WAT     H155085   8.915   4.243   0.636
18281WAT     H255086   8.997   4.361   0.560
18282WAT      O55087   4.825   4.128   0.337
18282WAT     H155088   4.836   4.222   0.369
18282WAT     H255089   4.821   4.126   0.238
18283WAT      O55090   7.531   6.402   9.396
18283WAT     H155091   7.613   6.359   9.359
18283WAT     H255092   7.555   6.489   9.438
18284WAT      O55093   0.304   3.515   9.078
18284WAT     H155094   0.264   3.607   9.076
18284WAT     H255095   0.367   3.505   9.001
18285WAT      O55096   0.982   4.475   8.512
18285WAT     H155097   1.055   4.426   8.465
18285WAT     H255098   0.985   4.454   8.610
18286WAT      O55099   4.034   8.619   0.764
18286WAT     H155100   3.971   8.565   0.709
18286WAT     H255101   4.113   8.563   0.789
18287WAT      O55102   4.877   3.259   0.605
18287WAT     H155103   4.882   3.194   0.681
18287WAT     H255104   4.794   3.242   0.551
18288WAT      O55105   3.150   2.732   0.713
18288WAT     H155106   3.161   2.634   0.732
18288WAT     H255107   3.083   2.770   0.777
18289WAT      O55108   0.537   7.785   8.215
18289WAT     H155109   0.521   7.744   8.125
18289WAT     H255110   0.596   7.864   8.206
18290WAT      O55111   5.376   1.921   2.754
18290WAT     H155112   5.472   1.919   2.780
18290WAT     H255113   5.364   1.982   2.675
18291WAT      O55114   9.145   3.166   8.383
18291WAT     H155115   9.176   3.204   8.471
18291WAT     H255116   9.201   3.205   8.309
18292WAT      O55117   5.010   3.157   5.848
18292WAT     H155118   5.078   3.129   5.780
18292WAT     H255119   4.941   3.214   5.804
18293WAT      O55120   0.766   4.381   1.823
18293WAT     H155121   0.718   4.430   1.896
18293WAT     H255122   0.865   4.389   1.836
18294WAT      O55123   5.014   5.654   2.372
18294WAT     H155124   4.991   5.718   2.445
18294WAT     H255125   5.079   5.697   2.309
18295WAT      O55126   8.315   4.657   7.156
18295WAT     H155127   8.350   4.563   7.168
18295WAT     H255128   8.216   4.657   7.164
18296WAT      O55129   0.811   2.797   6.117
18296WAT     H155130   0.805   2.698   6.120
18296WAT     H255131   0.862   2.825   6.035
18297WAT      O55132   8.769   3.507   7.440
18297WAT     H155133   8.807   3.539   7.353
18297WAT     H255134   8.670   3.493   7.429
18298WAT      O55135   5.522   3.672   4.171
18298WAT     H155136   5.542   3.767   4.148
18298WAT     H255137   5.608   3.624   4.189
18299WAT      O55138   0.894   4.675   0.953
18299WAT     H155139   0.882   4.576   0.950
18299WAT     H255140   0.958   4.699   1.026
18300WAT      O55141   0.533   9.662   6.647
18300WAT     H155142   0.600   9.732   6.624
18300WAT     H255143   0.562   9.612   6.728
18301WAT      O55144   7.724   6.385   8.836
18301WAT     H155145   7.749   6.385   8.739
18301WAT     H255146   7.653   6.453   8.852
18302WAT      O55147   9.085   5.980   1.635
18302WAT     H155148   9.146   6.059   1.642
18302WAT     H255149   9.045   5.961   1.725
18303WAT      O55150   4.693   7.252   9.523
18303WAT     H155151   4.701   7.227   9.427
18303WAT     H255152   4.644   7.339   9.531
18304WAT      O55153   3.021   8.542   3.562
18304WAT     H155154   2.978   8.452   3.560
18304WAT     H255155   3.094   8.546   3.493
18305WAT      O55156   6.398   4.554   7.796
18305WAT     H155157   6.320   4.571   7.736
18305WAT     H255158   6.483   4.563   7.743
18306WAT      O55159   8.158   7.847   0.954
18306WAT     H155160   8.155   7.911   0.877
18306WAT     H255161   8.124   7.893   1.036
18307WAT      O55162   0.351   4.265   2.944
18307WAT     H155163   0.277   4.302   3.000
18307WAT     H255164   0.401   4.340   2.900
18308WAT      O55165   0.277   5.250   6.349
18308WAT     H155166   0.370   5.214   6.338
18308WAT     H255167   0.270   5.297   6.437
18309WAT      O55168   5.672   8.320   8.347
18309WAT     H155169   5.618   8.385   8.295
18309WAT     H255170   5.724   8.262   8.284
18310WAT      O55171   2.414   1.949   0.707
18310WAT     H155172   2.409   1.851   0.685
18310WAT     H255173   2.329   1.977   0.752
18311WAT      O55174   5.027   8.970   6.046
18311WAT     H155175   5.065   8.992   5.956
18311WAT     H255176   5.029   9.052   6.104
18312WAT      O55177   2.814   8.906   6.236
18312WAT     H155178   2.814   8.813   6.201
18312WAT     H255179   2.811   8.903   6.336
18313WAT      O55180   3.879   4.086   5.028
18313WAT     H155181   3.803   4.133   4.983
18313WAT     H255182   3.844   4.025   5.099
18314WAT      O55183   2.954   0.957   3.415
18314WAT     H155184   2.986   1.052   3.416
18314WAT     H255185   3.014   0.900   3.471
18315WAT      O55186   3.697   5.086   5.189
18315WAT     H155187   3.670   5.139   5.270
18315WAT     H255188   3.793   5.104   5.168
18316WAT      O55189   0.646   2.861   8.924
18316WAT     H155190   0.563   2.856   8.868
18316WAT     H255191   0.669   2.770   8.958
18317WAT      O55192   8.237   6.500   9.700
18317WAT     H155193   8.299   6.425   9.679
18317WAT     H255194   8.278   6.559   9.770
18318WAT      O55195   2.691   7.918   8.421
18318WAT     H155196   2.665   7.999   8.474
18318WAT     H255197   2.618   7.896   8.356
18319WAT      O55198   5.864   7.178   4.155
18319WAT     H155199   5.890   7.135   4.241
18319WAT     H255200   5.923   7.143   4.082
18320WAT      O55201   5.196   8.418   0.422
18320WAT     H155202   5.249   8.448   0.343
18320WAT     H255203   5.099   8.442   0.408
18321WAT      O55204   0.904   2.059   0.320
18321WAT     H155205   0.820   2.004   0.326
18321WAT     H255206   0.920   2.085   0.225
18322WAT      O55207   6.632   9.289   0.330
18322WAT     H155208   6.719   9.289   0.281
18322WAT     H255209   6.629   9.366   0.394
18323WAT      O55210   1.995   3.680   0.457
18323WAT     H155211   1.928   3.754   0.450
18323WAT     H255212   2.006   3.636   0.367
18324WAT      O55213   4.771   0.478   0.843
18324WAT     H155214   4.868   0.488   0.818
18324WAT     H255215   4.759   0.503   0.939
18325WAT      O55216   1.663   5.983   9.231
18325WAT     H155217   1.649   6.051   9.303
18325WAT     H255218   1.592   5.912   9.237
18326WAT      O55219   6.146   8.917   4.873
18326WAT     H155220   6.095   8.934   4.957
18326WAT     H255221   6.098   8.848   4.818
18327WAT      O55222   4.753   7.591   9.735
18327WAT     H155223   4.841   7.557   9.701
18327WAT     H255224   4.713   7.524   9.798
18328WAT      O55225   0.420   6.751   0.559
18328WAT     H155226   0.464   6.806   0.488
18328WAT     H255227   0.486   6.684   0.594
18329WAT      O55228   1.809   2.535   8.787
18329WAT     H155229   1.739   2.528   8.716
18329WAT     H255230   1.822   2.631   8.811
18330WAT      O55231   9.109   8.425   0.738
18330WAT     H155232   9.127   8.330   0.714
18330WAT     H255233   9.126   8.439   0.836
18331WAT      O55234   1.116   0.108   8.508
18331WAT     H155235   1.168   0.024   8.489
18331WAT     H255236   1.158   0.185   8.460
18332WAT      O55237   5.837   1.310   6.432
18332WAT     H155238   5.760   1.255   6.400
18332WAT     H255239   5.859   1.379   6.363
18333WAT      O55240   3.124   6.831   4.400
18333WAT     H155241   3.151   6.777   4.320
18333WAT     H255242   3.196   6.896   4.423
18334WAT      O55243   2.575   2.884   5.747
18334WAT     H155244   2.481   2.903   5.718
18334WAT     H255245   2.586   2.906   5.844
18335WAT      O55246   8.606   2.215   9.571
18335WAT     H155247   8.559   2.299   9.545
18335WAT     H255248   8.566   2.179   9.656
18336WAT      O55249   1.585   8.311   1.184
18336WAT     H155250   1.510   8.264   1.232
18336WAT     H255251   1.659   8.246   1.168
18337WAT      O55252   8.174   5.550   2.760
18337WAT     H155253   8.191   5.464   2.712
18337WAT     H255254   8.075   5.560   2.777
18338WAT      O55255   5.893   4.610   5.886
18338WAT     H155256   5.939   4.695   5.861
18338WAT     H255257   5.803   4.607   5.843
18339WAT      O55258   4.238   4.389   7.766
18339WAT     H155259   4.264   4.478   7.729
18339WAT     H255260   4.138   4.384   7.772
18340WAT      O55261   2.865   7.268   7.101
18340WAT     H155262   2.955   7.232   7.077
18340WAT     H255263   2.845   7.246   7.197
18341WAT      O55264   4.551   0.076   8.851
18341WAT     H155265   4.534   0.162   8.804
18341WAT     H255266   4.626   0.027   8.804
18342WAT      O55267   2.381   5.708   8.858
18342WAT     H155268   2.356   5.772   8.786
18342WAT     H255269   2.411   5.758   8.939
18343WAT      O55270   0.440   0.253   2.708
18343WAT     H155271   0.399   0.260   2.800
18343WAT     H255272   0.380   0.298   2.642
18344WAT      O55273   7.824   1.992   7.387
18344WAT     H155274   7.895   1.922   7.381
18344WAT     H255275   7.865   2.081   7.405
18345WAT      O55276   7.258   1.279   9.179
18345WAT     H155277   7.303   1.358   9.138
18345WAT     H255278   7.164   1.273   9.145
18346WAT      O55279   8.938   4.827   4.819
18346WAT     H155280   9.029   4.791   4.798
18346WAT     H255281   8.947   4.902   4.885
18347WAT      O55282   3.584   0.734   9.261
18347WAT     H155283   3.669   0.683   9.271
18347WAT     H255284   3.572   0.761   9.165
18348WAT      O55285   5.242   3.804   5.865
18348WAT     H155286   5.313   3.862   5.825
18348WAT     H255287   5.176   3.862   5.913
18349WAT      O55288   6.375   4.790   8.067
18349WAT     H155289   6.386   4.847   7.985
18349WAT     H255290   6.442   4.716   8.065
18350WAT      O55291   6.607   3.068   0.268
18350WAT     H155292   6.578   3.007   0.342
18350WAT     H255293   6.530   3.085   0.206
18351WAT      O55294   1.773   8.216   0.662
18351WAT     H155295   1.697   8.280   0.656
18351WAT     H255296   1.742   8.123   0.642
18352WAT      O55297   2.877   0.294   8.949
18352WAT     H155298   2.793   0.305   9.002
18352WAT     H255299   2.927   0.381   8.947
18353WAT      O55300   8.500   0.959   3.928
18353WAT     H155301   8.594   0.925   3.936
18353WAT     H255302   8.499   1.041   3.871
18354WAT      O55303   6.354   6.812   0.501
18354WAT     H155304   6.281   6.782   0.563
18354WAT     H255305   6.337   6.774   0.410
18355WAT      O55306   9.578   3.289   8.832
18355WAT     H155307   9.581   3.355   8.756
18355WAT     H255308   9.613   3.332   8.915
18356WAT      O55309   0.591   8.970   6.970
18356WAT     H155310   0.536   8.901   7.018
18356WAT     H255311   0.574   9.059   7.011
18357WAT      O55312   0.579   5.432   4.282
18357WAT     H155313   0.551   5.522   4.315
18357WAT     H255314   0.631   5.442   4.198
18358WAT      O55315   2.807   6.400   8.758
18358WAT     H155316   2.749   6.324   8.728
18358WAT     H255317   2.768   6.440   8.841
18359WAT      O55318   3.367   3.840   4.634
18359WAT     H155319   3.381   3.762   4.574
18359WAT     H255320   3.286   3.824   4.691
18360WAT      O55321   7.381   8.041   8.217
18360WAT     H155322   7.368   7.942   8.209
18360WAT     H255323   7.294   8.084   8.240
18361WAT      O55324   3.893   9.607   8.137
18361WAT     H155325   3.829   9.531   8.123
18361WAT     H255326   3.940   9.595   8.224
18362WAT      O55327   7.815   1.810   6.937
18362WAT     H155328   7.887   1.758   6.984
18362WAT     H255329   7.788   1.887   6.995
18363WAT      O55330   9.839   7.952   8.657
18363WAT     H155331   9.785   7.894   8.596
18363WAT     H255332   9.922   7.902   8.685
18364WAT      O55333   7.925   0.586   8.244
18364WAT     H155334   7.956   0.556   8.154
18364WAT     H255335   7.995   0.642   8.287
18365WAT      O55336   8.856   3.677   7.219
18365WAT     H155337   8.944   3.629   7.210
18365WAT     H255338   8.827   3.711   7.130
18366WAT      O55339   7.203   1.815   3.165
18366WAT     H155340   7.236   1.829   3.072
18366WAT     H255341   7.271   1.761   3.216
18367WAT      O55342   3.792   0.895   8.530
18367WAT     H155343   3.859   0.944   8.586
18367WAT     H255344   3.810   0.797   8.536
18368WAT      O55345   5.450   9.390   0.774
18368WAT     H155346   5.429   9.365   0.868
18368WAT     H255347   5.498   9.314   0.729
18369WAT      O55348   8.814   3.137   6.907
18369WAT     H155349   8.852   3.054   6.948
18369WAT     H255350   8.881   3.178   6.846
18370WAT      O55351   5.310   7.515   9.513
18370WAT     H155352   5.248   7.541   9.439
18370WAT     H255353   5.397   7.484   9.474
18371WAT      O55354   9.153   9.024   0.522
18371WAT     H155355   9.083   9.049   0.588
18371WAT     H255356   9.136   9.070   0.435
18372WAT      O55357   4.417   3.773   9.874
18372WAT     H155358   4.475   3.692   9.888
18372WAT     H255359   4.380   3.771   9.781
18373WAT      O55360   1.462   3.966   5.609
18373WAT     H155361   1.401   3.966   5.529
18373WAT     H255362   1.421   3.911   5.682
18374WAT      O55363   2.004   6.271   4.159
18374WAT     H155364   1.922   6.255   4.213
18374WAT     H255365   1.984   6.257   4.062
18375WAT      O55366   5.706   5.339   9.305
18375WAT     H155367   5.639   5.385   9.246
18375WAT     H255368   5.682   5.355   9.401
18376WAT      O55369   8.457   3.897   8.066
18376WAT     H155370   8.363   3.918   8.092
18376WAT     H255371   8.462   3.806   8.027
18377WAT      O55372   5.812   9.431   4.401
18377WAT     H155373   5.820   9.486   4.484
18377WAT     H255374   5.877   9.355   4.406
18378WAT      O55375   2.752   4.689   1.863
18378WAT     H155376   2.800   4.765   1.906
18378WAT     H255377   2.686   4.724   1.796
18379WAT      O55378   8.122   4.998   8.573
18379WAT     H155379   8.207   4.947   8.566
18379WAT     H255380   8.105   5.046   8.487
18380WAT      O55381   4.147   3.306   5.610
18380WAT     H155382   4.137   3.404   5.628
18380WAT     H255383   4.114   3.286   5.517
18381WAT      O55384   5.033   3.080   9.285
18381WAT     H155385   5.076   2.996   9.250
18381WAT     H255386   5.026   3.075   9.384
18382WAT      O55387   0.909   0.313   4.940
18382WAT     H155388   0.997   0.300   4.894
18382WAT     H255389   0.910   0.267   5.029
18383WAT      O55390   2.708   8.728   3.941
18383WAT     H155391   2.676   8.650   3.887
18383WAT     H255392   2.781   8.698   4.002
18384WAT      O55393   8.169   0.782   4.791
18384WAT     H155394   8.085   0.825   4.825
18384WAT     H255395   8.248   0.821   4.839
18385WAT      O55396   4.699   3.708   6.691
18385WAT     H155397   4.625   3.726   6.626
18385WAT     H255398   4.720   3.791   6.741
18386WAT      O55399   9.288   7.080   6.615
18386WAT     H155400   9.216   7.092   6.546
18386WAT     H255401   9.272   7.142   6.691
18387WAT      O55402   0.271   6.725   3.809
18387WAT     H155403   0.252   6.701   3.905
18387WAT     H255404   0.187   6.759   3.767
18388WAT      O55405   6.697   1.591   7.945
18388WAT     H155406   6.691   1.505   7.894
18388WAT     H255407   6.618   1.598   8.007
18389WAT      O55408   2.666   5.351   6.554
18389WAT     H155409   2.601   5.398   6.495
18389WAT     H255410   2.699   5.414   6.624
18390WAT      O55411   1.483   0.110   6.568
18390WAT     H155412   1.442   0.023   6.597
18390WAT     H255413   1.441   0.139   6.482
18391WAT      O55414   4.538   3.618   8.151
18391WAT     H155415   4.487   3.553   8.208
18391WAT     H255416   4.585   3.683   8.211
18392WAT      O55417   5.604   1.797   6.593
18392WAT     H155418   5.644   1.780   6.683
18392WAT     H255419   5.629   1.890   6.563
18393WAT      O55420   8.218   6.885   9.405
18393WAT     H155421   8.263   6.808   9.450
18393WAT     H255422   8.286   6.943   9.361
18394WAT      O55423   4.460   1.627   2.830
18394WAT     H155424   4.387   1.695   2.837
18394WAT     H255425   4.421   1.537   2.810
18395WAT      O55426   9.141   1.609   5.155
18395WAT     H155427   9.093   1.535   5.107
18395WAT     H255428   9.161   1.581   5.248
18396WAT      O55429   7.656   9.470   6.627
18396WAT     H155430   7.603   9.431   6.702
18396WAT     H255431   7.646   9.570   6.627
18397WAT      O55432   1.390   4.884   9.500
18397WAT     H155433   1.305   4.884   9.553
18397WAT     H255434   1.468   4.898   9.562
18398WAT      O55435   8.910   5.066   4.975
18398WAT     H155436   8.935   5.118   5.056
18398WAT     H255437   8.901   5.127   4.897
18399WAT      O55438   2.139   7.404   5.049
18399WAT     H155439   2.218   7.449   5.088
18399WAT     H255440   2.150   7.305   5.054
18400WAT      O55441   8.442   0.007   5.259
18400WAT     H155442   8.542   0.005   5.269
18400WAT     H255443   8.404  -0.082   5.282
18401WAT      O55444   7.815   0.042   2.373
18401WAT     H155445   7.870  -0.035   2.407
18401WAT     H255446   7.814   0.114   2.443
18402WAT      O55447   9.529   3.830   2.257
18402WAT     H155448   9.455   3.772   2.224
18402WAT     H255449   9.577   3.783   2.331
18403WAT      O55450   7.402   9.724   6.871
18403WAT     H155451   7.379   9.821   6.870
18403WAT     H255452   7.432   9.695   6.780
18404WAT      O55453   0.829   2.523   4.912
18404WAT     H155454   0.731   2.505   4.923
18404WAT     H255455   0.857   2.596   4.973
18405WAT      O55456   0.647   8.207   8.541
18405WAT     H155457   0.604   8.156   8.466
18405WAT     H255458   0.684   8.292   8.505
18406WAT      O55459   8.787   2.788   2.881
18406WAT     H155460   8.800   2.878   2.923
18406WAT     H255461   8.699   2.785   2.833
18407WAT      O55462   1.298   0.475   1.113
18407WAT     H155463   1.398   0.482   1.112
18407WAT     H255464   1.268   0.416   1.038
18408WAT      O55465   5.152   6.531   5.047
18408WAT     H155466   5.225   6.537   4.979
18408WAT     H255467   5.192   6.514   5.137
18409WAT      O55468   1.545   4.027   9.020
18409WAT     H155469   1.598   3.958   9.070
18409WAT     H255470   1.468   4.056   9.077
18410WAT      O55471   5.618   4.757   3.303
18410WAT     H155472   5.556   4.733   3.228
18410WAT     H255473   5.576   4.827   3.360
18411WAT      O55474   6.786   9.599   7.741
18411WAT     H155475   6.748   9.515   7.703
18411WAT     H255476   6.773   9.675   7.677
18412WAT      O55477   6.551   1.608   2.341
18412WAT     H155478   6.535   1.703   2.314
18412WAT     H255479   6.463   1.559   2.344
18413WAT      O55480   5.520   5.095   5.464
18413WAT     H155481   5.551   5.020   5.406
18413WAT     H255482   5.468   5.058   5.541
18414WAT      O55483   1.874   8.504   6.235
18414WAT     H155484   1.809   8.579   6.249
18414WAT     H255485   1.836   8.420   6.275
18415WAT      O55486   9.710   1.029   4.442
18415WAT     H155487   9.610   1.035   4.447
18415WAT     H255488   9.743   1.090   4.370
18416WAT      O55489   1.110   4.645   3.285
18416WAT     H155490   1.057   4.721   3.322
18416WAT     H255491   1.203   4.648   3.323
18417WAT      O55492   9.491   3.136   9.287
18417WAT     H155493   9.413   3.195   9.266
18417WAT     H255494   9.458   3.048   9.321
18418WAT      O55495   5.943   5.930   4.959
18418WAT     H155496   6.014   5.861   4.954
18418WAT     H255497   5.981   6.020   4.936
18419WAT      O55498   0.514   0.298   0.286
18419WAT     H155499   0.613   0.313   0.286
18419WAT     H255500   0.467   0.381   0.258
18420WAT      O55501   3.194   5.153   7.397
18420WAT     H155502   3.286   5.150   7.358
18420WAT     H255503   3.176   5.245   7.433
18421WAT      O55504   9.150   8.013   1.793
18421WAT     H155505   9.241   7.989   1.826
18421WAT     H255506   9.132   8.110   1.813
18422WAT      O55507   6.957   8.674   9.007
18422WAT     H155508   6.873   8.663   9.059
18422WAT     H255509   7.003   8.758   9.035
18423WAT      O55510   5.288   8.430   8.600
18423WAT     H155511   5.342   8.512   8.620
18423WAT     H255512   5.191   8.449   8.615
18424WAT      O55513   6.044   6.535   0.202
18424WAT     H155514   5.992   6.535   0.288
18424WAT     H255515   5.990   6.579   0.130
18425WAT      O55516   2.122   5.351   5.955
18425WAT     H155517   2.130   5.442   5.914
18425WAT     H255518   2.049   5.301   5.909
18426WAT      O55519   3.912   4.968   8.800
18426WAT     H155520   3.906   5.051   8.855
18426WAT     H255521   3.996   4.971   8.745
18427WAT      O55522   1.538   3.516   8.307
18427WAT     H155523   1.576   3.583   8.370
18427WAT     H255524   1.560   3.424   8.339
18428WAT      O55525   0.500   9.484   4.315
18428WAT     H155526   0.494   9.581   4.290
18428WAT     H255527   0.583   9.469   4.369
18429WAT      O55528   4.252   0.590   6.292
18429WAT     H155529   4.277   0.493   6.298
18429WAT     H255530   4.154   0.597   6.274
18430WAT      O55531   0.516   3.669   4.253
18430WAT     H155532   0.514   3.734   4.177
18430WAT     H255533   0.455   3.702   4.326
18431WAT      O55534   0.400   2.598   7.550
18431WAT     H155535   0.484   2.550   7.571
18431WAT     H255536   0.326   2.532   7.533
18432WAT      O55537   5.700   5.626   4.457
18432WAT     H155538   5.737   5.533   4.454
18432WAT     H255539   5.745   5.678   4.530
18433WAT      O55540   6.933   0.827   6.221
18433WAT     H155541   6.856   0.767   6.240
18433WAT     H255542   7.006   0.808   6.287
18434WAT      O55543   3.416   4.811   7.891
18434WAT     H155544   3.377   4.851   7.974
18434WAT     H255545   3.376   4.854   7.811
18435WAT      O55546   6.566   8.590   3.180
18435WAT     H155547   6.525   8.670   3.136
18435WAT     H255548   6.665   8.603   3.186
18436WAT      O55549   3.707   3.893   1.395
18436WAT     H155550   3.682   3.907   1.300
18436WAT     H255551   3.806   3.881   1.402
18437WAT      O55552   3.318   2.615   5.783
18437WAT     H155553   3.266   2.602   5.699
18437WAT     H255554   3.256   2.618   5.861
18438WAT      O55555   4.790   7.536   1.494
18438WAT     H155556   4.826   7.596   1.422
18438WAT     H255557   4.844   7.452   1.498
18439WAT      O55558   2.540   6.067   9.516
18439WAT     H155559   2.568   5.972   9.532
18439WAT     H255560   2.526   6.113   9.604
18440WAT      O55561   8.259   1.322   0.942
18440WAT     H155562   8.288   1.409   0.981
18440WAT     H255563   8.281   1.248   1.005
18441WAT      O55564   5.422   2.203   5.178
18441WAT     H155565   5.368   2.154   5.109
18441WAT     H255566   5.490   2.260   5.132
18442WAT      O55567   0.418   5.989   5.423
18442WAT     H155568   0.503   6.031   5.455
18442WAT     H255569   0.390   5.918   5.488
18443WAT      O55570   8.167   8.845   2.849
18443WAT     H155571   8.250   8.795   2.826
18443WAT     H255572   8.170   8.870   2.946
18444WAT      O55573   9.853   0.876   8.238
18444WAT     H155574   9.823   0.794   8.190
18444WAT     H255575   9.945   0.862   8.274
18445WAT      O55576   9.460   6.161   5.668
18445WAT     H155577   9.487   6.201   5.756
18445WAT     H255578   9.362   6.176   5.653
18446WAT      O55579   8.823   6.900   3.870
18446WAT     H155580   8.799   6.938   3.780
18446WAT     H255581   8.812   6.970   3.940
18447WAT      O55582   2.052   5.960   8.188
18447WAT     H155583   2.107   6.032   8.230
18447WAT     H255584   1.980   5.931   8.251
18448WAT      O55585   9.075   3.163   0.118
18448WAT     H155586   9.124   3.245   0.148
18448WAT     H255587   9.130   3.114   0.051
18449WAT      O55588   7.919   2.909   9.584
18449WAT     H155589   7.967   2.842   9.529
18449WAT     H255590   7.904   2.872   9.676
18450WAT      O55591   3.034   6.556   7.534
18450WAT     H155592   2.998   6.497   7.606
18450WAT     H255593   3.018   6.652   7.559
18451WAT      O55594   0.390   5.042   8.625
18451WAT     H155595   0.383   4.943   8.638
18451WAT     H255596   0.455   5.062   8.552
18452WAT      O55597   8.443   3.259   9.114
18452WAT     H155598   8.420   3.346   9.157
18452WAT     H255599   8.404   3.184   9.167
18453WAT      O55600   8.992   0.663   5.754
18453WAT     H155601   9.024   0.674   5.659
18453WAT     H255602   8.980   0.566   5.774
18454WAT      O55603   2.563   6.947   3.240
18454WAT     H155604   2.639   6.933   3.177
18454WAT     H255605   2.569   6.881   3.315
18455WAT      O55606   0.663   0.250   8.481
18455WAT     H155607   0.646   0.260   8.580
18455WAT     H255608   0.659   0.340   8.438
18456WAT      O55609   1.678   3.259   2.533
18456WAT     H155610   1.642   3.181   2.585
18456WAT     H255611   1.722   3.225   2.449
18457WAT      O55612   8.885   4.529   5.001
18457WAT     H155613   8.940   4.453   4.965
18457WAT     H255614   8.921   4.556   5.091
18458WAT      O55615   0.952   1.788   6.048
18458WAT     H155616   0.892   1.808   5.971
18458WAT     H255617   0.921   1.704   6.092
18459WAT      O55618   3.190   1.620   4.508
18459WAT     H155619   3.143   1.551   4.564
18459WAT     H255620   3.271   1.579   4.465
18460WAT      O55621   1.300   6.739   3.812
18460WAT     H155622   1.336   6.648   3.835
18460WAT     H255623   1.372   6.806   3.821
18461WAT      O55624   7.130   9.620   0.348
18461WAT     H155625   7.074   9.686   0.398
18461WAT     H255626   7.092   9.528   0.360
18462WAT      O55627   5.096   6.368   1.859
18462WAT     H155628   5.126   6.386   1.765
18462WAT     H255629   5.170   6.388   1.923
18463WAT      O55630   9.784   0.877   8.556
18463WAT     H155631   9.829   0.948   8.500
18463WAT     H255632   9.707   0.918   8.605
18464WAT      O55633   6.338   0.119   3.994
18464WAT     H155634   6.436   0.138   3.982
18464WAT     H255635   6.287   0.205   3.995
18465WAT      O55636   6.596   1.220   4.207
18465WAT     H155637   6.580   1.147   4.273
18465WAT     H255638   6.669   1.280   4.242
18466WAT      O55639   9.146   7.607   4.940
18466WAT     H155640   9.126   7.628   4.844
18466WAT     H255641   9.079   7.652   4.999
18467WAT      O55642   9.705   2.763   2.070
18467WAT     H155643   9.687   2.847   2.018
18467WAT     H255644   9.629   2.746   2.133
18468WAT      O55645   1.651   5.358   5.936
18468WAT     H155646   1.668   5.434   5.999
18468WAT     H255647   1.608   5.283   5.986
18469WAT      O55648   2.184   6.319   7.822
18469WAT     H155649   2.100   6.287   7.867
18469WAT     H255650   2.262   6.297   7.881
18470WAT      O55651   2.999   1.416   5.443
18470WAT     H155652   2.967   1.387   5.533
18470WAT     H255653   2.930   1.473   5.399
18471WAT      O55654   0.605   8.590   1.177
18471WAT     H155655   0.651   8.658   1.235
18471WAT     H255656   0.512   8.575   1.210
18472WAT      O55657   8.787   0.927   3.983
18472WAT     H155658   8.823   1.013   3.947
18472WAT     H255659   8.837   0.851   3.942
18473WAT      O55660   0.037   1.349   5.356
18473WAT     H155661  -0.043   1.292   5.374
18473WAT     H255662   0.115   1.291   5.331
18474WAT      O55663   6.524   8.569   8.402
18474WAT     H155664   6.429   8.569   8.373
18474WAT     H255665   6.555   8.475   8.417
18475WAT      O55666   4.332   7.486   5.828
18475WAT     H155667   4.239   7.504   5.798
18475WAT     H255668   4.362   7.558   5.891
18476WAT      O55669   3.951   4.113   8.206
18476WAT     H155670   3.993   4.148   8.289
18476WAT     H255671   4.002   4.146   8.126
18477WAT      O55672   1.034   6.612   3.452
18477WAT     H155673   1.081   6.556   3.384
18477WAT     H255674   1.090   6.692   3.474
18478WAT      O55675   8.447   1.709   8.169
18478WAT     H155676   8.363   1.756   8.196
18478WAT     H255677   8.446   1.615   8.206
18479WAT      O55678   6.319   8.964   1.703
18479WAT     H155679   6.283   9.056   1.714
18479WAT     H255680   6.390   8.964   1.633
18480WAT      O55681   9.634   5.690   6.691
18480WAT     H155682   9.684   5.759   6.639
18480WAT     H255683   9.574   5.735   6.757
18481WAT      O55684   0.133   9.508   7.847
18481WAT     H155685   0.192   9.588   7.842
18481WAT     H255686   0.038   9.535   7.828
18482WAT      O55687   8.122   9.322   4.277
18482WAT     H155688   8.188   9.291   4.208
18482WAT     H255689   8.116   9.421   4.274
18483WAT      O55690   7.427   7.153   3.823
18483WAT     H155691   7.430   7.083   3.894
18483WAT     H255692   7.423   7.110   3.733
18484WAT      O55693   6.194   4.317   8.199
18484WAT     H155694   6.131   4.393   8.181
18484WAT     H255695   6.238   4.331   8.288
18485WAT      O55696   5.077   2.745   1.292
18485WAT     H155697   5.010   2.671   1.280
18485WAT     H255698   5.039   2.813   1.354
18486WAT      O55699   6.816   4.350   6.989
18486WAT     H155700   6.832   4.449   6.986
18486WAT     H255701   6.779   4.325   7.078
18487WAT      O55702   4.694   5.172   9.244
18487WAT     H155703   4.653   5.105   9.183
18487WAT     H255704   4.788   5.191   9.214
18488WAT      O55705   8.101   5.926   8.774
18488WAT     H155706   8.093   5.995   8.702
18488WAT     H255707   8.016   5.873   8.780
18489WAT      O55708   9.641   5.341   2.350
18489WAT     H155709   9.584   5.259   2.351
18489WAT     H255710   9.597   5.412   2.405
18490WAT      O55711   1.805   5.372   2.119
18490WAT     H155712   1.821   5.470   2.132
18490WAT     H255713   1.724   5.345   2.170
18491WAT      O55714   9.549   5.947   3.738
18491WAT     H155715   9.521   5.933   3.833
18491WAT     H255716   9.473   5.923   3.677
18492WAT      O55717   0.066   7.085   5.507
18492WAT     H155718   0.068   6.993   5.544
18492WAT     H255719   0.156   7.107   5.469
18493WAT      O55720   2.711   5.501   8.890
18493WAT     H155721   2.633   5.500   8.828
18493WAT     H255722   2.691   5.561   8.968
18494WAT      O55723   4.769   0.485   7.199
18494WAT     H155724   4.702   0.410   7.201
18494WAT     H255725   4.819   0.482   7.113
18495WAT      O55726   2.053   4.054   1.213
18495WAT     H155727   2.075   3.958   1.230
18495WAT     H255728   2.085   4.079   1.121
18496WAT      O55729   4.271   8.299   5.892
18496WAT     H155730   4.225   8.302   5.981
18496WAT     H255731   4.202   8.309   5.819
18497WAT      O55732   5.944   7.604   3.615
18497WAT     H155733   5.961   7.529   3.680
18497WAT     H255734   5.890   7.570   3.538
18498WAT      O55735   8.346   3.149   6.462
18498WAT     H155736   8.291   3.104   6.531
18498WAT     H255737   8.436   3.105   6.457
18499WAT      O55738   1.024   1.486   1.859
18499WAT     H155739   1.026   1.424   1.781
18499WAT     H255740   0.995   1.577   1.829
18500WAT      O55741   6.539   3.754   0.375
18500WAT     H155742   6.595   3.714   0.448
18500WAT     H255743   6.541   3.695   0.294
18501WAT      O55744   9.767   0.994   4.699
18501WAT     H155745   9.847   1.052   4.712
18501WAT     H255746   9.741   0.994   4.603
18502WAT      O55747   4.935   5.783   5.015
18502WAT     H155748   4.945   5.759   5.112
18502WAT     H255749   5.026   5.797   4.975
18503WAT      O55750   9.209   3.854   8.639
18503WAT     H155751   9.307   3.840   8.623
18503WAT     H255752   9.157   3.822   8.560
18504WAT      O55753   1.229   5.838   0.089
18504WAT     H155754   1.270   5.880   0.169
18504WAT     H255755   1.229   5.738   0.099
18505WAT      O55756   7.740   2.451   4.617
18505WAT     H155757   7.738   2.363   4.570
18505WAT     H255758   7.659   2.504   4.592
18506WAT      O55759   7.715   9.185   2.709
18506WAT     H155760   7.699   9.153   2.802
18506WAT     H255761   7.725   9.284   2.709
18507WAT      O55762   8.769   3.276   7.641
18507WAT     H155763   8.754   3.353   7.578
18507WAT     H255764   8.694   3.211   7.631
18508WAT      O55765   7.160   5.327   3.634
18508WAT     H155766   7.165   5.425   3.655
18508WAT     H255767   7.223   5.306   3.559
18509WAT      O55768   1.934   0.352   4.567
18509WAT     H155769   1.836   0.366   4.560
18509WAT     H255770   1.980   0.394   4.488
18510WAT      O55771   1.026   7.174   5.333
18510WAT     H155772   0.970   7.255   5.313
18510WAT     H255773   1.074   7.188   5.420
18511WAT      O55774   2.597   3.297   9.021
18511WAT     H155775   2.534   3.231   8.980
18511WAT     H255776   2.690   3.280   8.989
18512WAT      O55777   9.296   0.170   9.336
18512WAT     H155778   9.328   0.164   9.242
18512WAT     H255779   9.219   0.234   9.342
18513WAT      O55780   2.319   0.478   1.623
18513WAT     H155781   2.292   0.520   1.537
18513WAT     H255782   2.368   0.544   1.680
18514WAT      O55783   8.817   7.188   2.064
18514WAT     H155784   8.915   7.186   2.084
18514WAT     H255785   8.766   7.193   2.150
18515WAT      O55786   5.323   0.823   2.002
18515WAT     H155787   5.407   0.831   2.057
18515WAT     H255788   5.344   0.778   1.916
18516WAT      O55789   2.018   9.225   0.681
18516WAT     H155790   2.091   9.276   0.636
18516WAT     H255791   2.021   9.242   0.780
18517WAT      O55792   9.207   3.271   6.114
18517WAT     H155793   9.277   3.343   6.116
18517WAT     H255794   9.248   3.184   6.141
18518WAT      O55795   4.238   6.072   9.604
18518WAT     H155796   4.190   6.012   9.669
18518WAT     H255797   4.172   6.107   9.537
18519WAT      O55798   9.571   2.316   1.986
18519WAT     H155799   9.474   2.291   1.993
18519WAT     H255800   9.623   2.236   1.955
18520WAT      O55801   0.206   6.610   0.429
18520WAT     H155802   0.205   6.641   0.334
18520WAT     H255803   0.262   6.672   0.484
18521WAT      O55804   6.615   0.212   0.694
18521WAT     H155805   6.597   0.114   0.701
18521WAT     H255806   6.701   0.227   0.643
18522WAT      O55807   5.053   4.578   9.834
18522WAT     H155808   5.151   4.594   9.822
18522WAT     H255809   5.005   4.665   9.827
18523WAT      O55810   9.439   1.219   1.818
18523WAT     H155811   9.516   1.222   1.754
18523WAT     H255812   9.452   1.288   1.889
18524WAT      O55813   1.005   2.902   3.268
18524WAT     H155814   0.990   2.958   3.350
18524WAT     H255815   1.063   2.951   3.204
18525WAT      O55816   5.128   7.659   6.875
18525WAT     H155817   5.128   7.560   6.858
18525WAT     H255818   5.044   7.683   6.925
18526WAT      O55819   1.192   0.735   0.180
18526WAT     H155820   1.271   0.677   0.199
18526WAT     H255821   1.110   0.693   0.217
18527WAT      O55822   0.500   5.600   5.741
18527WAT     H155823   0.534   5.611   5.647
18527WAT     H255824   0.463   5.508   5.752
18528WAT      O55825   2.526   4.003   0.350
18528WAT     H155826   2.599   3.937   0.335
18528WAT     H255827   2.539   4.048   0.438
18529WAT      O55828   9.866   3.904   3.558
18529WAT     H155829   9.806   3.984   3.547
18529WAT     H255830   9.955   3.934   3.593
18530WAT      O55831   0.057   1.204   4.746
18530WAT     H155832   0.101   1.195   4.836
18530WAT     H255833  -0.030   1.253   4.757
18531WAT      O55834   3.298   0.511   3.424
18531WAT     H155835   3.321   0.600   3.384
18531WAT     H255836   3.353   0.497   3.507
18532WAT      O55837   2.111   3.744   1.245
18532WAT     H155838   2.204   3.722   1.272
18532WAT     H255839   2.095   3.712   1.152
18533WAT      O55840   0.325   2.994   7.704
18533WAT     H155841   0.411   2.943   7.694
18533WAT     H255842   0.331   3.054   7.783
18534WAT      O55843   2.994   7.481   6.618
18534WAT     H155844   2.904   7.521   6.629
18534WAT     H255845   3.049   7.538   6.557
18535WAT      O55846   9.417   1.849   6.274
18535WAT     H155847   9.471   1.771   6.243
18535WAT     H255848   9.449   1.932   6.230
18536WAT      O55849   6.196   6.473   3.686
18536WAT     H155850   6.190   6.401   3.617
18536WAT     H255851   6.292   6.489   3.709
18537WAT      O55852   2.436   1.358   1.061
18537WAT     H155853   2.513   1.417   1.033
18537WAT     H255854   2.464   1.262   1.056
18538WAT      O55855   1.874   6.699   3.335
18538WAT     H155856   1.918   6.628   3.390
18538WAT     H255857   1.887   6.678   3.238
18539WAT      O55858   8.038   5.000   0.957
18539WAT     H155859   8.124   5.003   0.905
18539WAT     H255860   7.961   5.016   0.895
18540WAT      O55861   7.937   6.011   6.059
18540WAT     H155862   7.910   5.933   6.115
18540WAT     H255863   7.923   5.989   5.962
18541WAT      O55864   8.762   3.814   4.642
18541WAT     H155865   8.856   3.781   4.651
18541WAT     H255866   8.708   3.747   4.591
18542WAT      O55867   6.848   1.667   9.660
18542WAT     H155868   6.901   1.642   9.741
18542WAT     H255869   6.899   1.733   9.605
18543WAT      O55870   7.591   9.665   3.279
18543WAT     H155871   7.615   9.568   3.282
18543WAT     H255872   7.556   9.693   3.368
18544WAT      O55873   4.000   6.196   1.717
18544WAT     H155874   3.937   6.274   1.724
18544WAT     H255875   4.063   6.211   1.641
18545WAT      O55876   8.048   5.009   5.598
18545WAT     H155877   8.069   5.095   5.645
18545WAT     H255878   7.969   4.966   5.641
18546WAT      O55879   8.028   1.017   1.539
18546WAT     H155880   8.008   1.104   1.585
18546WAT     H255881   7.943   0.966   1.526
18547WAT      O55882   5.205   2.566   8.530
18547WAT     H155883   5.141   2.634   8.493
18547WAT     H255884   5.201   2.484   8.473
18548WAT      O55885   2.046   5.602   8.588
18548WAT     H155886   2.102   5.548   8.651
18548WAT     H255887   1.977   5.543   8.546
18549WAT      O55888   9.208   6.895   8.298
18549WAT     H155889   9.301   6.924   8.321
18549WAT     H255890   9.186   6.811   8.349
18550WAT      O55891   9.394   5.632   6.545
18550WAT     H155892   9.411   5.643   6.447
18550WAT     H255893   9.476   5.659   6.596
18551WAT      O55894   0.745   7.659   7.682
18551WAT     H155895   0.760   7.747   7.637
18551WAT     H255896   0.804   7.590   7.642
18552WAT      O55897   1.497   8.653   1.627
18552WAT     H155898   1.441   8.576   1.658
18552WAT     H255899   1.447   8.739   1.640
18553WAT      O55900   0.181   1.564   5.462
18553WAT     H155901   0.123   1.511   5.402
18553WAT     H255902   0.130   1.644   5.495
18554WAT      O55903   4.685   4.727   8.270
18554WAT     H155904   4.637   4.659   8.325
18554WAT     H255905   4.752   4.681   8.211
18555WAT      O55906   5.770   1.487   1.313
18555WAT     H155907   5.813   1.456   1.398
18555WAT     H255908   5.673   1.503   1.328
18556WAT      O55909   2.868   4.570   2.112
18556WAT     H155910   2.837   4.587   2.019
18556WAT     H255911   2.965   4.544   2.111
18557WAT      O55912   9.030   3.566   7.527
18557WAT     H155913   8.935   3.538   7.522
18557WAT     H255914   9.052   3.627   7.451
18558WAT      O55915   4.278   7.698   9.849
18558WAT     H155916   4.189   7.741   9.845
18558WAT     H255917   4.306   7.669   9.757
18559WAT      O55918   3.272   5.946   3.171
18559WAT     H155919   3.185   5.943   3.221
18559WAT     H255920   3.342   5.896   3.223
18560WAT      O55921   7.347   5.416   1.077
18560WAT     H155922   7.381   5.508   1.058
18560WAT     H255923   7.407   5.349   1.032
18561WAT      O55924   6.582   0.842   7.593
18561WAT     H155925   6.485   0.854   7.615
18561WAT     H255926   6.594   0.838   7.494
18562WAT      O55927   3.151   6.939   7.580
18562WAT     H155928   3.164   6.979   7.670
18562WAT     H255929   3.143   7.012   7.512
18563WAT      O55930   5.738   4.517   8.151
18563WAT     H155931   5.712   4.499   8.056
18563WAT     H255932   5.837   4.505   8.161
18564WAT      O55933   5.243   8.848   8.933
18564WAT     H155934   5.206   8.786   9.002
18564WAT     H255935   5.210   8.941   8.950
18565WAT      O55936   7.747   7.945   6.247
18565WAT     H155937   7.802   7.862   6.241
18565WAT     H255938   7.703   7.963   6.159
18566WAT      O55939   7.686   1.376   7.212
18566WAT     H155940   7.740   1.304   7.255
18566WAT     H255941   7.593   1.375   7.250
18567WAT      O55942   7.499   0.454   0.250
18567WAT     H155943   7.579   0.430   0.196
18567WAT     H255944   7.417   0.452   0.193
18568WAT      O55945   9.508   4.074   1.233
18568WAT     H155946   9.490   4.009   1.307
18568WAT     H255947   9.594   4.051   1.188
18569WAT      O55948   7.269   5.735   1.914
18569WAT     H155949   7.190   5.789   1.944
18569WAT     H255950   7.268   5.647   1.961
18570WAT      O55951   6.133   5.546   4.518
18570WAT     H155952   6.080   5.534   4.434
18570WAT     H255953   6.081   5.511   4.596
18571WAT      O55954   3.867   1.427   8.739
18571WAT     H155955   3.773   1.453   8.714
18571WAT     H255956   3.866   1.388   8.831
18572WAT      O55957   1.744   2.717   1.238
18572WAT     H155958   1.764   2.621   1.218
18572WAT     H255959   1.820   2.756   1.291
18573WAT      O55960   8.764   5.682   0.415
18573WAT     H155961   8.702   5.665   0.492
18573WAT     H255962   8.729   5.637   0.333
18574WAT      O55963   2.180   1.998   4.178
18574WAT     H155964   2.149   2.056   4.103
18574WAT     H255965   2.132   2.022   4.262
18575WAT      O55966   9.010   3.269   0.511
18575WAT     H155967   9.110   3.264   0.505
18575WAT     H255968   8.980   3.359   0.479
18576WAT      O55969   8.549   0.155   1.729
18576WAT     H155970   8.543   0.160   1.629
18576WAT     H255971   8.539   0.060   1.758
18577WAT      O55972   2.810   6.790   6.464
18577WAT     H155973   2.867   6.709   6.447
18577WAT     H255974   2.798   6.841   6.379
18578WAT      O55975   5.629   7.033   4.475
18578WAT     H155976   5.556   6.966   4.468
18578WAT     H255977   5.590   7.124   4.488
18579WAT      O55978   8.917   5.349   3.255
18579WAT     H155979   8.820   5.367   3.271
18579WAT     H255980   8.934   5.251   3.255
18580WAT      O55981   7.826   7.993   8.958
18580WAT     H155982   7.800   8.074   8.906
18580WAT     H255983   7.844   7.917   8.895
18581WAT      O55984   5.373   0.831   4.377
18581WAT     H155985   5.365   0.807   4.281
18581WAT     H255986   5.462   0.800   4.412
18582WAT      O55987   8.501   9.468   4.237
18582WAT     H155988   8.556   9.449   4.156
18582WAT     H255989   8.474   9.564   4.237
18583WAT      O55990   7.158   4.612   0.758
18583WAT     H155991   7.213   4.692   0.781
18583WAT     H255992   7.062   4.632   0.776
18584WAT      O55993   5.629   5.914   0.075
18584WAT     H155994   5.725   5.935   0.092
18584WAT     H255995   5.590   5.870   0.156
18585WAT      O55996   8.935   0.351   7.537
18585WAT     H155997   8.909   0.446   7.521
18585WAT     H255998   8.888   0.292   7.471
18586WAT      O55999   2.373   5.292   9.774
18586WAT     H156000   2.393   5.195   9.791
18586WAT     H256001   2.332   5.332   9.855
18587WAT      O56002   6.513   2.012   8.640
18587WAT     H156003   6.488   1.917   8.623
18587WAT     H256004   6.581   2.041   8.573
18588WAT      O56005   6.759   4.330   1.375
18588WAT     H156006   6.780   4.308   1.470
18588WAT     H256007   6.818   4.404   1.344
18589WAT      O56008   4.887   2.937   4.800
18589WAT     H156009   4.963   2.879   4.769
18589WAT     H256010   4.897   2.955   4.898
18590WAT      O56011   3.741   8.079   6.788
18590WAT     H156012   3.737   8.012   6.861
18590WAT     H256013   3.829   8.127   6.791
18591WAT      O56014   9.599   3.345   1.463
18591WAT     H156015   9.670   3.415   1.453
18591WAT     H256016   9.599   3.312   1.558
18592WAT      O56017   8.137   1.917   4.783
18592WAT     H156018   8.103   1.918   4.877
18592WAT     H256019   8.237   1.908   4.784
18593WAT      O56020   4.022   8.435   4.421
18593WAT     H156021   3.979   8.524   4.432
18593WAT     H256022   4.116   8.446   4.388
18594WAT      O56023   4.875   9.790   0.870
18594WAT     H156024   4.926   9.729   0.809
18594WAT     H256025   4.872   9.882   0.831
18595WAT      O56026   7.637   1.613   9.683
18595WAT     H156027   7.714   1.550   9.679
18595WAT     H256028   7.625   1.646   9.777
18596WAT      O56029   8.675   4.835   4.168
18596WAT     H156030   8.723   4.913   4.207
18596WAT     H256031   8.740   4.775   4.121
18597WAT      O56032   4.405   0.087   2.311
18597WAT     H156033   4.490   0.113   2.357
18597WAT     H256034   4.329   0.088   2.377
18598WAT      O56035   9.665   6.064   4.625
18598WAT     H156036   9.612   6.140   4.587
18598WAT     H256037   9.653   6.061   4.724
18599WAT      O56038   5.407   4.467   4.871
18599WAT     H156039   5.385   4.544   4.812
18599WAT     H256040   5.333   4.399   4.866
18600WAT      O56041   8.237   8.672   0.836
18600WAT     H156042   8.199   8.581   0.817
18600WAT     H256043   8.230   8.691   0.934
18601WAT      O56044   7.195   0.502   7.471
18601WAT     H156045   7.095   0.502   7.463
18601WAT     H256046   7.221   0.512   7.567
18602WAT      O56047   6.173   1.789   2.581
18602WAT     H156048   6.172   1.853   2.658
18602WAT     H256049   6.084   1.744   2.574
18603WAT      O56050   8.725   2.953   8.968
18603WAT     H156051   8.701   3.049   8.958
18603WAT     H256052   8.792   2.927   8.898
18604WAT      O56053   7.561   7.352   7.225
18604WAT     H156054   7.621   7.306   7.160
18604WAT     H256055   7.542   7.445   7.194
18605WAT      O56056   5.170   0.512   2.002
18605WAT     H156057   5.101   0.448   1.968
18605WAT     H256058   5.127   0.581   2.060
18606WAT      O56059   3.564   9.364   7.756
18606WAT     H156060   3.556   9.265   7.762
18606WAT     H256061   3.479   9.402   7.718
18607WAT      O56062   9.639   5.653   8.565
18607WAT     H156063   9.641   5.660   8.665
18607WAT     H256064   9.598   5.565   8.539
18608WAT      O56065   7.912   0.302   4.751
18608WAT     H156066   7.962   0.385   4.728
18608WAT     H256067   7.913   0.240   4.673
18609WAT      O56068   3.318   7.774   0.218
18609WAT     H156069   3.386   7.821   0.275
18609WAT     H256070   3.333   7.675   0.223
18610WAT      O56071   4.737   0.601   4.587
18610WAT     H156072   4.814   0.615   4.525
18610WAT     H256073   4.768   0.552   4.668
18611WAT      O56074   2.258   6.597   3.867
18611WAT     H156075   2.321   6.674   3.857
18611WAT     H256076   2.255   6.545   3.782
18612WAT      O56077   7.266   1.008   1.207
18612WAT     H156078   7.196   1.073   1.176
18612WAT     H256079   7.353   1.056   1.219
18613WAT      O56080   6.585   0.379   6.461
18613WAT     H156081   6.509   0.382   6.396
18613WAT     H256082   6.555   0.419   6.548
18614WAT      O56083   7.232   7.308   0.553
18614WAT     H156084   7.189   7.380   0.498
18614WAT     H256085   7.204   7.218   0.518
18615WAT      O56086   1.193   8.987   4.283
18615WAT     H156087   1.271   9.023   4.231
18615WAT     H256088   1.109   9.030   4.251
18616WAT      O56089   3.305   5.216   7.918
18616WAT     H156090   3.396   5.209   7.960
18616WAT     H256091   3.250   5.137   7.943
18617WAT      O56092   2.004   0.928   4.542
18617WAT     H156093   1.912   0.908   4.577
18617WAT     H256094   2.071   0.875   4.594
18618WAT      O56095   2.687   8.568   6.487
18618WAT     H156096   2.772   8.582   6.538
18618WAT     H256097   2.703   8.501   6.414
18619WAT      O56098   4.693   8.070   2.701
18619WAT     H156099   4.598   8.093   2.722
18619WAT     H256100   4.751   8.093   2.779
18620WAT      O56101   9.723   1.383   6.464
18620WAT     H156102   9.728   1.351   6.558
18620WAT     H256103   9.639   1.436   6.451
18621WAT      O56104   1.600   6.000   3.496
18621WAT     H156105   1.588   5.924   3.432
18621WAT     H256106   1.660   6.069   3.455
18622WAT      O56107   1.234   6.487   4.426
18622WAT     H156108   1.247   6.408   4.366
18622WAT     H256109   1.138   6.515   4.423
18623WAT      O56110   5.507   2.680   0.930
18623WAT     H156111   5.446   2.747   0.974
18623WAT     H256112   5.460   2.639   0.852
18624WAT      O56113   5.470   1.692   8.761
18624WAT     H156114   5.483   1.739   8.848
18624WAT     H256115   5.528   1.734   8.691
18625WAT      O56116   7.313   4.743   9.148
18625WAT     H156117   7.412   4.724   9.148
18625WAT     H256118   7.287   4.787   9.062
18626WAT      O56119   8.842   5.438   5.932
18626WAT     H156120   8.887   5.349   5.935
18626WAT     H256121   8.892   5.499   5.870
18627WAT      O56122   1.723   7.693   9.772
18627WAT     H156123   1.800   7.726   9.717
18627WAT     H256124   1.712   7.595   9.760
18628WAT      O56125   4.093   5.924   9.788
18628WAT     H156126   4.114   5.866   9.867
18628WAT     H256127   4.052   6.009   9.819
18629WAT      O56128   0.313   0.162   7.753
18629WAT     H156129   0.273   0.096   7.816
18629WAT     H256130   0.264   0.249   7.762
18630WAT      O56131   5.886   1.522   8.482
18630WAT     H156132   5.945   1.441   8.473
18630WAT     H256133   5.942   1.604   8.470
18631WAT      O56134   5.305   2.213   2.334
18631WAT     H156135   5.275   2.159   2.256
18631WAT     H256136   5.227   2.261   2.374
18632WAT      O56137   0.443   2.083   0.721
18632WAT     H156138   0.355   2.125   0.698
18632WAT     H256139   0.427   1.999   0.772
18633WAT      O56140   3.389   3.389   2.666
18633WAT     H156141   3.450   3.328   2.718
18633WAT     H256142   3.434   3.414   2.580
18634WAT      O56143   2.893   6.417   7.790
18634WAT     H156144   2.810   6.361   7.789
18634WAT     H256145   2.973   6.357   7.782
18635WAT      O56146   0.105   6.166   6.093
18635WAT     H156147   0.124   6.224   6.014
18635WAT     H256148   0.191   6.125   6.126
18636WAT      O56149   6.892   8.464   6.620
18636WAT     H156150   6.848   8.526   6.684
18636WAT     H256151   6.987   8.449   6.648
18637WAT      O56152   6.430   7.669   8.919
18637WAT     H156153   6.426   7.605   8.995
18637WAT     H256154   6.490   7.633   8.847
18638WAT      O56155   5.604   1.639   7.683
18638WAT     H156156   5.694   1.683   7.674
18638WAT     H256157   5.558   1.640   7.594
18639WAT      O56158   1.897   4.859   7.120
18639WAT     H156159   1.902   4.834   7.217
18639WAT     H256160   1.976   4.820   7.072
18640WAT      O56161   0.090   1.034   5.219
18640WAT     H156162   0.068   1.012   5.314
18640WAT     H256163   0.082   0.952   5.163
18641WAT      O56164   3.037   7.497   4.048
18641WAT     H156165   2.961   7.508   4.112
18641WAT     H256166   3.119   7.469   4.098
18642WAT      O56167   4.727   0.590   0.005
18642WAT     H156168   4.774   0.603   0.091
18642WAT     H256169   4.788   0.544  -0.060
18643WAT      O56170   2.156   1.522   2.904
18643WAT     H156171   2.137   1.585   2.828
18643WAT     H256172   2.249   1.486   2.894
18644WAT      O56173   8.307   4.047   9.205
18644WAT     H156174   8.310   4.008   9.113
18644WAT     H256175   8.242   4.123   9.207
18645WAT      O56176   6.507   8.753   1.974
18645WAT     H156177   6.436   8.711   1.917
18645WAT     H256178   6.577   8.685   1.995
18646WAT      O56179   8.696   2.760   0.304
18646WAT     H156180   8.717   2.850   0.266
18646WAT     H256181   8.726   2.689   0.240
18647WAT      O56182   3.312   1.567   1.966
18647WAT     H156183   3.313   1.662   1.937
18647WAT     H256184   3.313   1.562   2.066
18648WAT      O56185   6.085   2.249   3.477
18648WAT     H156186   6.154   2.305   3.522
18648WAT     H256187   6.013   2.308   3.441
18649WAT      O56188   7.151   5.808   2.740
18649WAT     H156189   7.182   5.885   2.795
18649WAT     H256190   7.215   5.792   2.665
18650WAT      O56191   8.534   9.063   7.099
18650WAT     H156192   8.506   8.979   7.053
18650WAT     H256193   8.525   9.140   7.036
18651WAT      O56194   3.383   0.231   5.405
18651WAT     H156195   3.312   0.200   5.341
18651WAT     H256196   3.400   0.160   5.472
18652WAT      O56197   1.105   0.084   6.202
18652WAT     H156198   1.065   0.008   6.150
18652WAT     H256199   1.044   0.163   6.197
18653WAT      O56200   3.426   9.519   7.141
18653WAT     H156201   3.504   9.471   7.101
18653WAT     H256202   3.390   9.586   7.076
18654WAT      O56203   9.026   9.120   3.683
18654WAT     H156204   9.055   9.172   3.763
18654WAT     H256205   9.105   9.078   3.639
18655WAT      O56206   7.396   2.567   3.238
18655WAT     H156207   7.417   2.537   3.145
18655WAT     H256208   7.428   2.661   3.250
18656WAT      O56209   3.522   8.532   9.033
18656WAT     H156210   3.517   8.434   9.011
18656WAT     H256211   3.618   8.561   9.029
18657WAT      O56212   0.422   9.571   8.341
18657WAT     H156213   0.486   9.494   8.341
18657WAT     H256214   0.440   9.628   8.421
18658WAT      O56215   4.560   8.449   9.444
18658WAT     H156216   4.522   8.432   9.535
18658WAT     H256217   4.570   8.548   9.431
18659WAT      O56218   6.674   0.021   3.213
18659WAT     H156219   6.764  -0.004   3.178
18659WAT     H256220   6.639   0.099   3.161
18660WAT      O56221   0.480   6.963   3.488
18660WAT     H156222   0.391   6.920   3.497
18660WAT     H256223   0.546   6.897   3.451
18661WAT      O56224   4.106   3.250   6.837
18661WAT     H156225   4.156   3.181   6.784
18661WAT     H256226   4.165   3.284   6.910
18662WAT      O56227   2.176   9.609   5.571
18662WAT     H156228   2.207   9.699   5.602
18662WAT     H256229   2.250   9.542   5.581
18663WAT      O56230   9.210   5.077   0.920
18663WAT     H156231   9.161   5.162   0.938
18663WAT     H256232   9.227   5.030   1.007
18664WAT      O56233   1.890   7.239   5.912
18664WAT     H156234   1.837   7.229   5.996
18664WAT     H256235   1.830   7.268   5.838
18665WAT      O56236   3.787   9.507   6.593
18665WAT     H156237   3.726   9.464   6.660
18665WAT     H256238   3.735   9.572   6.538
18666WAT      O56239   5.791   4.937   9.678
18666WAT     H156240   5.780   4.853   9.731
18666WAT     H256241   5.863   4.993   9.719
18667WAT      O56242   0.599   6.090   5.799
18667WAT     H156243   0.547   6.005   5.812
18667WAT     H256244   0.684   6.069   5.750
18668WAT      O56245   4.926   1.973   3.424
18668WAT     H156246   4.920   2.062   3.378
18668WAT     H256247   4.960   1.904   3.359
18669WAT      O56248   5.557   3.918   7.524
18669WAT     H156249   5.619   3.976   7.576
18669WAT     H256250   5.593   3.825   7.520
18670WAT      O56251   9.760   3.954   4.005
18670WAT     H156252   9.760   3.859   3.976
18670WAT     H256253   9.697   4.007   3.948
18671WAT      O56254   1.349   2.804   8.634
18671WAT     H156255   1.321   2.735   8.568
18671WAT     H256256   1.267   2.849   8.671
18672WAT      O56257   0.310   9.492   0.065
18672WAT     H156258   0.344   9.564   0.126
18672WAT     H256259   0.227   9.452   0.102
18673WAT      O56260   9.707   8.349   5.807
18673WAT     H156261   9.788   8.362   5.863
18673WAT     H256262   9.627   8.385   5.855
18674WAT      O56263   7.974   1.890   8.678
18674WAT     H156264   8.022   1.900   8.765
18674WAT     H256265   7.920   1.973   8.660
18675WAT      O56266   9.868   7.924   2.679
18675WAT     H156267   9.950   7.906   2.625
18675WAT     H256268   9.876   8.014   2.722
18676WAT      O56269   3.247   6.663   0.208
18676WAT     H156270   3.256   6.616   0.296
18676WAT     H256271   3.322   6.728   0.198
18677WAT      O56272   9.599   8.710   2.206
18677WAT     H156273   9.680   8.754   2.170
18677WAT     H256274   9.605   8.611   2.192
18678WAT      O56275   7.906   6.279   8.649
18678WAT     H156276   7.970   6.353   8.669
18678WAT     H256277   7.951   6.191   8.661
18679WAT      O56278   1.704   0.687   4.335
18679WAT     H156279   1.691   0.658   4.240
18679WAT     H256280   1.635   0.756   4.359
18680WAT      O56281   2.039   6.477   4.566
18680WAT     H156282   1.965   6.521   4.515
18680WAT     H256283   2.030   6.378   4.559
18681WAT      O56284   3.624   0.180   6.488
18681WAT     H156285   3.570   0.262   6.466
18681WAT     H256286   3.562   0.102   6.497
18682WAT      O56287   0.662   4.395   8.787
18682WAT     H156288   0.723   4.435   8.855
18682WAT     H256289   0.569   4.429   8.802
18683WAT      O56290   4.191   1.197   2.519
18683WAT     H156291   4.132   1.126   2.479
18683WAT     H256292   4.139   1.248   2.588
18684WAT      O56293   8.735   8.454   8.591
18684WAT     H156294   8.747   8.378   8.655
18684WAT     H256295   8.718   8.538   8.642
18685WAT      O56296   0.759   0.120   9.550
18685WAT     H156297   0.688   0.124   9.621
18685WAT     H256298   0.767   0.026   9.517
18686WAT      O56299   2.668   6.214   5.050
18686WAT     H156300   2.593   6.276   5.071
18686WAT     H256301   2.745   6.266   5.012
18687WAT      O56302   1.205   8.433   8.485
18687WAT     H156303   1.208   8.525   8.524
18687WAT     H256304   1.253   8.432   8.397
18688WAT      O56305   5.913   0.374   5.848
18688WAT     H156306   5.865   0.306   5.793
18688WAT     H256307   6.011   0.370   5.827
18689WAT      O56308   7.367   9.314   4.888
18689WAT     H156309   7.286   9.353   4.843
18689WAT     H256310   7.441   9.381   4.885
18690WAT      O56311   3.079   3.399   2.864
18690WAT     H156312   3.105   3.439   2.951
18690WAT     H256313   3.081   3.299   2.871
18691WAT      O56314   8.818   0.795   8.164
18691WAT     H156315   8.828   0.774   8.067
18691WAT     H256316   8.722   0.792   8.189
18692WAT      O56317   0.235   7.235   2.109
18692WAT     H156318   0.227   7.198   2.202
18692WAT     H256319   0.166   7.306   2.095
18693WAT      O56320   8.180   4.967   6.781
18693WAT     H156321   8.241   4.940   6.856
18693WAT     H256322   8.147   5.060   6.796
18694WAT      O56323   3.212   3.894   5.899
18694WAT     H156324   3.307   3.862   5.901
18694WAT     H256325   3.207   3.987   5.934
18695WAT      O56326   4.701   1.095   3.899
18695WAT     H156327   4.631   1.036   3.859
18695WAT     H256328   4.681   1.190   3.877
18696WAT      O56329   0.238   0.921   4.590
18696WAT     H156330   0.220   0.823   4.580
18696WAT     H256331   0.322   0.945   4.542
18697WAT      O56332   9.008   2.506   9.659
18697WAT     H156333   8.937   2.573   9.637
18697WAT     H256334   8.971   2.414   9.653
18698WAT      O56335   5.567   9.637   5.549
18698WAT     H156336   5.470   9.614   5.563
18698WAT     H256337   5.584   9.730   5.581
18699WAT      O56338   3.591   6.671   1.700
18699WAT     H156339   3.509   6.698   1.749
18699WAT     H256340   3.650   6.617   1.760
18700WAT      O56341   4.465   6.231   6.099
18700WAT     H156342   4.424   6.140   6.091
18700WAT     H256343   4.559   6.228   6.067
18701WAT      O56344   3.883   5.776   1.097
18701WAT     H156345   3.908   5.819   1.184
18701WAT     H256346   3.958   5.786   1.032
18702WAT      O56347   9.598   2.580   9.701
18702WAT     H156348   9.595   2.635   9.617
18702WAT     H256349   9.653   2.628   9.770
18703WAT      O56350   9.866   3.369   4.057
18703WAT     H156351   9.822   3.441   4.003
18703WAT     H256352   9.819   3.282   4.041
18704WAT      O56353   5.601   8.485   6.465
18704WAT     H156354   5.675   8.418   6.476
18704WAT     H256355   5.637   8.577   6.480
18705WAT      O56356   6.065   1.913   1.857
18705WAT     H156357   5.997   1.854   1.814
18705WAT     H256358   6.049   2.008   1.830
18706WAT      O56359   4.249   6.092   2.877
18706WAT     H156360   4.315   6.167   2.867
18706WAT     H256361   4.157   6.130   2.890
18707WAT      O56362   7.397   6.254   6.636
18707WAT     H156363   7.412   6.341   6.590
18707WAT     H256364   7.312   6.258   6.688
18708WAT      O56365   1.148   7.018   9.509
18708WAT     H156366   1.115   6.945   9.449
18708WAT     H256367   1.091   7.022   9.591
18709WAT      O56368   6.142   8.876   9.563
18709WAT     H156369   6.218   8.818   9.591
18709WAT     H256370   6.146   8.963   9.614
18710WAT      O56371   8.699   2.151   4.212
18710WAT     H156372   8.620   2.131   4.155
18710WAT     H256373   8.781   2.159   4.155
18711WAT      O56374   1.527   5.152   7.396
18711WAT     H156375   1.450   5.094   7.368
18711WAT     H256376   1.605   5.094   7.419
18712WAT      O56377   9.114   9.842   0.523
18712WAT     H156378   9.166   9.757   0.532
18712WAT     H256379   9.171   9.919   0.551
18713WAT      O56380   8.726   9.686   8.187
18713WAT     H156381   8.680   9.774   8.180
18713WAT     H256382   8.750   9.668   8.282
18714WAT      O56383   9.547   4.492   4.878
18714WAT     H156384   9.517   4.405   4.840
18714WAT     H256385   9.612   4.535   4.816
18715WAT      O56386   5.354   8.462   6.942
18715WAT     H156387   5.334   8.376   6.894
18715WAT     H256388   5.280   8.483   7.005
18716WAT      O56389   1.383   3.127   4.206
18716WAT     H156390   1.306   3.158   4.262
18716WAT     H256391   1.429   3.206   4.166
18717WAT      O56392   7.133   1.737   0.631
18717WAT     H156393   7.230   1.716   0.643
18717WAT     H256394   7.089   1.662   0.582
18718WAT      O56395   1.653   4.360   5.021
18718WAT     H156396   1.589   4.287   5.046
18718WAT     H256397   1.614   4.449   5.046
18719WAT      O56398   7.490   3.115   1.314
18719WAT     H156399   7.454   3.065   1.394
18719WAT     H256400   7.426   3.188   1.290
18720WAT      O56401   6.125   0.502   3.410
18720WAT     H156402   6.155   0.457   3.494
18720WAT     H256403   6.190   0.481   3.336
18721WAT      O56404   9.224   7.443   6.584
18721WAT     H156405   9.178   7.355   6.572
18721WAT     H256406   9.315   7.438   6.543
18722WAT      O56407   5.783   3.946   9.713
18722WAT     H156408   5.816   4.013   9.780
18722WAT     H256409   5.839   3.863   9.718
18723WAT      O56410   4.793   5.814   8.454
18723WAT     H156411   4.843   5.803   8.368
18723WAT     H256412   4.847   5.777   8.529
18724WAT      O56413   7.200   8.870   7.688
18724WAT     H156414   7.214   8.803   7.761
18724WAT     H256415   7.104   8.868   7.659
18725WAT      O56416   4.061   6.927   5.594
18725WAT     H156417   4.083   6.895   5.502
18725WAT     H256418   3.967   6.962   5.596
18726WAT      O56419   5.105   3.216   7.741
18726WAT     H156420   5.196   3.241   7.707
18726WAT     H256421   5.043   3.200   7.664
18727WAT      O56422   8.917   8.825   6.231
18727WAT     H156423   8.911   8.827   6.131
18727WAT     H256424   8.970   8.904   6.263
18728WAT      O56425   1.678   4.027   4.084
18728WAT     H156426   1.724   3.939   4.100
18728WAT     H256427   1.644   4.063   4.171
18729WAT      O56428   1.114   4.506   4.137
18729WAT     H156429   1.081   4.575   4.201
18729WAT     H256430   1.038   4.449   4.107
18730WAT      O56431   6.931   8.318   0.966
18730WAT     H156432   6.915   8.374   1.046
18730WAT     H256433   6.934   8.221   0.993
18731WAT      O56434   4.352   7.154   7.750
18731WAT     H156435   4.257   7.124   7.757
18731WAT     H256436   4.359   7.229   7.684
18732WAT      O56437   7.744   6.901   5.357
18732WAT     H156438   7.694   6.927   5.275
18732WAT     H256439   7.842   6.897   5.337
18733WAT      O56440   2.473   0.716   2.427
18733WAT     H156441   2.531   0.793   2.398
18733WAT     H256442   2.433   0.672   2.346
18734WAT      O56443   5.218   9.023   1.393
18734WAT     H156444   5.244   8.994   1.301
18734WAT     H256445   5.285   9.089   1.428
18735WAT      O56446   7.787   7.211   5.089
18735WAT     H156447   7.879   7.180   5.112
18735WAT     H256448   7.786   7.246   4.996
18736WAT      O56449   7.117   0.833   5.765
18736WAT     H156450   7.044   0.824   5.832
18736WAT     H256451   7.175   0.751   5.767
18737WAT      O56452   1.236   7.437   7.828
18737WAT     H156453   1.244   7.345   7.867
18737WAT     H256454   1.146   7.474   7.848
18738WAT      O56455   2.154   0.716   9.579
18738WAT     H156456   2.254   0.712   9.578
18738WAT     H256457   2.121   0.694   9.671
18739WAT      O56458   4.797   4.749   4.320
18739WAT     H156459   4.880   4.771   4.372
18739WAT     H256460   4.802   4.655   4.287
18740WAT      O56461   5.446   2.754   5.816
18740WAT     H156462   5.425   2.671   5.765
18740WAT     H256463   5.381   2.765   5.891
18741WAT      O56464   2.346   1.874   9.167
18741WAT     H156465   2.399   1.823   9.235
18741WAT     H256466   2.408   1.926   9.108
18742WAT      O56467   6.737   7.174   8.885
18742WAT     H156468   6.823   7.224   8.897
18742WAT     H256469   6.730   7.143   8.790
18743WAT      O56470   0.898   4.225   0.675
18743WAT     H156471   0.968   4.294   0.690
18743WAT     H256472   0.921   4.143   0.727
18744WAT      O56473   8.377   0.585   3.571
18744WAT     H156474   8.291   0.551   3.534
18744WAT     H256475   8.433   0.509   3.603
18745WAT      O56476   3.240   1.079   2.475
18745WAT     H156477   3.231   1.091   2.376
18745WAT     H256478   3.330   1.113   2.504
18746WAT      O56479   0.219   9.697   4.042
18746WAT     H156480   0.241   9.769   3.976
18746WAT     H256481   0.277   9.618   4.024
18747WAT      O56482   8.645   6.807   6.840
18747WAT     H156483   8.662   6.710   6.822
18747WAT     H256484   8.713   6.841   6.905
18748WAT      O56485   6.472   0.520   7.191
18748WAT     H156486   6.419   0.464   7.127
18748WAT     H256487   6.444   0.615   7.183
18749WAT      O56488   0.964   8.062   7.391
18749WAT     H156489   0.981   8.151   7.433
18749WAT     H256490   1.046   8.032   7.343
18750WAT      O56491   8.583   2.391   2.233
18750WAT     H156492   8.489   2.391   2.268
18750WAT     H256493   8.582   2.374   2.135
18751WAT      O56494   6.885   4.206   4.019
18751WAT     H156495   6.932   4.178   3.936
18751WAT     H256496   6.865   4.304   4.016
18752WAT      O56497   4.195   1.165   6.782
18752WAT     H156498   4.161   1.228   6.852
18752WAT     H256499   4.147   1.078   6.789
18753WAT      O56500   5.222   4.895   2.970
18753WAT     H156501   5.140   4.901   3.027
18753WAT     H256502   5.210   4.822   2.903
18754WAT      O56503   3.231   9.145   6.223
18754WAT     H156504   3.161   9.215   6.205
18754WAT     H256505   3.189   9.069   6.273
18755WAT      O56506   4.341   1.903   5.755
18755WAT     H156507   4.274   1.829   5.753
18755WAT     H256508   4.370   1.923   5.661
18756WAT      O56509   8.162   4.035   5.275
18756WAT     H156510   8.104   4.098   5.327
18756WAT     H256511   8.213   4.087   5.206
18757WAT      O56512   1.865   6.776   7.256
18757WAT     H156513   1.857   6.796   7.353
18757WAT     H256514   1.844   6.858   7.203
18758WAT      O56515   3.693   8.460   9.577
18758WAT     H156516   3.703   8.553   9.540
18758WAT     H256517   3.717   8.393   9.507
18759WAT      O56518   8.665   5.704   4.881
18759WAT     H156519   8.612   5.685   4.963
18759WAT     H256520   8.762   5.701   4.902
18760WAT      O56521   6.870   0.511   7.772
18760WAT     H156522   6.930   0.589   7.789
18760WAT     H256523   6.778   0.532   7.807
18761WAT      O56524   5.844   3.324   6.119
18761WAT     H156525   5.864   3.414   6.080
18761WAT     H256526   5.873   3.253   6.054
18762WAT      O56527   0.867   6.206   0.337
18762WAT     H156528   0.841   6.219   0.433
18762WAT     H256529   0.830   6.281   0.282
18763WAT      O56530   7.902   0.545   1.389
18763WAT     H156531   7.945   0.578   1.305
18763WAT     H256532   7.948   0.586   1.468
18764WAT      O56533   8.619   7.661   1.285
18764WAT     H156534   8.596   7.750   1.322
18764WAT     H256535   8.596   7.590   1.351
18765WAT      O56536   5.474   7.072   0.146
18765WAT     H156537   5.492   7.144   0.213
18765WAT     H256538   5.411   7.107   0.077
18766WAT      O56539   7.808   2.992   5.061
18766WAT     H156540   7.749   3.012   5.139
18766WAT     H256541   7.762   2.929   4.999
18767WAT      O56542   1.108   6.497   2.045
18767WAT     H156543   1.016   6.521   2.076
18767WAT     H256544   1.103   6.418   1.984
18768WAT      O56545   4.358   3.770   2.563
18768WAT     H156546   4.365   3.691   2.503
18768WAT     H256547   4.263   3.781   2.592
18769WAT      O56548   9.798   4.109   6.555
18769WAT     H156549   9.800   4.113   6.655
18769WAT     H256550   9.857   4.035   6.523
18770WAT      O56551   1.874   6.058   9.757
18770WAT     H156552   1.947   5.991   9.749
18770WAT     H256553   1.900   6.128   9.823
18771WAT      O56554   3.237   3.689   7.452
18771WAT     H156555   3.205   3.780   7.428
18771WAT     H256556   3.246   3.633   7.369
18772WAT      O56557   8.354   6.678   1.944
18772WAT     H156558   8.353   6.632   1.856
18772WAT     H256559   8.400   6.620   2.011
18773WAT      O56560   8.153   3.179   8.308
18773WAT     H156561   8.130   3.240   8.383
18773WAT     H256562   8.213   3.227   8.244
18774WAT      O56563   4.088   4.417   1.361
18774WAT     H156564   4.076   4.457   1.270
18774WAT     H256565   4.151   4.474   1.414
18775WAT      O56566   0.515   4.355   5.807
18775WAT     H156567   0.613   4.336   5.817
18775WAT     H256568   0.465   4.269   5.802
18776WAT      O56569   4.092   7.910   6.550
18776WAT     H156570   3.992   7.908   6.550
18776WAT     H256571   4.126   7.858   6.472
18777WAT      O56572   3.511   4.441   8.359
18777WAT     H156573   3.590   4.385   8.333
18777WAT     H256574   3.542   4.518   8.414
18778WAT      O56575   3.413   9.320   5.821
18778WAT     H156576   3.336   9.257   5.816
18778WAT     H256577   3.468   9.312   5.739
18779WAT      O56578   6.952   2.598   1.204
18779WAT     H156579   6.955   2.504   1.168
18779WAT     H256580   7.003   2.602   1.290
18780WAT      O56581   8.038   5.815   6.557
18780WAT     H156582   8.104   5.846   6.488
18780WAT     H256583   8.029   5.885   6.627
18781WAT      O56584   3.092   8.148   5.463
18781WAT     H156585   3.078   8.049   5.472
18781WAT     H256586   3.130   8.183   5.549
18782WAT      O56587   0.374   3.588   0.558
18782WAT     H156588   0.423   3.596   0.645
18782WAT     H256589   0.402   3.504   0.512
18783WAT      O56590   1.419   4.297   2.969
18783WAT     H156591   1.478   4.375   2.946
18783WAT     H256592   1.416   4.288   3.069
18784WAT      O56593   2.420   8.155   5.866
18784WAT     H156594   2.420   8.207   5.780
18784WAT     H256595   2.327   8.124   5.886
18785WAT      O56596   2.356   1.166   6.411
18785WAT     H156597   2.310   1.255   6.417
18785WAT     H256598   2.292   1.099   6.373
18786WAT      O56599   2.786   4.169   8.376
18786WAT     H156600   2.757   4.219   8.458
18786WAT     H256601   2.728   4.089   8.364
18787WAT      O56602   4.833   0.343   2.604
18787WAT     H156603   4.760   0.295   2.653
18787WAT     H256604   4.885   0.277   2.549
18788WAT      O56605   2.395   3.139   3.607
18788WAT     H156606   2.388   3.057   3.551
18788WAT     H256607   2.439   3.117   3.694
18789WAT      O56608   8.679   2.130   7.974
18789WAT     H156609   8.778   2.130   7.962
18789WAT     H256610   8.650   2.044   8.016
18790WAT      O56611   1.017   0.858   3.901
18790WAT     H156612   0.921   0.834   3.888
18790WAT     H256613   1.067   0.839   3.816
18791WAT      O56614   4.202   6.415   8.456
18791WAT     H156615   4.273   6.408   8.526
18791WAT     H256616   4.122   6.462   8.494
18792WAT      O56617   1.448   6.817   8.003
18792WAT     H156618   1.429   6.720   8.018
18792WAT     H256619   1.450   6.836   7.905
18793WAT      O56620   5.782   5.664   9.513
18793WAT     H156621   5.863   5.682   9.458
18793WAT     H256622   5.761   5.744   9.570
18794WAT      O56623   6.641   8.318   8.346
18794WAT     H156624   6.728   8.303   8.392
18794WAT     H256625   6.657   8.333   8.248
18795WAT      O56626   2.616   7.222   0.699
18795WAT     H156627   2.658   7.305   0.662
18795WAT     H256628   2.520   7.219   0.671
18796WAT      O56629   5.384   1.980   0.027
18796WAT     H156630   5.476   1.995   0.062
18796WAT     H256631   5.380   2.006  -0.070
18797WAT      O56632   0.860   7.836   2.631
18797WAT     H156633   0.911   7.887   2.700
18797WAT     H256634   0.822   7.753   2.672
18798WAT      O56635   8.820   6.133   7.253
18798WAT     H156636   8.887   6.189   7.302
18798WAT     H256637   8.773   6.072   7.316
18799WAT      O56638   0.236   6.769   5.306
18799WAT     H156639   0.288   6.824   5.372
18799WAT     H256640   0.177   6.704   5.356
18800WAT      O56641   6.511   1.307   4.558
18800WAT     H156642   6.497   1.381   4.493
18800WAT     H256643   6.550   1.228   4.510
18801WAT      O56644   2.540   0.768   0.627
18801WAT     H156645   2.587   0.846   0.586
18801WAT     H256646   2.441   0.783   0.624
18802WAT      O56647   8.913   4.830   3.690
18802WAT     H156648   8.823   4.863   3.661
18802WAT     H256649   8.952   4.771   3.620
18803WAT      O56650   2.166   0.375   2.470
18803WAT     H156651   2.149   0.427   2.553
18803WAT     H256652   2.127   0.424   2.392
18804WAT      O56653   8.298   4.277   2.520
18804WAT     H156654   8.336   4.349   2.578
18804WAT     H256655   8.199   4.280   2.522
18805WAT      O56656   4.465   3.568   4.032
18805WAT     H156657   4.514   3.636   4.087
18805WAT     H256658   4.370   3.597   4.021
18806WAT      O56659   2.711   1.272   9.151
18806WAT     H156660   2.663   1.190   9.122
18806WAT     H256661   2.784   1.293   9.086
18807WAT      O56662   7.240   4.202   9.826
18807WAT     H156663   7.221   4.286   9.877
18807WAT     H256664   7.168   4.135   9.843
18808WAT      O56665   7.078   3.933   1.468
18808WAT     H156666   7.001   3.984   1.507
18808WAT     H256667   7.049   3.840   1.448
18809WAT      O56668   4.381   1.996   3.052
18809WAT     H156669   4.357   2.040   3.138
18809WAT     H256670   4.354   2.055   2.976
18810WAT      O56671   1.170   9.347   9.056
18810WAT     H156672   1.114   9.265   9.044
18810WAT     H256673   1.112   9.428   9.051
18811WAT      O56674   5.029   5.048   4.329
18811WAT     H156675   5.037   4.950   4.350
18811WAT     H256676   4.998   5.097   4.411
18812WAT      O56677   0.774   2.229   1.283
18812WAT     H156678   0.801   2.325   1.285
18812WAT     H256679   0.705   2.212   1.353
18813WAT      O56680   6.242   7.498   6.541
18813WAT     H156681   6.156   7.507   6.492
18813WAT     H256682   6.280   7.406   6.526
18814WAT      O56683   1.062   2.201   7.575
18814WAT     H156684   1.065   2.296   7.603
18814WAT     H256685   0.991   2.189   7.505
18815WAT      O56686   9.470   2.477   3.601
18815WAT     H156687   9.554   2.428   3.624
18815WAT     H256688   9.451   2.545   3.671
18816WAT      O56689   9.663   5.063   3.269
18816WAT     H156690   9.587   5.128   3.264
18816WAT     H256691   9.676   5.019   3.180
18817WAT      O56692   7.011   8.112   5.739
18817WAT     H156693   7.096   8.136   5.693
18817WAT     H256694   6.934   8.155   5.692
18818WAT      O56695   5.480   2.971   8.017
18818WAT     H156696   5.454   2.895   7.958
18818WAT     H256697   5.468   2.944   8.113
18819WAT      O56698   3.118   7.510   9.728
18819WAT     H156699   3.117   7.554   9.818
18819WAT     H256700   3.151   7.415   9.738
18820WAT      O56701   3.273   0.667   2.516
18820WAT     H156702   3.323   0.581   2.509
18820WAT     H256703   3.319   0.726   2.583
18821WAT      O56704   8.504   4.497   1.926
18821WAT     H156705   8.430   4.505   1.993
18821WAT     H256706   8.516   4.401   1.901
18822WAT      O56707   3.413   2.673   6.731
18822WAT     H156708   3.317   2.688   6.708
18822WAT     H256709   3.466   2.754   6.707
18823WAT      O56710   8.363   1.882   8.962
18823WAT     H156711   8.338   1.955   9.025
18823WAT     H256712   8.454   1.899   8.925
18824WAT      O56713   9.858   4.892   5.390
18824WAT     H156714   9.897   4.853   5.474
18824WAT     H256715   9.758   4.888   5.395
18825WAT      O56716   7.595   6.826   0.242
18825WAT     H156717   7.544   6.760   0.296
18825WAT     H256718   7.675   6.857   0.293
18826WAT      O56719   3.507   9.052   5.569
18826WAT     H156720   3.478   9.070   5.475
18826WAT     H256721   3.426   9.045   5.628
18827WAT      O56722   6.904   1.463   9.162
18827WAT     H156723   6.902   1.392   9.232
18827WAT     H256724   6.935   1.424   9.075
18828WAT      O56725   1.131   0.391   1.728
18828WAT     H156726   1.196   0.441   1.671
18828WAT     H256727   1.039   0.429   1.715
18829WAT      O56728   8.613   5.093   2.034
18829WAT     H156729   8.521   5.066   2.061
18829WAT     H256730   8.609   5.152   1.953
18830WAT      O56731   4.568   7.300   0.498
18830WAT     H156732   4.522   7.213   0.515
18830WAT     H256733   4.530   7.371   0.557
18831WAT      O56734   7.750   2.358   9.502
18831WAT     H156735   7.729   2.261   9.509
18831WAT     H256736   7.701   2.408   9.574
18832WAT      O56737   3.602   9.005   2.139
18832WAT     H156738   3.546   8.928   2.171
18832WAT     H256739   3.698   8.978   2.138
18833WAT      O56740   0.080   5.471   9.466
18833WAT     H156741   0.172   5.510   9.474
18833WAT     H256742   0.040   5.496   9.378
18834WAT      O56743   8.481   5.903   4.799
18834WAT     H156744   8.444   5.947   4.881
18834WAT     H256745   8.557   5.844   4.824
18835WAT      O56746   9.355   5.906   7.300
18835WAT     H156747   9.303   5.832   7.342
18835WAT     H256748   9.453   5.886   7.308
18836WAT      O56749   0.819   9.181   0.408
18836WAT     H156750   0.737   9.134   0.440
18836WAT     H256751   0.897   9.118   0.411
18837WAT      O56752   5.554   8.683   3.245
18837WAT     H156753   5.509   8.762   3.204
18837WAT     H256754   5.489   8.608   3.253
18838WAT      O56755   2.834   2.448   1.908
18838WAT     H156756   2.870   2.381   1.844
18838WAT     H256757   2.749   2.486   1.873
18839WAT      O56758   7.481   4.509   5.287
18839WAT     H156759   7.388   4.471   5.294
18839WAT     H256760   7.543   4.453   5.341
18840WAT      O56761   4.402   0.198   3.218
18840WAT     H156762   4.471   0.206   3.146
18840WAT     H256763   4.399   0.283   3.270
18841WAT      O56764   1.250   8.060   8.087
18841WAT     H156765   1.254   8.126   8.162
18841WAT     H256766   1.165   8.072   8.036
18842WAT      O56767   2.387   3.732   8.194
18842WAT     H156768   2.402   3.748   8.291
18842WAT     H256769   2.318   3.661   8.181
18843WAT      O56770   0.739   7.639   6.993
18843WAT     H156771   0.751   7.671   7.087
18843WAT     H256772   0.723   7.540   6.993
18844WAT      O56773   3.581   5.306   2.090
18844WAT     H156774   3.495   5.257   2.084
18844WAT     H256775   3.617   5.298   2.183
18845WAT      O56776   6.548   8.936   1.520
18845WAT     H156777   6.599   8.884   1.588
18845WAT     H256778   6.571   8.903   1.429
18846WAT      O56779   2.300   4.973   7.190
18846WAT     H156780   2.237   5.050   7.200
18846WAT     H256781   2.272   4.898   7.250
18847WAT      O56782   2.235   7.398   2.028
18847WAT     H156783   2.280   7.486   2.044
18847WAT     H256784   2.136   7.410   2.030
18848WAT      O56785   7.334   1.458   2.668
18848WAT     H156786   7.280   1.508   2.600
18848WAT     H256787   7.366   1.371   2.628
18849WAT      O56788   7.795   4.156   7.911
18849WAT     H156789   7.791   4.176   8.009
18849WAT     H256790   7.828   4.063   7.897
18850WAT      O56791   7.012   7.762   5.018
18850WAT     H156792   7.070   7.696   5.067
18850WAT     H256793   7.029   7.755   4.920
18851WAT      O56794   3.428   8.239   7.482
18851WAT     H156795   3.408   8.172   7.554
18851WAT     H256796   3.475   8.317   7.523
18852WAT      O56797   9.461   1.692   8.788
18852WAT     H156798   9.402   1.620   8.750
18852WAT     H256799   9.542   1.702   8.730
18853WAT      O56800   5.458   1.666   5.095
18853WAT     H156801   5.489   1.587   5.148
18853WAT     H256802   5.371   1.643   5.051
18854WAT      O56803   1.525   4.027   2.469
18854WAT     H156804   1.426   4.040   2.459
18854WAT     H256805   1.546   3.930   2.474
18855WAT      O56806   4.996   7.638   3.373
18855WAT     H156807   5.024   7.620   3.279
18855WAT     H256808   4.990   7.737   3.388
18856WAT      O56809   5.096   4.848   5.800
18856WAT     H156810   5.143   4.762   5.822
18856WAT     H256811   5.071   4.894   5.885
18857WAT      O56812   4.657   4.015   8.089
18857WAT     H156813   4.733   3.952   8.105
18857WAT     H256814   4.664   4.053   7.996
18858WAT      O56815   3.976   4.223   7.032
18858WAT     H156816   3.998   4.274   6.949
18858WAT     H256817   3.928   4.283   7.096
18859WAT      O56818   7.050   5.918   9.425
18859WAT     H156819   7.000   5.976   9.490
18859WAT     H256820   7.016   5.824   9.431
18860WAT      O56821   5.776   4.284   1.702
18860WAT     H156822   5.704   4.255   1.765
18860WAT     H256823   5.851   4.218   1.704
18861WAT      O56824   5.705   9.180   8.103
18861WAT     H156825   5.792   9.142   8.133
18861WAT     H256826   5.654   9.111   8.051
18862WAT      O56827   0.494   7.009   1.553
18862WAT     H156828   0.491   6.978   1.458
18862WAT     H256829   0.420   7.074   1.568
18863WAT      O56830   6.011   5.437   8.139
18863WAT     H156831   6.021   5.537   8.146
18863WAT     H256832   6.097   5.393   8.162
18864WAT      O56833   5.090   7.662   0.519
18864WAT     H156834   5.126   7.667   0.612
18864WAT     H256835   5.137   7.728   0.461
18865WAT      O56836   1.787   5.020   8.639
18865WAT     H156837   1.828   4.952   8.578
18865WAT     H256838   1.721   5.075   8.588
18866WAT      O56839   2.169   2.581   8.400
18866WAT     H156840   2.205   2.537   8.318
18866WAT     H256841   2.069   2.581   8.398
18867WAT      O56842   3.086   6.765   6.148
18867WAT     H156843   3.151   6.704   6.102
18867WAT     H256844   3.124   6.795   6.235
18868WAT      O56845   4.303   4.560   1.460
18868WAT     H156846   4.336   4.517   1.543
18868WAT     H256847   4.377   4.564   1.392
18869WAT      O56848   0.463   3.472   4.535
18869WAT     H156849   0.561   3.463   4.522
18869WAT     H256850   0.431   3.403   4.600
18870WAT      O56851   0.452   2.707   6.979
18870WAT     H156852   0.394   2.651   6.919
18870WAT     H256853   0.479   2.790   6.930
18871WAT      O56854   3.584   9.212   6.938
18871WAT     H156855   3.592   9.116   6.909
18871WAT     H256856   3.491   9.229   6.972
18872WAT      O56857   9.485   9.788   3.745
18872WAT     H156858   9.409   9.723   3.735
18872WAT     H256859   9.566   9.752   3.700
18873WAT      O56860   0.180   3.299   9.195
18873WAT     H156861   0.225   3.372   9.144
18873WAT     H256862   0.170   3.218   9.137
18874WAT      O56863   8.394   6.909   1.728
18874WAT     H156864   8.358   6.968   1.800
18874WAT     H256865   8.346   6.927   1.642
18875WAT      O56866   1.307   7.495   6.360
18875WAT     H156867   1.212   7.502   6.389
18875WAT     H256868   1.317   7.420   6.295
18876WAT      O56869   8.502   6.863   5.641
18876WAT     H156870   8.572   6.793   5.622
18876WAT     H256871   8.445   6.875   5.560
18877WAT      O56872   1.046   9.296   7.875
18877WAT     H156873   1.123   9.347   7.914
18877WAT     H256874   0.971   9.360   7.855
18878WAT      O56875   3.748   1.696   2.215
18878WAT     H156876   3.758   1.597   2.205
18878WAT     H256877   3.831   1.735   2.253
18879WAT      O56878   6.160   5.841   4.203
18879WAT     H156879   6.220   5.857   4.281
18879WAT     H256880   6.105   5.922   4.186
18880WAT      O56881   3.500   0.549   3.658
18880WAT     H156882   3.527   0.633   3.705
18880WAT     H256883   3.581   0.503   3.622
18881WAT      O56884   6.063   6.646   4.770
18881WAT     H156885   6.068   6.726   4.710
18881WAT     H256886   6.009   6.669   4.851
18882WAT      O56887   2.383   0.562   2.192
18882WAT     H156888   2.397   0.541   2.096
18882WAT     H256889   2.375   0.476   2.244
18883WAT      O56890   2.524   2.187   2.532
18883WAT     H156891   2.431   2.150   2.524
18883WAT     H256892   2.566   2.190   2.442
18884WAT      O56893   3.903   6.296   7.621
18884WAT     H156894   3.977   6.353   7.656
18884WAT     H256895   3.941   6.218   7.572
18885WAT      O56896   1.624   3.818   9.215
18885WAT     H156897   1.705   3.847   9.266
18885WAT     H256898   1.542   3.829   9.273
18886WAT      O56899   9.042   5.322   0.283
18886WAT     H156900   9.039   5.411   0.329
18886WAT     H256901   9.044   5.335   0.184
18887WAT      O56902   3.115   8.540   0.052
18887WAT     H156903   3.108   8.558  -0.046
18887WAT     H256904   3.042   8.478   0.080
18888WAT      O56905   7.179   3.347   0.342
18888WAT     H156906   7.245   3.417   0.368
18888WAT     H256907   7.086   3.379   0.361
18889WAT      O56908   2.916   7.882   6.499
18889WAT     H156909   2.876   7.819   6.566
18889WAT     H256910   2.875   7.972   6.510
18890WAT      O56911   8.368   2.591   0.759
18890WAT     H156912   8.314   2.563   0.680
18890WAT     H256913   8.328   2.674   0.799
18891WAT      O56914   2.202   4.763   3.354
18891WAT     H156915   2.215   4.819   3.271
18891WAT     H256916   2.156   4.678   3.330
18892WAT      O56917   7.599   9.383   2.418
18892WAT     H156918   7.520   9.339   2.461
18892WAT     H256919   7.617   9.340   2.329
18893WAT      O56920   3.532   0.669   3.338
18893WAT     H156921   3.568   0.670   3.245
18893WAT     H256922   3.590   0.612   3.396
18894WAT      O56923   8.454   9.072   3.065
18894WAT     H156924   8.451   9.150   3.127
18894WAT     H256925   8.393   9.001   3.098
18895WAT      O56926   5.790   5.831   6.452
18895WAT     H156927   5.695   5.831   6.483
18895WAT     H256928   5.796   5.873   6.362
18896WAT      O56929   8.408   4.863   4.447
18896WAT     H156930   8.353   4.879   4.365
18896WAT     H256931   8.423   4.949   4.494
18897WAT      O56932   1.039   9.722   2.764
18897WAT     H156933   0.951   9.727   2.717
18897WAT     H256934   1.112   9.707   2.697
18898WAT      O56935   8.478   7.923   3.240
18898WAT     H156936   8.387   7.887   3.218
18898WAT     H256937   8.492   7.920   3.339
18899WAT      O56938   0.886   1.445   1.248
18899WAT     H156939   0.956   1.448   1.177
18899WAT     H256940   0.833   1.361   1.239
18900WAT      O56941   3.889   1.663   3.367
18900WAT     H156942   3.865   1.574   3.406
18900WAT     H256943   3.969   1.653   3.308
18901WAT      O56944   7.456   1.639   8.695
18901WAT     H156945   7.468   1.561   8.634
18901WAT     H256946   7.510   1.626   8.778
18902WAT      O56947   2.871   7.176   9.751
18902WAT     H156948   2.960   7.134   9.736
18902WAT     H256949   2.858   7.252   9.688
18903WAT      O56950   0.743   1.224   7.056
18903WAT     H156951   0.688   1.143   7.034
18903WAT     H256952   0.684   1.304   7.066
18904WAT      O56953   0.835   9.176   4.459
18904WAT     H156954   0.801   9.265   4.486
18904WAT     H256955   0.903   9.144   4.525
18905WAT      O56956   4.356   5.842   1.943
18905WAT     H156957   4.389   5.782   2.015
18905WAT     H256958   4.277   5.800   1.898
18906WAT      O56959   1.962   9.702   8.328
18906WAT     H156960   1.934   9.740   8.240
18906WAT     H256961   2.049   9.654   8.318
18907WAT      O56962   7.613   1.456   6.138
18907WAT     H156963   7.523   1.413   6.130
18907WAT     H256964   7.678   1.391   6.176
18908WAT      O56965   2.126   7.681   2.119
18908WAT     H156966   2.089   7.678   2.212
18908WAT     H256967   2.106   7.770   2.079
18909WAT      O56968   0.379   4.418   8.127
18909WAT     H156969   0.414   4.340   8.075
18909WAT     H256970   0.283   4.432   8.104
18910WAT      O56971   5.695   2.251   9.676
18910WAT     H156972   5.674   2.153   9.670
18910WAT     H256973   5.627   2.296   9.735
18911WAT      O56974   7.755   4.753   0.614
18911WAT     H156975   7.689   4.801   0.556
18911WAT     H256976   7.737   4.655   0.612
18912WAT      O56977   1.851   2.202   0.834
18912WAT     H156978   1.794   2.222   0.755
18912WAT     H256979   1.891   2.287   0.869
18913WAT      O56980   6.467   7.921   8.928
18913WAT     H156981   6.445   7.824   8.930
18913WAT     H256982   6.393   7.974   8.970
18914WAT      O56983   6.186   0.374   1.026
18914WAT     H156984   6.180   0.431   0.943
18914WAT     H256985   6.273   0.325   1.027
18915WAT      O56986   6.137   2.819   4.145
18915WAT     H156987   6.209   2.753   4.121
18915WAT     H256988   6.117   2.876   4.065
18916WAT      O56989   9.829   9.814   1.136
18916WAT     H156990   9.803   9.808   1.232
18916WAT     H256991   9.904   9.879   1.126
18917WAT      O56992   9.142   1.879   8.927
18917WAT     H156993   9.061   1.936   8.940
18917WAT     H256994   9.223   1.927   8.962
18918WAT      O56995   3.183   0.316   7.938
18918WAT     H156996   3.139   0.321   8.029
18918WAT     H256997   3.142   0.241   7.886
18919WAT      O56998   5.251   0.247   2.816
18919WAT     H156999   5.164   0.295   2.805
18919WAT     H257000   5.271   0.195   2.733
18920WAT      O57001   9.813   5.829   2.120
18920WAT     H157002   9.850   5.913   2.081
18920WAT     H257003   9.888   5.766   2.139
18921WAT      O57004   6.005   3.848   1.217
18921WAT     H157005   6.042   3.898   1.294
18921WAT     H257006   6.079   3.817   1.157
18922WAT      O57007   5.577   8.039   8.492
18922WAT     H157008   5.604   8.097   8.415
18922WAT     H257009   5.487   7.999   8.474
18923WAT      O57010   7.477   0.958   7.563
18923WAT     H157011   7.381   0.975   7.545
18923WAT     H257012   7.531   1.037   7.533
18924WAT      O57013   8.149   8.291   6.688
18924WAT     H157014   8.243   8.321   6.706
18924WAT     H257015   8.114   8.337   6.607
18925WAT      O57016   6.391   7.698   0.531
18925WAT     H157017   6.379   7.660   0.623
18925WAT     H257018   6.413   7.624   0.467
18926WAT      O57019   3.622   3.657   6.045
18926WAT     H157020   3.541   3.605   6.073
18926WAT     H257021   3.696   3.641   6.110
18927WAT      O57022   5.541   7.221   2.276
18927WAT     H157023   5.605   7.192   2.347
18927WAT     H257024   5.510   7.314   2.296
18928WAT      O57025   7.934   2.212   7.503
18928WAT     H157026   7.935   2.179   7.597
18928WAT     H257027   7.960   2.308   7.501
18929WAT      O57028   8.860   9.383   1.151
18929WAT     H157029   8.906   9.303   1.190
18929WAT     H257030   8.821   9.359   1.062
18930WAT      O57031   1.428   7.744   1.328
18930WAT     H157032   1.442   7.725   1.425
18930WAT     H257033   1.353   7.686   1.294
18931WAT      O57034   2.148   7.236   7.503
18931WAT     H157035   2.240   7.252   7.540
18931WAT     H257036   2.086   7.307   7.535
18932WAT      O57037   8.861   3.962   8.627
18932WAT     H157038   8.921   4.032   8.666
18932WAT     H257039   8.801   4.004   8.559
18933WAT      O57040   9.624   4.098   5.540
18933WAT     H157041   9.704   4.060   5.587
18933WAT     H257042   9.606   4.046   5.457
18934WAT      O57043   3.600   7.452   7.859
18934WAT     H157044   3.515   7.430   7.906
18934WAT     H257045   3.670   7.385   7.884
18935WAT      O57046   6.564   7.903   3.125
18935WAT     H157047   6.506   7.982   3.146
18935WAT     H257048   6.607   7.871   3.209
18936WAT      O57049   5.587   1.824   8.544
18936WAT     H157050   5.493   1.853   8.530
18936WAT     H257051   5.623   1.784   8.459
18937WAT      O57052   6.035   4.539   8.171
18937WAT     H157053   6.007   4.629   8.203
18937WAT     H257054   6.013   4.529   8.074
18938WAT      O57055   7.121   0.754   6.395
18938WAT     H157056   7.210   0.714   6.412
18938WAT     H257057   7.062   0.740   6.475
18939WAT      O57058   7.238   4.775   6.925
18939WAT     H157059   7.200   4.864   6.901
18939WAT     H257060   7.232   4.761   7.024
18940WAT      O57061   3.277   5.249   1.895
18940WAT     H157062   3.342   5.322   1.874
18940WAT     H257063   3.258   5.249   1.994
18941WAT      O57064   9.146   4.506   1.294
18941WAT     H157065   9.098   4.593   1.287
18941WAT     H257066   9.118   4.459   1.377
18942WAT      O57067   4.169   7.451   8.034
18942WAT     H157068   4.229   7.520   8.074
18942WAT     H257069   4.121   7.490   7.956
18943WAT      O57070   8.930   2.106   3.292
18943WAT     H157071   8.906   2.176   3.359
18943WAT     H257072   9.027   2.115   3.268
18944WAT      O57073   1.510   3.498   9.444
18944WAT     H157074   1.474   3.561   9.513
18944WAT     H257075   1.599   3.531   9.412
18945WAT      O57076   4.125   8.298   6.148
18945WAT     H157077   4.175   8.244   6.215
18945WAT     H257078   4.063   8.360   6.195
18946WAT      O57079   9.414   2.005   1.460
18946WAT     H157080   9.404   2.070   1.535
18946WAT     H257081   9.395   2.051   1.373
18947WAT      O57082   8.821   1.111   4.838
18947WAT     H157083   8.894   1.179   4.829
18947WAT     H257084   8.762   1.135   4.915
18948WAT      O57085   7.774   6.272   9.343
18948WAT     H157086   7.861   6.237   9.377
18948WAT     H257087   7.783   6.292   9.245
18949WAT      O57088   5.547   8.588   9.279
18949WAT     H157089   5.555   8.522   9.354
18949WAT     H257090   5.585   8.548   9.196
18950WAT      O57091   2.983   1.323   2.567
18950WAT     H157092   2.985   1.250   2.636
18950WAT     H257093   3.075   1.361   2.556
18951WAT      O57094   5.478   5.090   2.082
18951WAT     H157095   5.543   5.048   2.020
18951WAT     H257096   5.415   5.149   2.030
18952WAT      O57097   4.966   4.217   1.299
18952WAT     H157098   4.915   4.221   1.212
18952WAT     H257099   5.055   4.261   1.287
18953WAT      O57100   0.295   6.145   7.308
18953WAT     H157101   0.386   6.124   7.272
18953WAT     H257102   0.232   6.072   7.281
18954WAT      O57103   0.264   0.094   1.426
18954WAT     H157104   0.352   0.126   1.463
18954WAT     H257105   0.190   0.119   1.489
18955WAT      O57106   8.675   8.320   3.709
18955WAT     H157107   8.751   8.255   3.716
18955WAT     H257108   8.631   8.310   3.620
18956WAT      O57109   2.550   0.491   1.918
18956WAT     H157110   2.512   0.567   1.866
18956WAT     H257111   2.500   0.407   1.897
18957WAT      O57112   3.797   1.862   7.685
18957WAT     H157113   3.894   1.882   7.697
18957WAT     H257114   3.744   1.944   7.705
18958WAT      O57115   9.346   6.828   6.698
18958WAT     H157116   9.271   6.789   6.644
18958WAT     H257117   9.367   6.920   6.665
18959WAT      O57118   6.135   2.485   7.535
18959WAT     H157119   6.192   2.558   7.498
18959WAT     H257120   6.120   2.500   7.633
18960WAT      O57121   8.120   3.462   3.393
18960WAT     H157122   8.152   3.381   3.443
18960WAT     H257123   8.161   3.463   3.302
18961WAT      O57124   9.054   8.646   2.356
18961WAT     H157125   9.090   8.580   2.289
18961WAT     H257126   8.981   8.700   2.314
18962WAT      O57127   9.459   2.221   6.477
18962WAT     H157128   9.470   2.255   6.570
18962WAT     H257129   9.416   2.130   6.479
18963WAT      O57130   1.640   9.287   5.491
18963WAT     H157131   1.595   9.197   5.490
18963WAT     H257132   1.668   9.308   5.584
18964WAT      O57133   0.481   2.986   0.430
18964WAT     H157134   0.563   2.977   0.487
18964WAT     H257135   0.400   2.970   0.487
18965WAT      O57136   2.084   2.871   0.776
18965WAT     H157137   2.062   2.820   0.692
18965WAT     H257138   2.010   2.935   0.797
18966WAT      O57139   6.412   7.356   2.144
18966WAT     H157140   6.334   7.352   2.206
18966WAT     H257141   6.380   7.372   2.051
18967WAT      O57142   8.948   6.779   5.900
18967WAT     H157143   8.850   6.784   5.919
18967WAT     H257144   8.993   6.723   5.969
18968WAT      O57145   6.667   2.267   2.383
18968WAT     H157146   6.669   2.367   2.390
18968WAT     H257147   6.633   2.228   2.469
18969WAT      O57148   4.018   2.970   9.083
18969WAT     H157149   4.115   2.986   9.102
18969WAT     H257150   3.986   2.894   9.139
18970WAT      O57151   3.617   6.215   2.252
18970WAT     H157152   3.564   6.228   2.335
18970WAT     H257153   3.708   6.256   2.263
18971WAT      O57154   3.612   0.449   2.019
18971WAT     H157155   3.700   0.485   2.051
18971WAT     H257156   3.552   0.433   2.097
18972WAT      O57157   3.678   2.317   3.302
18972WAT     H157158   3.582   2.291   3.298
18972WAT     H257159   3.692   2.383   3.376
18973WAT      O57160   0.822   7.716   7.952
18973WAT     H157161   0.782   7.701   7.862
18973WAT     H257162   0.820   7.813   7.974
18974WAT      O57163   0.860   3.471   9.658
18974WAT     H157164   0.899   3.446   9.747
18974WAT     H257165   0.770   3.512   9.673
18975WAT      O57166   9.513   0.906   8.644
18975WAT     H157167   9.488   0.996   8.609
18975WAT     H257168   9.431   0.852   8.659
18976WAT      O57169   0.733   5.625   8.631
18976WAT     H157170   0.771   5.699   8.575
18976WAT     H257171   0.754   5.537   8.589
18977WAT      O57172   7.543   1.112   1.799
18977WAT     H157173   7.502   1.132   1.888
18977WAT     H257174   7.642   1.128   1.803
18978WAT      O57175   8.716   0.533   0.070
18978WAT     H157176   8.737   0.627   0.044
18978WAT     H257177   8.798   0.477   0.062
18979WAT      O57178   7.235   8.529   9.218
18979WAT     H157179   7.246   8.477   9.133
18979WAT     H257180   7.287   8.614   9.211
18980WAT      O57181   4.895   2.602   1.525
18980WAT     H157182   4.877   2.696   1.553
18980WAT     H257183   4.815   2.545   1.548
18981WAT      O57184   6.430   7.665   8.028
18981WAT     H157185   6.524   7.640   8.004
18981WAT     H257186   6.371   7.654   7.948
18982WAT      O57187   5.966   1.574   2.899
18982WAT     H157188   5.922   1.636   2.963
18982WAT     H257189   6.061   1.601   2.886
18983WAT      O57190   2.923   1.421   2.280
18983WAT     H157191   3.018   1.438   2.255
18983WAT     H257192   2.920   1.366   2.363
18984WAT      O57193   4.336   7.855   3.955
18984WAT     H157194   4.404   7.818   4.017
18984WAT     H257195   4.368   7.846   3.860
18985WAT      O57196   8.362   9.406   0.587
18985WAT     H157197   8.363   9.506   0.596
18985WAT     H257198   8.303   9.381   0.510
18986WAT      O57199   6.535   9.113   3.667
18986WAT     H157200   6.447   9.076   3.635
18986WAT     H257201   6.522   9.156   3.756
18987WAT      O57202   1.453   5.403   2.897
18987WAT     H157203   1.532   5.463   2.907
18987WAT     H257204   1.413   5.415   2.806
18988WAT      O57205   8.171   6.997   6.749
18988WAT     H157206   8.145   7.084   6.791
18988WAT     H257207   8.253   6.961   6.794
18989WAT      O57208   3.537   0.461   9.860
18989WAT     H157209   3.523   0.362   9.866
18989WAT     H257210   3.557   0.497   9.952
18990WAT      O57211   8.931   4.272   6.686
18990WAT     H157212   8.929   4.233   6.594
18990WAT     H257213   8.988   4.354   6.687
18991WAT      O57214   6.721   2.392   9.301
18991WAT     H157215   6.627   2.423   9.287
18991WAT     H257216   6.758   2.434   9.384
18992WAT      O57217   8.080   8.605   3.934
18992WAT     H157218   8.153   8.549   3.894
18992WAT     H257219   7.992   8.573   3.900
18993WAT      O57220   4.388   1.046   7.260
18993WAT     H157221   4.407   0.962   7.312
18993WAT     H257222   4.303   1.035   7.209
18994WAT      O57223   7.644   2.302   0.890
18994WAT     H157224   7.573   2.232   0.889
18994WAT     H257225   7.649   2.343   0.981
18995WAT      O57226   5.838   4.766   0.422
18995WAT     H157227   5.899   4.688   0.438
18995WAT     H257228   5.751   4.750   0.468
18996WAT      O57229   4.987   0.060   8.116
18996WAT     H157230   4.899   0.047   8.162
18996WAT     H257231   4.996  -0.006   8.041
18997WAT      O57232   3.444   2.566   1.677
18997WAT     H157233   3.525   2.599   1.628
18997WAT     H257234   3.415   2.479   1.638
18998WAT      O57235   0.408   2.810   7.254
18998WAT     H157236   0.425   2.759   7.339
18998WAT     H257237   0.435   2.753   7.176
18999WAT      O57238   7.899   8.955   8.532
18999WAT     H157239   7.867   8.996   8.446
18999WAT     H257240   7.978   8.897   8.514
19000WAT      O57241   2.711   4.986   8.250
19000WAT     H157242   2.646   4.923   8.293
19000WAT     H257243   2.708   4.974   8.151
19001WAT      O57244   8.543   7.892   1.418
19001WAT     H157245   8.643   7.903   1.423
19001WAT     H257246   8.499   7.980   1.430
19002WAT      O57247   6.719   7.641   4.732
19002WAT     H157248   6.748   7.566   4.791
19002WAT     H257249   6.635   7.615   4.683
19003WAT      O57250   3.595   6.143   7.041
19003WAT     H157251   3.496   6.135   7.044
19003WAT     H257252   3.625   6.211   7.108
19004WAT      O57253   0.473   6.586   3.672
19004WAT     H157254   0.410   6.641   3.727
19004WAT     H257255   0.502   6.639   3.592
19005WAT      O57256   6.973   6.290   0.913
19005WAT     H157257   6.942   6.268   0.821
19005WAT     H257258   6.917   6.364   0.950
19006WAT      O57259   4.484   6.786   3.011
19006WAT     H157260   4.528   6.788   3.100
19006WAT     H257261   4.404   6.845   3.011
19007WAT      O57262   8.181   2.751   6.872
19007WAT     H157263   8.196   2.847   6.896
19007WAT     H257264   8.179   2.742   6.773
19008WAT      O57265   8.759   0.578   4.185
19008WAT     H157266   8.702   0.648   4.229
19008WAT     H257267   8.842   0.565   4.238
19009WAT      O57268   5.071   9.728   1.896
19009WAT     H157269   5.117   9.652   1.850
19009WAT     H257270   5.099   9.732   1.992
19010WAT      O57271   8.642   4.373   8.330
19010WAT     H157272   8.679   4.463   8.306
19010WAT     H257273   8.606   4.329   8.248
19011WAT      O57274   1.946   1.021   2.459
19011WAT     H157275   2.044   1.037   2.449
19011WAT     H257276   1.932   0.936   2.510
19012WAT      O57277   2.618   6.228   2.320
19012WAT     H157278   2.571   6.140   2.327
19012WAT     H257279   2.567   6.289   2.260
19013WAT      O57280   7.285   2.332   7.340
19013WAT     H157281   7.204   2.292   7.381
19013WAT     H257282   7.260   2.376   7.253
19014WAT      O57283   0.981   0.319   3.982
19014WAT     H157284   1.079   0.341   3.983
19014WAT     H257285   0.935   0.378   3.916
19015WAT      O57286   6.245   1.949   0.129
19015WAT     H157287   6.293   1.866   0.158
19015WAT     H257288   6.206   1.994   0.209
19016WAT      O57289   6.535   0.335   4.886
19016WAT     H157290   6.554   0.432   4.871
19016WAT     H257291   6.612   0.293   4.934
19017WAT      O57292   0.645   3.028   6.075
19017WAT     H157293   0.665   3.087   5.997
19017WAT     H257294   0.712   2.954   6.079
19018WAT      O57295   0.939   6.538   3.835
19018WAT     H157296   0.886   6.541   3.920
19018WAT     H257297   0.987   6.625   3.822
19019WAT      O57298   6.374   8.972   5.022
19019WAT     H157299   6.295   8.941   4.969
19019WAT     H257300   6.454   8.918   4.998
19020WAT      O57301   8.819   4.628   2.622
19020WAT     H157302   8.888   4.625   2.695
19020WAT     H257303   8.859   4.598   2.536
19021WAT      O57304   8.769   2.578   0.122
19021WAT     H157305   8.862   2.595   0.090
19021WAT     H257306   8.707   2.572   0.043
19022WAT      O57307   0.187   8.157   2.135
19022WAT     H157308   0.263   8.100   2.163
19022WAT     H257309   0.128   8.176   2.215
19023WAT      O57310   1.621   6.709   3.699
19023WAT     H157311   1.590   6.764   3.777
19023WAT     H257312   1.545   6.698   3.634
19024WAT      O57313   9.658   9.668   5.684
19024WAT     H157314   9.745   9.625   5.706
19024WAT     H257315   9.588   9.638   5.749
19025WAT      O57316   5.523   3.825   6.287
19025WAT     H157317   5.535   3.804   6.190
19025WAT     H257318   5.437   3.876   6.299
19026WAT      O57319   2.703   6.285   2.562
19026WAT     H157320   2.690   6.200   2.613
19026WAT     H257321   2.660   6.277   2.472
19027WAT      O57322   1.994   7.089   5.584
19027WAT     H157323   2.010   6.990   5.580
19027WAT     H257324   2.043   7.128   5.661
19028WAT      O57325   9.818   7.215   4.260
19028WAT     H157326   9.797   7.312   4.245
19028WAT     H257327   9.868   7.180   4.181
19029WAT      O57328   0.484   2.960   6.847
19029WAT     H157329   0.510   3.005   6.932
19029WAT     H257330   0.516   3.014   6.769
19030WAT      O57331   8.183   3.032   6.657
19030WAT     H157332   8.162   3.130   6.665
19030WAT     H257333   8.107   2.984   6.615
19031WAT      O57334   6.236   3.062   8.426
19031WAT     H157335   6.161   3.121   8.454
19031WAT     H257336   6.200   2.972   8.401
19032WAT      O57337   4.745   3.393   0.234
19032WAT     H157338   4.707   3.451   0.307
19032WAT     H257339   4.842   3.375   0.253
19033WAT      O57340   3.832   5.975   1.654
19033WAT     H157341   3.908   6.035   1.679
19033WAT     H257342   3.863   5.880   1.658
19034WAT      O57343   3.871   9.020   5.997
19034WAT     H157344   3.801   9.000   5.929
19034WAT     H257345   3.871   9.117   6.018
19035WAT      O57346   2.241   9.697   7.238
19035WAT     H157347   2.304   9.705   7.161
19035WAT     H257348   2.161   9.754   7.223
19036WAT      O57349   3.844   0.698   5.076
19036WAT     H157350   3.845   0.601   5.050
19036WAT     H257351   3.884   0.752   5.002
19037WAT      O57352   9.742   6.971   0.237
19037WAT     H157353   9.727   6.961   0.335
19037WAT     H257354   9.761   7.067   0.216
19038WAT      O57355   2.419   0.441   6.873
19038WAT     H157356   2.482   0.367   6.899
19038WAT     H257357   2.428   0.517   6.937
19039WAT      O57358   2.380   0.508   6.579
19039WAT     H157359   2.391   0.471   6.671
19039WAT     H257360   2.285   0.535   6.565
19040WAT      O57361   3.069   7.513   0.894
19040WAT     H157362   3.113   7.593   0.936
19040WAT     H257363   2.987   7.543   0.845
19041WAT      O57364   8.686   6.095   2.882
19041WAT     H157365   8.595   6.134   2.895
19041WAT     H257366   8.681   6.022   2.812
19042WAT      O57367   4.613   3.092   1.585
19042WAT     H157368   4.650   3.164   1.643
19042WAT     H257369   4.514   3.087   1.598
19043WAT      O57370   7.647   9.650   0.967
19043WAT     H157371   7.716   9.715   0.995
19043WAT     H257372   7.667   9.618   0.874
19044WAT      O57373   1.747   2.687   2.651
19044WAT     H157374   1.767   2.723   2.743
19044WAT     H257375   1.776   2.754   2.583
19045WAT      O57376   2.872   6.433   4.216
19045WAT     H157377   2.963   6.403   4.246
19045WAT     H257378   2.846   6.382   4.134
19046WAT      O57379   4.824   9.295   1.195
19046WAT     H157380   4.775   9.370   1.239
19046WAT     H257381   4.873   9.242   1.265
19047WAT      O57382   0.722   2.069   5.099
19047WAT     H157383   0.636   2.091   5.144
19047WAT     H257384   0.760   1.984   5.138
19048WAT      O57385   8.633   2.785   3.369
19048WAT     H157386   8.615   2.883   3.361
19048WAT     H257387   8.607   2.739   3.284
19049WAT      O57388   8.931   2.541   5.417
19049WAT     H157389   8.890   2.497   5.497
19049WAT     H257390   8.922   2.640   5.424
19050WAT      O57391   4.917   7.200   5.999
19050WAT     H157392   4.920   7.263   5.921
19050WAT     H257393   4.886   7.249   6.080
19051WAT      O57394   9.817   8.048   6.675
19051WAT     H157395   9.769   8.012   6.595
19051WAT     H257396   9.878   7.977   6.712
19052WAT      O57397   7.333   9.583   3.075
19052WAT     H157398   7.347   9.670   3.122
19052WAT     H257399   7.421   9.540   3.057
19053WAT      O57400   9.443   6.552   3.897
19053WAT     H157401   9.495   6.471   3.872
19053WAT     H257402   9.395   6.587   3.816
19054WAT      O57403   3.222   3.315   1.333
19054WAT     H157404   3.165   3.396   1.349
19054WAT     H257405   3.249   3.312   1.237
19055WAT      O57406   5.125   3.579   0.199
19055WAT     H157407   5.218   3.609   0.178
19055WAT     H257408   5.100   3.610   0.291
19056WAT      O57409   7.606   5.248   3.216
19056WAT     H157410   7.601   5.148   3.219
19056WAT     H257411   7.543   5.283   3.147
19057WAT      O57412   2.882   1.888   4.247
19057WAT     H157413   2.847   1.807   4.200
19057WAT     H257414   2.974   1.909   4.214
19058WAT      O57415   2.389   2.340   9.093
19058WAT     H157416   2.367   2.253   9.138
19058WAT     H257417   2.388   2.413   9.161
19059WAT      O57418   0.092   9.094   8.705
19059WAT     H157419   0.187   9.075   8.679
19059WAT     H257420   0.030   9.048   8.642
19060WAT      O57421   7.188   1.170   5.161
19060WAT     H157422   7.282   1.152   5.190
19060WAT     H257423   7.160   1.102   5.093
19061WAT      O57424   5.823   3.284   6.397
19061WAT     H157425   5.884   3.356   6.429
19061WAT     H257426   5.803   3.298   6.300
19062WAT      O57427   6.150   9.835   7.513
19062WAT     H157428   6.125   9.915   7.568
19062WAT     H257429   6.169   9.757   7.573
19063WAT      O57430   7.175   8.337   1.335
19063WAT     H157431   7.123   8.263   1.292
19063WAT     H257432   7.259   8.352   1.283
19064WAT      O57433   7.291   5.403   4.960
19064WAT     H157434   7.226   5.328   4.961
19064WAT     H257435   7.355   5.390   4.883
19065WAT      O57436   5.687   0.709   4.924
19065WAT     H157437   5.676   0.805   4.902
19065WAT     H257438   5.785   0.686   4.923
19066WAT      O57439   7.582   5.225   5.167
19066WAT     H157440   7.554   5.138   5.127
19066WAT     H257441   7.682   5.235   5.159
19067WAT      O57442   4.893   1.248   8.736
19067WAT     H157443   4.833   1.169   8.723
19067WAT     H257444   4.872   1.318   8.669
19068WAT      O57445   7.520   6.922   4.439
19068WAT     H157446   7.503   6.823   4.435
19068WAT     H257447   7.559   6.946   4.528
19069WAT      O57448   8.375   9.470   1.318
19069WAT     H157449   8.292   9.515   1.349
19069WAT     H257450   8.360   9.430   1.228
19070WAT      O57451   9.581   3.530   6.970
19070WAT     H157452   9.488   3.515   6.938
19070WAT     H257453   9.620   3.609   6.922
19071WAT      O57454   8.005   3.489   7.994
19071WAT     H157455   7.968   3.436   8.070
19071WAT     H257456   8.083   3.543   8.026
19072WAT      O57457   4.167   1.061   0.771
19072WAT     H157458   4.147   0.979   0.718
19072WAT     H257459   4.265   1.063   0.794
19073WAT      O57460   0.483   6.445   3.324
19073WAT     H157461   0.387   6.447   3.293
19073WAT     H257462   0.505   6.533   3.365
19074WAT      O57463   4.591   1.276   9.448
19074WAT     H157464   4.650   1.197   9.464
19074WAT     H257465   4.521   1.253   9.381
19075WAT      O57466   3.062   1.123   8.176
19075WAT     H157467   3.076   1.028   8.147
19075WAT     H257468   3.127   1.146   8.248
19076WAT      O57469   0.405   8.218   3.744
19076WAT     H157470   0.464   8.193   3.667
19076WAT     H257471   0.451   8.195   3.830
19077WAT      O57472   6.873   3.808   3.956
19077WAT     H157473   6.847   3.778   3.865
19077WAT     H257474   6.812   3.768   4.024
19078WAT      O57475   7.606   7.872   1.242
19078WAT     H157476   7.549   7.790   1.247
19078WAT     H257477   7.550   7.950   1.215
19079WAT      O57478   2.110   7.918   2.009
19079WAT     H157479   2.156   7.972   2.080
19079WAT     H257480   2.022   7.961   1.986
19080WAT      O57481   9.480   3.901   8.553
19080WAT     H157482   9.441   3.943   8.471
19080WAT     H257483   9.574   3.933   8.566
19081WAT      O57484   3.765   8.832   3.984
19081WAT     H157485   3.831   8.865   3.917
19081WAT     H257486   3.786   8.871   4.074
19082WAT      O57487   5.260   5.624   2.820
19082WAT     H157488   5.180   5.565   2.808
19082WAT     H257489   5.268   5.650   2.916
19083WAT      O57490   6.657   5.070   7.284
19083WAT     H157491   6.736   5.129   7.299
19083WAT     H257492   6.597   5.074   7.364
19084WAT      O57493   0.384   5.824   7.199
19084WAT     H157494   0.320   5.862   7.132
19084WAT     H257495   0.474   5.865   7.186
19085WAT      O57496   6.333   1.906   6.287
19085WAT     H157497   6.245   1.860   6.276
19085WAT     H257498   6.319   2.005   6.282
19086WAT      O57499   5.875   9.661   1.799
19086WAT     H157500   5.804   9.599   1.764
19086WAT     H257501   5.897   9.637   1.894
19087WAT      O57502   9.730   8.671   2.914
19087WAT     H157503   9.709   8.769   2.903
19087WAT     H257504   9.757   8.653   3.008
19088WAT      O57505   6.783   0.542   0.413
19088WAT     H157506   6.685   0.559   0.409
19088WAT     H257507   6.830   0.599   0.345
19089WAT      O57508   9.666   0.649   8.432
19089WAT     H157509   9.614   0.670   8.350
19089WAT     H257510   9.713   0.731   8.464
19090WAT      O57511   6.721   9.717   4.392
19090WAT     H157512   6.660   9.647   4.429
19090WAT     H257513   6.697   9.735   4.297
19091WAT      O57514   4.556   5.106   2.439
19091WAT     H157515   4.531   5.194   2.399
19091WAT     H257516   4.474   5.048   2.447
19092WAT      O57517   0.659   2.217   7.932
19092WAT     H157518   0.622   2.262   8.013
19092WAT     H257519   0.720   2.144   7.960
19093WAT      O57520   8.648   2.265   1.406
19093WAT     H157521   8.731   2.321   1.413
19093WAT     H257522   8.662   2.179   1.455
19094WAT      O57523   9.754   2.684   5.611
19094WAT     H157524   9.685   2.614   5.627
19094WAT     H257525   9.732   2.734   5.528
19095WAT      O57526   5.256   4.156   7.147
19095WAT     H157527   5.269   4.060   7.122
19095WAT     H257528   5.247   4.211   7.064
19096WAT      O57529   3.764   5.458   7.672
19096WAT     H157530   3.752   5.379   7.731
19096WAT     H257531   3.721   5.538   7.714
19097WAT      O57532   7.596   6.625   9.526
19097WAT     H157533   7.686   6.664   9.548
19097WAT     H257534   7.564   6.663   9.439
19098WAT      O57535   6.227   5.085   5.496
19098WAT     H157536   6.322   5.094   5.465
19098WAT     H257537   6.223   5.019   5.571
19099WAT      O57538   2.675   8.214   0.380
19099WAT     H157539   2.644   8.295   0.429
19099WAT     H257540   2.764   8.185   0.416
19100WAT      O57541   7.225   1.829   4.770
19100WAT     H157542   7.278   1.762   4.717
19100WAT     H257543   7.164   1.780   4.832
19101WAT      O57544   7.717   6.384   5.252
19101WAT     H157545   7.653   6.461   5.254
19101WAT     H257546   7.789   6.403   5.186
19102WAT      O57547   0.212   0.978   4.242
19102WAT     H157548   0.204   1.077   4.255
19102WAT     H257549   0.139   0.932   4.292
19103WAT      O57550   9.377   3.421   0.670
19103WAT     H157551   9.330   3.436   0.756
19103WAT     H257552   9.391   3.509   0.623
19104WAT      O57553   1.207   5.734   4.189
19104WAT     H157554   1.181   5.684   4.272
19104WAT     H257555   1.151   5.702   4.113
19105WAT      O57556   1.093   0.048   7.080
19105WAT     H157557   1.191   0.069   7.074
19105WAT     H257558   1.075  -0.003   7.164
19106WAT      O57559   2.785   5.365   3.716
19106WAT     H157560   2.803   5.411   3.803
19106WAT     H257561   2.716   5.416   3.665
19107WAT      O57562   8.696   0.600   7.155
19107WAT     H157563   8.685   0.623   7.252
19107WAT     H257564   8.608   0.613   7.108
19108WAT      O57565   9.065   9.200   2.614
19108WAT     H157566   9.100   9.151   2.694
19108WAT     H257567   9.142   9.224   2.554
19109WAT      O57568   0.203   0.366   5.606
19109WAT     H157569   0.199   0.399   5.512
19109WAT     H257570   0.237   0.438   5.666
19110WAT      O57571   7.033   9.550   7.875
19110WAT     H157572   7.104   9.601   7.825
19110WAT     H257573   6.944   9.572   7.836
19111WAT      O57574   4.166   1.704   8.439
19111WAT     H157575   4.074   1.672   8.458
19111WAT     H257576   4.181   1.792   8.484
19112WAT      O57577   5.167   6.397   0.809
19112WAT     H157578   5.260   6.370   0.835
19112WAT     H257579   5.170   6.451   0.725
19113WAT      O57580   8.741   3.475   3.959
19113WAT     H157581   8.764   3.378   3.961
19113WAT     H257582   8.776   3.517   3.876
19114WAT      O57583   6.858   5.358   5.369
19114WAT     H157584   6.785   5.400   5.423
19114WAT     H257585   6.820   5.321   5.285
19115WAT      O57586   5.115   0.310   0.328
19115WAT     H157587   5.102   0.221   0.285
19115WAT     H257588   5.204   0.314   0.372
19116WAT      O57589   7.941   1.916   1.630
19116WAT     H157590   8.019   1.946   1.575
19116WAT     H257591   7.896   1.996   1.670
19117WAT      O57592   1.010   3.381   9.290
19117WAT     H157593   1.014   3.440   9.210
19117WAT     H257594   0.914   3.358   9.309
19118WAT      O57595   5.204   6.191   1.453
19118WAT     H157596   5.130   6.206   1.388
19118WAT     H257597   5.167   6.149   1.536
19119WAT      O57598   2.166   3.375   6.497
19119WAT     H157599   2.118   3.376   6.409
19119WAT     H257600   2.113   3.321   6.563
19120WAT      O57601   5.719   8.399   9.779
19120WAT     H157602   5.710   8.394   9.878
19120WAT     H257603   5.800   8.348   9.750
19121WAT      O57604   0.118   3.737   9.601
19121WAT     H157605   0.196   3.796   9.578
19121WAT     H257606   0.049   3.791   9.648
19122WAT      O57607   1.600   0.150   8.919
19122WAT     H157608   1.536   0.143   8.995
19122WAT     H257609   1.551   0.182   8.838
19123WAT      O57610   6.151   5.207   2.031
19123WAT     H157611   6.057   5.185   2.057
19123WAT     H257612   6.163   5.307   2.032
19124WAT      O57613   5.613   0.979   2.561
19124WAT     H157614   5.519   0.947   2.559
19124WAT     H257615   5.617   1.069   2.605
19125WAT      O57616   0.580   5.574   3.222
19125WAT     H157617   0.522   5.647   3.257
19125WAT     H257618   0.673   5.610   3.207
19126WAT      O57619   4.955   9.146   1.355
19126WAT     H157620   4.922   9.095   1.435
19126WAT     H257621   5.054   9.131   1.346
19127WAT      O57622   4.719   7.858   5.308
19127WAT     H157623   4.778   7.819   5.379
19127WAT     H257624   4.624   7.851   5.336
19128WAT      O57625   0.456   0.579   6.927
19128WAT     H157626   0.517   0.587   7.006
19128WAT     H257627   0.499   0.522   6.857
19129WAT      O57628   7.359   2.847   0.972
19129WAT     H157629   7.283   2.858   0.907
19129WAT     H257630   7.394   2.754   0.966
19130WAT      O57631   0.087   8.650   5.625
19130WAT     H157632   0.135   8.709   5.560
19130WAT     H257633  -0.008   8.681   5.634
19131WAT      O57634   7.943   6.454   5.720
19131WAT     H157635   7.995   6.380   5.763
19131WAT     H257636   7.959   6.454   5.622
19132WAT      O57637   4.868   9.715   8.883
19132WAT     H157638   4.852   9.617   8.889
19132WAT     H257639   4.966   9.734   8.895
19133WAT      O57640   8.716   1.608   6.402
19133WAT     H157641   8.775   1.688   6.394
19133WAT     H257642   8.757   1.542   6.465
19134WAT      O57643   0.462   1.377   0.731
19134WAT     H157644   0.523   1.346   0.803
19134WAT     H257645   0.514   1.425   0.661
19135WAT      O57646   1.994   3.628   4.459
19135WAT     H157647   2.002   3.658   4.364
19135WAT     H257648   2.079   3.582   4.486
19136WAT      O57649   0.378   3.141   4.403
19136WAT     H157650   0.377   3.104   4.496
19136WAT     H257651   0.291   3.121   4.358
19137WAT      O57652   4.972   2.598   4.926
19137WAT     H157653   4.979   2.626   5.021
19137WAT     H257654   5.000   2.673   4.867
19138WAT      O57655   2.717   7.515   7.957
19138WAT     H157656   2.673   7.589   8.007
19138WAT     H257657   2.716   7.432   8.013
19139WAT      O57658   7.405   9.391   0.658
19139WAT     H157659   7.482   9.352   0.709
19139WAT     H257660   7.403   9.490   0.672
19140WAT      O57661   1.360   9.083   0.225
19140WAT     H157662   1.371   9.054   0.130
19140WAT     H257663   1.272   9.127   0.237
19141WAT      O57664   9.645   8.838   0.921
19141WAT     H157665   9.626   8.781   1.001
19141WAT     H257666   9.701   8.786   0.856
19142WAT      O57667   8.526   8.921   1.384
19142WAT     H157668   8.510   8.993   1.317
19142WAT     H257669   8.613   8.877   1.365
19143WAT      O57670   1.483   0.979   9.281
19143WAT     H157671   1.465   1.022   9.370
19143WAT     H257672   1.489   1.050   9.211
19144WAT      O57673   9.762   5.454   8.334
19144WAT     H157674   9.687   5.437   8.398
19144WAT     H257675   9.838   5.393   8.354
19145WAT      O57676   9.890   5.648   6.372
19145WAT     H157677   9.878   5.643   6.273
19145WAT     H257678   9.879   5.557   6.412
19146WAT      O57679   7.003   1.881   9.530
19146WAT     H157680   6.960   1.914   9.446
19146WAT     H257681   6.965   1.930   9.609
19147WAT      O57682   6.060   0.634   8.768
19147WAT     H157683   5.963   0.648   8.786
19147WAT     H257684   6.101   0.585   8.845
19148WAT      O57685   3.199   7.137   5.645
19148WAT     H157686   3.262   7.203   5.605
19148WAT     H257687   3.187   7.060   5.583
19149WAT      O57688   3.086   3.479   4.783
19149WAT     H157689   3.152   3.459   4.856
19149WAT     H257690   2.995   3.449   4.811
19150WAT      O57691   9.362   0.131   9.070
19150WAT     H157692   9.461   0.132   9.077
19150WAT     H257693   9.330   0.216   9.028
19151WAT      O57694   7.514   1.456   8.498
19151WAT     H157695   7.477   1.490   8.411
19151WAT     H257696   7.513   1.356   8.498
19152WAT      O57697   3.894   3.185   6.215
19152WAT     H157698   3.842   3.132   6.282
19152WAT     H257699   3.974   3.132   6.186
19153WAT      O57700   3.800   2.080   3.560
19153WAT     H157701   3.773   2.104   3.467
19153WAT     H257702   3.759   1.993   3.585
19154WAT      O57703   7.452   2.460   5.949
19154WAT     H157704   7.364   2.507   5.946
19154WAT     H257705   7.498   2.470   5.861
19155WAT      O57706   5.487   7.349   9.141
19155WAT     H157707   5.444   7.416   9.080
19155WAT     H257708   5.509   7.392   9.228
19156WAT      O57709   5.635   6.017   0.717
19156WAT     H157710   5.638   6.113   0.689
19156WAT     H257711   5.692   6.003   0.798
19157WAT      O57712   2.623   7.566   6.459
19157WAT     H157713   2.661   7.476   6.440
19157WAT     H257714   2.618   7.579   6.558
19158WAT      O57715   1.743   5.272   3.128
19158WAT     H157716   1.777   5.317   3.045
19158WAT     H257717   1.787   5.312   3.208
19159WAT      O57718   1.570   7.595   6.357
19159WAT     H157719   1.587   7.633   6.266
19159WAT     H257720   1.475   7.565   6.363
19160WAT      O57721   0.840   1.130   7.449
19160WAT     H157722   0.862   1.037   7.480
19160WAT     H257723   0.870   1.142   7.355
19161WAT      O57724   1.851   0.836   1.305
19161WAT     H157725   1.808   0.764   1.359
19161WAT     H257726   1.827   0.825   1.208
19162WAT      O57727   6.804   2.724   5.912
19162WAT     H157728   6.754   2.724   5.825
19162WAT     H257729   6.744   2.692   5.985
19163WAT      O57730   0.079   1.419   5.982
19163WAT     H157731   0.098   1.403   5.885
19163WAT     H257732   0.078   1.517   6.000
19164WAT      O57733   4.664   1.047   3.282
19164WAT     H157734   4.718   0.995   3.216
19164WAT     H257735   4.613   1.118   3.234
19165WAT      O57736   9.586   1.773   2.179
19165WAT     H157737   9.502   1.819   2.149
19165WAT     H257738   9.620   1.715   2.106
19166WAT      O57739   3.194   4.094   5.400
19166WAT     H157740   3.112   4.113   5.454
19166WAT     H257741   3.266   4.059   5.461
19167WAT      O57742   2.418   7.359   9.251
19167WAT     H157743   2.320   7.338   9.260
19167WAT     H257744   2.431   7.458   9.252
19168WAT      O57745   5.429   3.543   3.722
19168WAT     H157746   5.350   3.486   3.698
19168WAT     H257747   5.402   3.609   3.793
19169WAT      O57748   5.225   8.288   3.382
19169WAT     H157749   5.135   8.274   3.424
19169WAT     H257750   5.295   8.284   3.453
19170WAT      O57751   1.146   1.594   1.559
19170WAT     H157752   1.185   1.503   1.543
19170WAT     H257753   1.105   1.627   1.474
19171WAT      O57754   7.843   3.167   9.592
19171WAT     H157755   7.870   3.070   9.588
19171WAT     H257756   7.878   3.207   9.677
19172WAT      O57757   8.458   1.689   3.477
19172WAT     H157758   8.495   1.642   3.397
19172WAT     H257759   8.526   1.752   3.513
19173WAT      O57760   6.875   4.780   4.460
19173WAT     H157761   6.864   4.784   4.559
19173WAT     H257762   6.821   4.853   4.417
19174WAT      O57763   9.703   7.197   5.522
19174WAT     H157764   9.779   7.134   5.538
19174WAT     H257765   9.711   7.236   5.430
19175WAT      O57766   6.449   3.862   5.798
19175WAT     H157767   6.349   3.856   5.794
19175WAT     H257768   6.479   3.856   5.894
19176WAT      O57769   9.498   1.731   3.253
19176WAT     H157770   9.408   1.694   3.276
19176WAT     H257771   9.560   1.657   3.229
19177WAT      O57772   9.862   5.288   8.709
19177WAT     H157773   9.770   5.254   8.694
19177WAT     H257774   9.928   5.224   8.669
19178WAT      O57775   8.447   5.419   3.225
19178WAT     H157776   8.390   5.441   3.146
19178WAT     H257777   8.391   5.419   3.308
19179WAT      O57778   3.216   6.226   6.879
19179WAT     H157779   3.283   6.231   6.804
19179WAT     H257780   3.134   6.277   6.853
19180WAT      O57781   9.238   6.733   6.275
19180WAT     H157782   9.260   6.821   6.233
19180WAT     H257783   9.321   6.691   6.310
19181WAT      O57784   8.963   0.940   9.052
19181WAT     H157785   9.028   0.896   9.115
19181WAT     H257786   8.970   1.039   9.062
19182WAT      O57787   0.678   8.809   9.791
19182WAT     H157788   0.606   8.793   9.859
19182WAT     H257789   0.700   8.907   9.789
19183WAT      O57790   1.910   7.639   0.381
19183WAT     H157791   2.002   7.613   0.354
19183WAT     H257792   1.847   7.624   0.305
19184WAT      O57793   5.231   9.650   7.924
19184WAT     H157794   5.262   9.607   8.009
19184WAT     H257795   5.279   9.736   7.911
19185WAT      O57796   6.441   3.539   0.686
19185WAT     H157797   6.401   3.478   0.755
19185WAT     H257798   6.369   3.571   0.624
19186WAT      O57799   1.806   8.547   2.814
19186WAT     H157800   1.806   8.540   2.913
19186WAT     H257801   1.768   8.463   2.774
19187WAT      O57802   7.110   1.836   1.831
19187WAT     H157803   7.146   1.877   1.914
19187WAT     H257804   7.142   1.887   1.751
19188WAT      O57805   8.608   5.069   9.159
19188WAT     H157806   8.660   5.102   9.080
19188WAT     H257807   8.671   5.042   9.231
19189WAT      O57808   3.221   7.692   1.035
19189WAT     H157809   3.294   7.676   1.101
19189WAT     H257810   3.260   7.728   0.950
19190WAT      O57811   9.289   5.912   3.136
19190WAT     H157812   9.358   5.984   3.144
19190WAT     H257813   9.205   5.940   3.184
19191WAT      O57814   6.439   4.183   1.859
19191WAT     H157815   6.526   4.137   1.875
19191WAT     H257816   6.395   4.204   1.947
19192WAT      O57817   0.900   8.600   4.331
19192WAT     H157818   0.811   8.582   4.372
19192WAT     H257819   0.892   8.679   4.270
19193WAT      O57820   3.581   2.918   7.296
19193WAT     H157821   3.547   2.916   7.390
19193WAT     H257822   3.681   2.931   7.298
19194WAT      O57823   2.708   6.615   7.532
19194WAT     H157824   2.769   6.669   7.590
19194WAT     H257825   2.629   6.585   7.587
19195WAT      O57826   4.590   4.369   1.345
19195WAT     H157827   4.550   4.286   1.383
19195WAT     H257828   4.629   4.349   1.256
19196WAT      O57829   6.464   4.635   9.756
19196WAT     H157830   6.527   4.604   9.685
19196WAT     H257831   6.511   4.695   9.819
19197WAT      O57832   1.835   1.085   7.202
19197WAT     H157833   1.769   1.058   7.133
19197WAT     H257834   1.787   1.117   7.284
19198WAT      O57835   1.160   4.354   3.662
19198WAT     H157836   1.169   4.284   3.732
19198WAT     H257837   1.251   4.379   3.628
19199WAT      O57838   7.198   7.286   3.721
19199WAT     H157839   7.123   7.228   3.753
19199WAT     H257840   7.284   7.250   3.756
19200WAT      O57841   1.175   3.041   3.108
19200WAT     H157842   1.269   3.008   3.116
19200WAT     H257843   1.151   3.050   3.012
19201WAT      O57844   4.567   9.313   7.504
19201WAT     H157845   4.625   9.276   7.431
19201WAT     H257846   4.550   9.242   7.572
19202WAT      O57847   2.965   5.135   6.087
19202WAT     H157848   3.063   5.118   6.086
19202WAT     H257849   2.942   5.198   6.161
19203WAT      O57850   4.006   2.629   8.032
19203WAT     H157851   4.053   2.566   8.094
19203WAT     H257852   3.939   2.578   7.977
19204WAT      O57853   6.282   3.106   8.859
19204WAT     H157854   6.300   3.008   8.856
19204WAT     H257855   6.343   3.154   8.796
19205WAT      O57856   7.568   5.837   1.572
19205WAT     H157857   7.608   5.900   1.639
19205WAT     H257858   7.492   5.788   1.614
19206WAT      O57859   1.651   9.795   2.639
19206WAT     H157860   1.603   9.740   2.708
19206WAT     H257861   1.644   9.892   2.663
19207WAT      O57862   9.648   8.827   2.673
19207WAT     H157863   9.627   8.778   2.757
19207WAT     H257864   9.736   8.873   2.682
19208WAT      O57865   7.119   8.929   4.976
19208WAT     H157866   7.152   8.930   4.881
19208WAT     H257867   7.189   8.966   5.036
19209WAT      O57868   6.991   8.521   1.379
19209WAT     H157869   7.036   8.604   1.411
19209WAT     H257870   7.060   8.452   1.359
19210WAT      O57871   9.450   2.976   2.804
19210WAT     H157872   9.362   2.971   2.756
19210WAT     H257873   9.518   3.017   2.744
19211WAT      O57874   5.139   1.288   5.834
19211WAT     H157875   5.164   1.379   5.868
19211WAT     H257876   5.164   1.220   5.903
19212WAT      O57877   6.103   0.241   0.011
19212WAT     H157878   6.043   0.180   0.062
19212WAT     H257879   6.157   0.189  -0.054
19213WAT      O57880   8.601   1.883   8.825
19213WAT     H157881   8.595   1.849   8.731
19213WAT     H257882   8.658   1.965   8.827
19214WAT      O57883   6.790   6.639   3.460
19214WAT     H157884   6.712   6.696   3.435
19214WAT     H257885   6.839   6.611   3.378
19215WAT      O57886   2.369   1.474   2.410
19215WAT     H157887   2.434   1.449   2.482
19215WAT     H257888   2.289   1.415   2.415
19216WAT      O57889   8.208   4.986   3.877
19216WAT     H157890   8.167   4.963   3.966
19216WAT     H257891   8.148   4.956   3.804
19217WAT      O57892   2.840   4.614   9.772
19217WAT     H157893   2.807   4.574   9.857
19217WAT     H257894   2.938   4.633   9.780
19218WAT      O57895   4.981   8.115   5.046
19218WAT     H157896   5.048   8.055   5.088
19218WAT     H257897   4.901   8.062   5.018
19219WAT      O57898   7.115   7.835   3.211
19219WAT     H157899   7.160   7.911   3.165
19219WAT     H257900   7.184   7.767   3.239
19220WAT      O57901   5.947   8.552   9.270
19220WAT     H157902   5.893   8.612   9.211
19220WAT     H257903   6.030   8.600   9.300
19221WAT      O57904   7.001   2.894   5.964
19221WAT     H157905   6.936   2.824   5.936
19221WAT     H257906   7.080   2.893   5.902
19222WAT      O57907   7.643   8.621   3.231
19222WAT     H157908   7.676   8.652   3.141
19222WAT     H257909   7.608   8.528   3.223
19223WAT      O57910   2.932   0.924   7.372
19223WAT     H157911   2.918   0.825   7.364
19223WAT     H257912   3.002   0.953   7.307
19224WAT      O57913   5.630   6.189   2.730
19224WAT     H157914   5.674   6.165   2.817
19224WAT     H257915   5.535   6.214   2.747
19225WAT      O57916   5.961   5.893   9.156
19225WAT     H157917   5.959   5.827   9.231
19225WAT     H257918   6.055   5.923   9.141
19226WAT      O57919   0.399   2.294   2.025
19226WAT     H157920   0.337   2.261   1.954
19226WAT     H257921   0.373   2.386   2.052
19227WAT      O57922   3.683   1.415   9.571
19227WAT     H157923   3.602   1.364   9.602
19227WAT     H257924   3.657   1.478   9.498
19228WAT      O57925   2.605   2.180   4.744
19228WAT     H157926   2.596   2.147   4.838
19228WAT     H257927   2.661   2.115   4.692
19229WAT      O57928   8.211   4.147   8.432
19229WAT     H157929   8.227   4.243   8.454
19229WAT     H257930   8.287   4.092   8.465
19230WAT      O57931   5.010   3.756   2.285
19230WAT     H157932   4.967   3.840   2.318
19230WAT     H257933   5.058   3.774   2.199
19231WAT      O57934   0.416   2.401   9.791
19231WAT     H157935   0.462   2.477   9.744
19231WAT     H257936   0.385   2.335   9.723
19232WAT      O57937   5.287   3.436   0.625
19232WAT     H157938   5.194   3.468   0.610
19232WAT     H257939   5.331   3.416   0.537
19233WAT      O57940   3.749   4.342   6.111
19233WAT     H157941   3.722   4.349   6.208
19233WAT     H257942   3.668   4.352   6.053
19234WAT      O57943   6.822   1.441   3.183
19234WAT     H157944   6.722   1.437   3.173
19234WAT     H257945   6.859   1.502   3.113
19235WAT      O57946   4.618   1.389   7.076
19235WAT     H157947   4.691   1.434   7.025
19235WAT     H257948   4.530   1.420   7.041
19236WAT      O57949   5.635   9.736   4.769
19236WAT     H157950   5.574   9.805   4.729
19236WAT     H257951   5.726   9.746   4.730
19237WAT      O57952   6.081   9.136   2.242
19237WAT     H157953   6.068   9.131   2.143
19237WAT     H257954   6.060   9.048   2.283
19238WAT      O57955   9.126   1.257   6.359
19238WAT     H157956   9.152   1.175   6.411
19238WAT     H257957   9.083   1.229   6.274
19239WAT      O57958   1.778   6.716   5.691
19239WAT     H157959   1.800   6.685   5.784
19239WAT     H257960   1.680   6.740   5.686
19240WAT      O57961   0.759   0.919   4.405
19240WAT     H157962   0.744   1.008   4.447
19240WAT     H257963   0.729   0.922   4.309
19241WAT      O57964   7.474   0.477   8.917
19241WAT     H157965   7.481   0.436   8.826
19241WAT     H257966   7.487   0.407   8.987
19242WAT      O57967   7.424   6.649   8.445
19242WAT     H157968   7.404   6.727   8.385
19242WAT     H257969   7.367   6.571   8.420
19243WAT      O57970   7.201   0.257   8.608
19243WAT     H157971   7.182   0.210   8.695
19243WAT     H257972   7.149   0.342   8.604
19244WAT      O57973   5.652   8.053   8.215
19244WAT     H157974   5.714   8.104   8.154
19244WAT     H257975   5.658   7.956   8.194
19245WAT      O57976   3.750   5.959   5.596
19245WAT     H157977   3.820   5.887   5.595
19245WAT     H257978   3.792   6.047   5.573
19246WAT      O57979   9.292   3.589   2.880
19246WAT     H157980   9.236   3.604   2.961
19246WAT     H257981   9.382   3.631   2.892
19247WAT      O57982   6.293   6.682   8.181
19247WAT     H157983   6.376   6.707   8.232
19247WAT     H257984   6.296   6.725   8.091
19248WAT      O57985   4.130   0.430   7.801
19248WAT     H157986   4.056   0.444   7.735
19248WAT     H257987   4.203   0.496   7.783
19249WAT      O57988   4.670   0.024   0.424
19249WAT     H157989   4.700  -0.041   0.354
19249WAT     H257990   4.574   0.009   0.445
19250WAT      O57991   3.378   0.925   9.258
19250WAT     H157992   3.429   0.991   9.203
19250WAT     H257993   3.442   0.861   9.301
19251WAT      O57994   0.213   0.100   5.663
19251WAT     H157995   0.113   0.102   5.660
19251WAT     H257996   0.249   0.191   5.639
19252WAT      O57997   2.856   4.036   4.531
19252WAT     H157998   2.819   3.947   4.555
19252WAT     H257999   2.864   4.044   4.431
19253WAT      O58000   6.609   7.488   5.143
19253WAT     H158001   6.564   7.461   5.058
19253WAT     H258002   6.599   7.416   5.211
19254WAT      O58003   1.194   3.786   9.157
19254WAT     H158004   1.271   3.826   9.206
19254WAT     H258005   1.220   3.696   9.122
19255WAT      O58006   1.691   6.463   2.669
19255WAT     H158007   1.683   6.437   2.765
19255WAT     H258008   1.764   6.410   2.627
19256WAT      O58009   9.722   1.370   1.026
19256WAT     H158010   9.820   1.376   1.045
19256WAT     H258011   9.687   1.459   0.998
19257WAT      O58012   8.766   2.148   6.817
19257WAT     H158013   8.754   2.055   6.782
19257WAT     H258014   8.764   2.147   6.917
19258WAT      O58015   6.051   2.161   8.808
19258WAT     H158016   6.052   2.253   8.848
19258WAT     H258017   5.963   2.118   8.825
19259WAT      O58018   0.515   4.735   8.559
19259WAT     H158019   0.440   4.676   8.531
19259WAT     H258020   0.531   4.804   8.488
19260WAT      O58021   2.854   9.364   5.014
19260WAT     H158022   2.851   9.264   5.008
19260WAT     H258023   2.930   9.392   5.073
19261WAT      O58024   5.866   6.785   8.215
19261WAT     H158025   5.871   6.881   8.185
19261WAT     H258026   5.915   6.727   8.150
19262WAT      O58027   2.068   8.289   6.493
19262WAT     H158028   2.088   8.370   6.549
19262WAT     H258029   2.043   8.213   6.553
19263WAT      O58030   1.618   7.978   5.650
19263WAT     H158031   1.628   7.975   5.749
19263WAT     H258032   1.686   7.918   5.608
19264WAT      O58033   3.879   1.352   8.249
19264WAT     H158034   3.955   1.374   8.187
19264WAT     H258035   3.916   1.334   8.340
19265WAT      O58036   4.637   3.938   2.497
19265WAT     H158037   4.702   3.865   2.516
19265WAT     H258038   4.559   3.931   2.559
19266WAT      O58039   3.550   0.759   3.796
19266WAT     H158040   3.647   0.781   3.787
19266WAT     H258041   3.497   0.818   3.735
19267WAT      O58042   4.128   8.214   1.394
19267WAT     H158043   4.086   8.127   1.369
19267WAT     H258044   4.073   8.290   1.360
19268WAT      O58045   4.071   8.779   7.372
19268WAT     H158046   4.019   8.787   7.287
19268WAT     H258047   4.146   8.845   7.371
19269WAT      O58048   2.901   0.056   9.045
19269WAT     H158049   2.920   0.143   9.000
19269WAT     H258050   2.927  -0.019   8.984
19270WAT      O58051   3.020   6.884   6.668
19270WAT     H158052   2.978   6.914   6.754
19270WAT     H258053   2.949   6.875   6.598
19271WAT      O58054   1.347   4.777   2.235
19271WAT     H158055   1.380   4.768   2.329
19271WAT     H258056   1.382   4.861   2.195
19272WAT      O58057   3.537   6.015   7.576
19272WAT     H158058   3.575   6.012   7.483
19272WAT     H258059   3.577   5.943   7.631
19273WAT      O58060   8.269   3.072   0.045
19273WAT     H158061   8.218   3.022   0.115
19273WAT     H258062   8.238   3.167   0.043
19274WAT      O58063   3.887   8.688   4.447
19274WAT     H158064   3.880   8.770   4.504
19274WAT     H258065   3.816   8.623   4.473
19275WAT      O58066   0.485   1.009   4.513
19275WAT     H158067   0.503   1.058   4.427
19275WAT     H258068   0.550   1.039   4.583
19276WAT      O58069   5.426   5.860   5.385
19276WAT     H158070   5.397   5.803   5.309
19276WAT     H258071   5.403   5.815   5.472
19277WAT      O58072   8.289   8.115   2.547
19277WAT     H158073   8.290   8.025   2.504
19277WAT     H258074   8.264   8.184   2.479
19278WAT      O58075   3.506   8.069   1.687
19278WAT     H158076   3.522   8.050   1.784
19278WAT     H258077   3.590   8.104   1.646
19279WAT      O58078   0.352   6.479   0.890
19279WAT     H158079   0.408   6.556   0.919
19279WAT     H258080   0.395   6.433   0.813
19280WAT      O58081   7.278   1.083   8.832
19280WAT     H158082   7.234   1.040   8.911
19280WAT     H258083   7.207   1.121   8.772
19281WAT      O58084   9.635   1.579   0.884
19281WAT     H158085   9.611   1.670   0.849
19281WAT     H258086   9.694   1.532   0.819
19282WAT      O58087   7.739   4.495   5.111
19282WAT     H158088   7.676   4.537   5.176
19282WAT     H258089   7.813   4.559   5.090
19283WAT      O58090   5.262   2.812   0.344
19283WAT     H158091   5.166   2.821   0.371
19283WAT     H258092   5.289   2.892   0.289
19284WAT      O58093   4.350   9.145   6.193
19284WAT     H158094   4.342   9.051   6.161
19284WAT     H258095   4.283   9.160   6.266
19285WAT      O58096   1.521   4.522   4.049
19285WAT     H158097   1.465   4.458   3.997
19285WAT     H258098   1.473   4.609   4.056
19286WAT      O58099   9.526   3.569   8.689
19286WAT     H158100   9.535   3.615   8.778
19286WAT     H258101   9.616   3.562   8.646
19287WAT      O58102   3.367   2.355   4.074
19287WAT     H158103   3.314   2.381   3.993
19287WAT     H258104   3.320   2.388   4.156
19288WAT      O58105   0.361   3.985   7.014
19288WAT     H158106   0.271   4.025   7.029
19288WAT     H258107   0.365   3.943   6.923
19289WAT      O58108   5.005   6.465   7.692
19289WAT     H158109   4.948   6.546   7.700
19289WAT     H258110   4.947   6.385   7.675
19290WAT      O58111   0.006   1.885   0.469
19290WAT     H158112  -0.051   1.837   0.402
19290WAT     H258113  -0.019   1.981   0.471
19291WAT      O58114   2.348   5.064   3.048
19291WAT     H158115   2.431   5.107   3.012
19291WAT     H258116   2.311   5.121   3.121
19292WAT      O58117   9.725   0.420   6.051
19292WAT     H158118   9.640   0.427   5.999
19292WAT     H258119   9.800   0.395   5.990
19293WAT      O58120   1.875   2.356   9.634
19293WAT     H158121   1.867   2.455   9.628
19293WAT     H258122   1.970   2.329   9.620
19294WAT      O58123   2.507   2.956   9.149
19294WAT     H158124   2.595   2.973   9.194
19294WAT     H258125   2.520   2.953   9.050
19295WAT      O58126   1.459   6.686   4.369
19295WAT     H158127   1.375   6.681   4.316
19295WAT     H258128   1.455   6.762   4.433
19296WAT      O58129   4.726   9.827   8.648
19296WAT     H158130   4.790   9.786   8.712
19296WAT     H258131   4.758   9.811   8.554
19297WAT      O58132   4.300   9.598   5.377
19297WAT     H158133   4.309   9.695   5.353
19297WAT     H258134   4.307   9.543   5.293
19298WAT      O58135   4.495   7.441   2.189
19298WAT     H158136   4.406   7.462   2.148
19298WAT     H258137   4.547   7.382   2.127
19299WAT      O58138   7.717   1.951   7.139
19299WAT     H158139   7.678   2.034   7.097
19299WAT     H258140   7.742   1.970   7.233
19300WAT      O58141   7.804   0.715   4.098
19300WAT     H158142   7.873   0.659   4.052
19300WAT     H258143   7.718   0.710   4.048
19301WAT      O58144   6.803   3.397   8.487
19301WAT     H158145   6.802   3.422   8.584
19301WAT     H258146   6.819   3.478   8.431
19302WAT      O58147   2.283   7.926   3.272
19302WAT     H158148   2.309   8.003   3.330
19302WAT     H258149   2.183   7.919   3.268
19303WAT      O58150   1.474   6.108   3.150
19303WAT     H158151   1.548   6.064   3.099
19303WAT     H258152   1.428   6.040   3.207
19304WAT      O58153   6.853   5.392   5.009
19304WAT     H158154   6.795   5.393   4.928
19304WAT     H258155   6.876   5.487   5.034
19305WAT      O58156   5.812   0.863   5.742
19305WAT     H158157   5.908   0.870   5.715
19305WAT     H258158   5.805   0.850   5.841
19306WAT      O58159   6.057   7.009   7.415
19306WAT     H158160   6.008   7.082   7.367
19306WAT     H258161   6.044   6.923   7.366
19307WAT      O58162   7.365   7.687   0.217
19307WAT     H158163   7.448   7.722   0.175
19307WAT     H258164   7.363   7.587   0.210
19308WAT      O58165   5.475   8.138   3.891
19308WAT     H158166   5.495   8.049   3.850
19308WAT     H258167   5.377   8.147   3.904
19309WAT      O58168   1.972   6.687   8.635
19309WAT     H158169   1.940   6.601   8.673
19309WAT     H258170   1.928   6.763   8.683
19310WAT      O58171   8.398   9.179   2.799
19310WAT     H158172   8.485   9.179   2.750
19310WAT     H258173   8.412   9.146   2.892
19311WAT      O58174   2.556   8.908   4.821
19311WAT     H158175   2.551   8.907   4.920
19311WAT     H258176   2.463   8.912   4.783
19312WAT      O58177   6.887   1.794   4.240
19312WAT     H158178   6.788   1.786   4.229
19312WAT     H258179   6.924   1.708   4.273
19313WAT      O58180   8.490   7.419   9.800
19313WAT     H158181   8.502   7.330   9.844
19313WAT     H258182   8.506   7.411   9.702
19314WAT      O58183   7.137   7.575   9.170
19314WAT     H158184   7.184   7.526   9.096
19314WAT     H258185   7.146   7.523   9.255
19315WAT      O58186   1.608   3.430   2.856
19315WAT     H158187   1.624   3.502   2.923
19315WAT     H258188   1.564   3.469   2.775
19316WAT      O58189   2.063   0.164   0.924
19316WAT     H158190   2.060   0.238   0.857
19316WAT     H258191   2.011   0.191   1.005
19317WAT      O58192   5.537   9.802   4.419
19317WAT     H158193   5.450   9.789   4.372
19317WAT     H258194   5.537   9.891   4.466
19318WAT      O58195   6.630   6.350   0.417
19318WAT     H158196   6.560   6.298   0.369
19318WAT     H258197   6.618   6.447   0.397
19319WAT      O58198   5.658   4.654   3.944
19319WAT     H158199   5.599   4.639   3.865
19319WAT     H258200   5.708   4.570   3.965
19320WAT      O58201   4.521   0.114   1.043
19320WAT     H158202   4.525   0.195   0.985
19320WAT     H258203   4.600   0.113   1.104
19321WAT      O58204   4.926   2.217   9.482
19321WAT     H158205   4.971   2.232   9.570
19321WAT     H258206   4.834   2.180   9.497
19322WAT      O58207   5.019   6.982   4.879
19322WAT     H158208   5.057   7.074   4.887
19322WAT     H258209   5.075   6.917   4.931
19323WAT      O58210   6.478   2.939   1.914
19323WAT     H158211   6.382   2.951   1.889
19323WAT     H258212   6.484   2.904   2.008
19324WAT      O58213   7.080   5.670   2.961
19324WAT     H158214   7.113   5.737   2.895
19324WAT     H258215   7.124   5.687   3.050
19325WAT      O58216   6.816   3.865   1.156
19325WAT     H158217   6.733   3.844   1.209
19325WAT     H258218   6.844   3.959   1.176
19326WAT      O58219   3.878   2.451   5.945
19326WAT     H158220   3.811   2.377   5.950
19326WAT     H258221   3.886   2.481   5.850
19327WAT      O58222   5.022   2.875   3.808
19327WAT     H158223   5.008   2.900   3.712
19327WAT     H258224   5.111   2.909   3.838
19328WAT      O58225   4.081   7.048   4.938
19328WAT     H158226   4.159   7.098   4.975
19328WAT     H258227   4.094   6.950   4.954
19329WAT      O58228   2.866   1.798   1.125
19329WAT     H158229   2.936   1.773   1.058
19329WAT     H258230   2.846   1.720   1.183
19330WAT      O58231   0.872   3.913   1.778
19330WAT     H158232   0.950   3.851   1.779
19330WAT     H258233   0.855   3.944   1.684
19331WAT      O58234   8.645   3.840   3.243
19331WAT     H158235   8.673   3.930   3.210
19331WAT     H258236   8.702   3.814   3.321
19332WAT      O58237   6.181   0.063   4.721
19332WAT     H158238   6.110   0.024   4.780
19332WAT     H258239   6.146   0.070   4.628
19333WAT      O58240   8.953   6.814   9.079
19333WAT     H158241   9.025   6.864   9.031
19333WAT     H258242   8.877   6.797   9.017
19334WAT      O58243   7.001   6.081   1.989
19334WAT     H158244   6.994   6.134   2.073
19334WAT     H258245   7.036   6.139   1.915
19335WAT      O58246   6.559   1.309   8.561
19335WAT     H158247   6.492   1.255   8.612
19335WAT     H258248   6.645   1.312   8.611
19336WAT      O58249   5.440   6.490   4.842
19336WAT     H158250   5.530   6.520   4.810
19336WAT     H258251   5.418   6.402   4.801
19337WAT      O58252   4.677   1.076   2.287
19337WAT     H158253   4.682   1.150   2.221
19337WAT     H258254   4.728   1.100   2.369
19338WAT      O58255   3.012   0.970   3.088
19338WAT     H158256   3.110   0.972   3.066
19338WAT     H258257   2.992   1.038   3.158
19339WAT      O58258   6.650   6.007   3.948
19339WAT     H158259   6.726   5.964   3.899
19339WAT     H258260   6.673   6.014   4.045
19340WAT      O58261   9.278   1.589   5.859
19340WAT     H158262   9.262   1.593   5.957
19340WAT     H258263   9.219   1.519   5.818
19341WAT      O58264   7.879   2.880   5.368
19341WAT     H158265   7.794   2.932   5.375
19341WAT     H258266   7.935   2.918   5.294
19342WAT      O58267   5.525   0.573   6.050
19342WAT     H158268   5.466   0.599   5.974
19342WAT     H258269   5.531   0.649   6.115
19343WAT      O58270   7.065   5.831   8.601
19343WAT     H158271   6.996   5.845   8.671
19343WAT     H258272   7.140   5.896   8.612
19344WAT      O58273   4.335   4.446   2.980
19344WAT     H158274   4.370   4.378   3.044
19344WAT     H258275   4.262   4.406   2.925
19345WAT      O58276   6.861   1.427   3.453
19345WAT     H158277   6.844   1.421   3.354
19345WAT     H258278   6.848   1.337   3.494
19346WAT      O58279   1.351   8.802   7.187
19346WAT     H158280   1.411   8.876   7.218
19346WAT     H258281   1.266   8.841   7.151
19347WAT      O58282   4.633   8.886   6.029
19347WAT     H158283   4.717   8.834   6.044
19347WAT     H258284   4.651   8.961   5.965
19348WAT      O58285   9.747   8.406   8.666
19348WAT     H158286   9.805   8.481   8.698
19348WAT     H258287   9.781   8.373   8.578
19349WAT      O58288   6.919   3.841   4.566
19349WAT     H158289   6.866   3.871   4.486
19349WAT     H258290   6.915   3.742   4.572
19350WAT      O58291   8.407   4.579   8.316
19350WAT     H158292   8.421   4.587   8.217
19350WAT     H258293   8.485   4.533   8.358
19351WAT      O58294   0.465   8.170   7.559
19351WAT     H158295   0.413   8.253   7.537
19351WAT     H258296   0.406   8.107   7.609
19352WAT      O58297   3.854   8.933   4.560
19352WAT     H158298   3.901   8.916   4.646
19352WAT     H258299   3.911   8.990   4.501
19353WAT      O58300   0.390   5.726   3.843
19353WAT     H158301   0.466   5.665   3.864
19353WAT     H258302   0.377   5.730   3.743
19354WAT      O58303   3.371   8.551   1.878
19354WAT     H158304   3.391   8.460   1.915
19354WAT     H258305   3.311   8.542   1.799
19355WAT      O58306   4.042   7.718   7.967
19355WAT     H158307   3.980   7.767   7.905
19355WAT     H258308   4.136   7.745   7.947
19356WAT      O58309   8.961   4.955   0.552
19356WAT     H158310   8.870   4.958   0.511
19356WAT     H258311   9.013   4.879   0.512
19357WAT      O58312   6.932   4.515   2.638
19357WAT     H158313   6.971   4.574   2.708
19357WAT     H258314   6.936   4.560   2.549
19358WAT      O58315   6.482   8.607   1.264
19358WAT     H158316   6.525   8.590   1.175
19358WAT     H258317   6.541   8.569   1.336
19359WAT      O58318   2.867   2.515   1.093
19359WAT     H158319   2.805   2.537   1.167
19359WAT     H258320   2.818   2.518   1.006
19360WAT      O58321   6.985   6.640   3.853
19360WAT     H158322   6.910   6.683   3.803
19360WAT     H258323   7.057   6.614   3.789
19361WAT      O58324   3.985   9.448   5.324
19361WAT     H158325   4.076   9.470   5.288
19361WAT     H258326   3.981   9.469   5.422
19362WAT      O58327   3.612   4.842   6.967
19362WAT     H158328   3.517   4.861   6.942
19362WAT     H258329   3.666   4.828   6.883
19363WAT      O58330   2.096   1.793   4.712
19363WAT     H158331   2.020   1.774   4.649
19363WAT     H258332   2.143   1.708   4.735
19364WAT      O58333   6.573   7.715   2.575
19364WAT     H158334   6.667   7.713   2.609
19364WAT     H258335   6.524   7.791   2.618
19365WAT      O58336   5.102   0.750   9.409
19365WAT     H158337   5.122   0.652   9.401
19365WAT     H258338   5.003   0.763   9.408
19366WAT      O58339   8.573   2.580   9.808
19366WAT     H158340   8.485   2.577   9.856
19366WAT     H258341   8.568   2.525   9.724
19367WAT      O58342   6.624   8.868   4.942
19367WAT     H158343   6.703   8.914   4.983
19367WAT     H258344   6.655   8.787   4.893
19368WAT      O58345   4.140   1.746   8.158
19368WAT     H158346   4.047   1.725   8.125
19368WAT     H258347   4.143   1.731   8.257
19369WAT      O58348   1.852   3.110   4.833
19369WAT     H158349   1.828   3.181   4.899
19369WAT     H258350   1.801   3.026   4.853
19370WAT      O58351   3.305   1.507   1.331
19370WAT     H158352   3.267   1.588   1.375
19370WAT     H258353   3.254   1.487   1.248
19371WAT      O58354   3.113   5.881   9.239
19371WAT     H158355   3.042   5.888   9.169
19371WAT     H258356   3.197   5.846   9.198
19372WAT      O58357   9.307   0.543   8.108
19372WAT     H158358   9.400   0.578   8.092
19372WAT     H258359   9.251   0.615   8.149
19373WAT      O58360   5.814   1.898   9.085
19373WAT     H158361   5.753   1.908   9.164
19373WAT     H258362   5.903   1.938   9.107
19374WAT      O58363   8.821   2.360   8.927
19374WAT     H158364   8.841   2.423   9.002
19374WAT     H258365   8.757   2.290   8.958
19375WAT      O58366   5.278   8.383   9.485
19375WAT     H158367   5.239   8.475   9.496
19375WAT     H258368   5.375   8.386   9.507
19376WAT      O58369   3.581   3.502   4.134
19376WAT     H158370   3.504   3.540   4.185
19376WAT     H258371   3.558   3.496   4.037
19377WAT      O58372   6.078   2.701   6.952
19377WAT     H158373   6.064   2.738   6.860
19377WAT     H258374   6.151   2.632   6.949
19378WAT      O58375   1.905   1.890   5.850
19378WAT     H158376   1.959   1.860   5.772
19378WAT     H258377   1.932   1.839   5.932
19379WAT      O58378   0.645   7.842   8.502
19379WAT     H158379   0.707   7.776   8.460
19379WAT     H258380   0.579   7.873   8.435
19380WAT      O58381   7.369   8.461   2.775
19380WAT     H158382   7.465   8.475   2.749
19380WAT     H258383   7.364   8.433   2.871
19381WAT      O58384   2.800   7.933   4.977
19381WAT     H158385   2.881   7.900   4.929
19381WAT     H258386   2.810   8.031   4.995
19382WAT      O58387   4.856   3.015   1.029
19382WAT     H158388   4.915   3.020   1.110
19382WAT     H258389   4.810   2.926   1.027
19383WAT      O58390   8.232   7.934   8.513
19383WAT     H158391   8.173   7.922   8.593
19383WAT     H258392   8.327   7.920   8.539
19384WAT      O58393   2.430   2.803   8.661
19384WAT     H158394   2.504   2.758   8.612
19384WAT     H258395   2.445   2.793   8.760
19385WAT      O58396   3.233   0.935   0.726
19385WAT     H158397   3.283   1.021   0.712
19385WAT     H258398   3.214   0.923   0.823
19386WAT      O58399   6.954   8.858   8.113
19386WAT     H158400   6.907   8.863   8.201
19386WAT     H258401   7.003   8.943   8.096
19387WAT      O58402   1.669   8.505   1.761
19387WAT     H158403   1.609   8.560   1.704
19387WAT     H258404   1.628   8.493   1.851
19388WAT      O58405   5.301   7.947   7.283
19388WAT     H158406   5.309   7.884   7.206
19388WAT     H258407   5.205   7.971   7.298
19389WAT      O58408   4.216   7.183   0.726
19389WAT     H158409   4.153   7.204   0.652
19389WAT     H258410   4.252   7.090   0.714
19390WAT      O58411   8.555   2.355   1.965
19390WAT     H158412   8.614   2.395   1.895
19390WAT     H258413   8.566   2.256   1.965
19391WAT      O58414   2.878   8.181   2.849
19391WAT     H158415   2.966   8.201   2.806
19391WAT     H258416   2.831   8.266   2.871
19392WAT      O58417   8.449   9.786   0.148
19392WAT     H158418   8.517   9.749   0.212
19392WAT     H258419   8.373   9.825   0.199
19393WAT      O58420   9.786   0.690   5.833
19393WAT     H158421   9.759   0.780   5.868
19393WAT     H258422   9.880   0.670   5.860
19394WAT      O58423   0.212   0.563   7.517
19394WAT     H158424   0.288   0.534   7.458
19394WAT     H258425   0.131   0.581   7.461
19395WAT      O58426   0.435   7.749   3.453
19395WAT     H158427   0.410   7.790   3.540
19395WAT     H258428   0.519   7.696   3.464
19396WAT      O58429   2.180   6.210   1.791
19396WAT     H158430   2.259   6.165   1.748
19396WAT     H258431   2.197   6.308   1.795
19397WAT      O58432   5.601   1.080   9.387
19397WAT     H158433   5.564   1.026   9.311
19397WAT     H258434   5.526   1.105   9.449
19398WAT      O58435   7.430   7.291   1.158
19398WAT     H158436   7.349   7.282   1.100
19398WAT     H258437   7.411   7.250   1.248
19399WAT      O58438   9.762   9.049   0.244
19399WAT     H158439   9.678   9.059   0.298
19399WAT     H258440   9.840   9.080   0.298
19400WAT      O58441   4.959   7.147   9.298
19400WAT     H158442   5.029   7.194   9.244
19400WAT     H258443   4.876   7.135   9.242
19401WAT      O58444   1.381   2.252   1.065
19401WAT     H158445   1.368   2.346   1.097
19401WAT     H258446   1.358   2.247   0.968
19402WAT      O58447   2.066   5.286   9.577
19402WAT     H158448   1.982   5.248   9.615
19402WAT     H258449   2.141   5.220   9.585
19403WAT      O58450   1.507   7.990   1.271
19403WAT     H158451   1.459   7.904   1.284
19403WAT     H258452   1.443   8.066   1.283
19404WAT      O58453   5.267   8.099   9.091
19404WAT     H158454   5.352   8.081   9.041
19404WAT     H258455   5.289   8.135   9.182
19405WAT      O58456   4.642   1.920   3.030
19405WAT     H158457   4.667   1.997   2.971
19405WAT     H258458   4.542   1.910   3.030
19406WAT      O58459   4.918   9.338   5.914
19406WAT     H158460   4.966   9.299   5.992
19406WAT     H258461   4.832   9.289   5.901
19407WAT      O58462   7.674   3.065   3.666
19407WAT     H158463   7.678   2.990   3.600
19407WAT     H258464   7.693   3.151   3.618
19408WAT      O58465   9.401   6.715   1.260
19408WAT     H158466   9.317   6.769   1.266
19408WAT     H258467   9.433   6.714   1.165
19409WAT      O58468   5.195   8.657   5.790
19409WAT     H158469   5.121   8.706   5.744
19409WAT     H258470   5.275   8.716   5.796
19410WAT      O58471   2.012   8.299   1.699
19410WAT     H158472   1.968   8.231   1.641
19410WAT     H258473   1.989   8.391   1.665
19411WAT      O58474   5.228   0.794   4.806
19411WAT     H158475   5.306   0.831   4.855
19411WAT     H258476   5.207   0.702   4.840
19412WAT      O58477   0.960   5.166   0.790
19412WAT     H158478   1.053   5.200   0.776
19412WAT     H258479   0.896   5.222   0.738
19413WAT      O58480   5.454   1.376   8.356
19413WAT     H158481   5.445   1.391   8.454
19413WAT     H258482   5.369   1.400   8.310
19414WAT      O58483   9.712   4.957   4.231
19414WAT     H158484   9.707   5.026   4.302
19414WAT     H258485   9.633   4.966   4.170
19415WAT      O58486   1.875   0.369   5.775
19415WAT     H158487   1.819   0.373   5.692
19415WAT     H258488   1.820   0.334   5.851
19416WAT      O58489   5.297   3.203   1.886
19416WAT     H158490   5.252   3.136   1.945
19416WAT     H258491   5.375   3.243   1.935
19417WAT      O58492   0.434   0.879   1.630
19417WAT     H158493   0.349   0.835   1.602
19417WAT     H258494   0.413   0.963   1.681
19418WAT      O58495   1.306   5.004   6.432
19418WAT     H158496   1.349   5.094   6.440
19418WAT     H258497   1.322   4.952   6.515
19419WAT      O58498   5.532   1.793   7.893
19419WAT     H158499   5.457   1.737   7.927
19419WAT     H258500   5.572   1.751   7.812
19420WAT      O58501   6.422   3.787   0.867
19420WAT     H158502   6.516   3.810   0.892
19420WAT     H258503   6.423   3.720   0.793
19421WAT      O58504   0.879   4.769   8.217
19421WAT     H158505   0.814   4.836   8.179
19421WAT     H258506   0.860   4.757   8.314
19422WAT      O58507   8.669   6.671   5.568
19422WAT     H158508   8.632   6.677   5.475
19422WAT     H258509   8.706   6.579   5.582
19423WAT      O58510   4.187   9.801   8.226
19423WAT     H158511   4.200   9.890   8.271
19423WAT     H258512   4.128   9.743   8.282
19424WAT      O58513   6.737   6.360   8.540
19424WAT     H158514   6.713   6.266   8.565
19424WAT     H258515   6.781   6.360   8.450
19425WAT      O58516   3.481   9.292   8.069
19425WAT     H158517   3.525   9.215   8.023
19425WAT     H258518   3.428   9.259   8.147
19426WAT      O58519   0.337   9.649   4.818
19426WAT     H158520   0.377   9.561   4.843
19426WAT     H258521   0.247   9.657   4.861
19427WAT      O58522   6.548   7.279   8.274
19427WAT     H158523   6.472   7.238   8.225
19427WAT     H258524   6.609   7.207   8.308
19428WAT      O58525   7.081   2.230   6.267
19428WAT     H158526   7.179   2.239   6.284
19428WAT     H258527   7.033   2.310   6.304
19429WAT      O58528   8.229   9.066   9.203
19429WAT     H158529   8.162   9.117   9.148
19429WAT     H258530   8.189   8.979   9.233
19430WAT      O58531   6.421   7.823   4.566
19430WAT     H158532   6.487   7.883   4.611
19430WAT     H258533   6.337   7.821   4.620
19431WAT      O58534   6.311   4.312   5.500
19431WAT     H158535   6.378   4.296   5.427
19431WAT     H258536   6.340   4.390   5.556
19432WAT      O58537   2.452   1.979   7.316
19432WAT     H158538   2.410   1.891   7.296
19432WAT     H258539   2.464   2.031   7.232
19433WAT      O58540   8.627   3.707   5.300
19433WAT     H158541   8.565   3.749   5.234
19433WAT     H258542   8.715   3.689   5.256
19434WAT      O58543   7.091   7.968   7.061
19434WAT     H158544   7.029   8.017   7.000
19434WAT     H258545   7.140   8.034   7.118
19435WAT      O58546   8.490   7.154   3.290
19435WAT     H158547   8.400   7.147   3.248
19435WAT     H258548   8.503   7.078   3.354
19436WAT      O58549   3.377   2.048   1.047
19436WAT     H158550   3.325   1.965   1.066
19436WAT     H258551   3.432   2.035   0.965
19437WAT      O58552   9.073   5.018   8.693
19437WAT     H158553   9.036   4.929   8.720
19437WAT     H258554   9.087   5.075   8.774
19438WAT      O58555   9.523   8.210   1.815
19438WAT     H158556   9.517   8.128   1.757
19438WAT     H258557   9.598   8.198   1.880
19439WAT      O58558   7.737   4.800   5.383
19439WAT     H158559   7.695   4.810   5.293
19439WAT     H258560   7.777   4.709   5.392
19440WAT      O58561   3.917   4.139   6.185
19440WAT     H158562   3.856   4.211   6.153
19440WAT     H258563   3.968   4.172   6.265
19441WAT      O58564   0.419   8.116   1.051
19441WAT     H158565   0.375   8.203   1.031
19441WAT     H258566   0.412   8.056   0.972
19442WAT      O58567   9.277   7.756   9.453
19442WAT     H158568   9.234   7.787   9.369
19442WAT     H258569   9.251   7.661   9.471
19443WAT      O58570   0.743   4.689   2.402
19443WAT     H158571   0.825   4.747   2.409
19443WAT     H258572   0.762   4.611   2.342
19444WAT      O58573   9.430   3.189   3.672
19444WAT     H158574   9.398   3.206   3.765
19444WAT     H258575   9.356   3.149   3.618
19445WAT      O58576   9.509   9.451   0.088
19445WAT     H158577   9.520   9.449   0.187
19445WAT     H258578   9.458   9.533   0.062
19446WAT      O58579   5.351   8.392   4.585
19446WAT     H158580   5.412   8.409   4.508
19446WAT     H258581   5.302   8.306   4.570
19447WAT      O58582   2.399   4.941   6.950
19447WAT     H158583   2.445   5.024   6.918
19447WAT     H258584   2.357   4.958   7.039
19448WAT      O58585   9.377   0.691   3.281
19448WAT     H158586   9.342   0.602   3.253
19448WAT     H258587   9.305   0.760   3.271
19449WAT      O58588   9.403   9.831   1.953
19449WAT     H158589   9.477   9.790   1.900
19449WAT     H258590   9.374   9.917   1.910
19450WAT      O58591   3.655   7.689   1.588
19450WAT     H158592   3.656   7.601   1.636
19450WAT     H258593   3.576   7.694   1.528
19451WAT      O58594   3.200   1.632   6.268
19451WAT     H158595   3.116   1.614   6.318
19451WAT     H258596   3.252   1.704   6.315
19452WAT      O58597   7.437   2.302   5.499
19452WAT     H158598   7.408   2.211   5.528
19452WAT     H258599   7.502   2.339   5.565
19453WAT      O58600   4.073   6.168   7.133
19453WAT     H158601   4.017   6.179   7.050
19453WAT     H258602   4.148   6.234   7.132
19454WAT      O58603   2.338   7.145   2.002
19454WAT     H158604   2.399   7.127   2.080
19454WAT     H258605   2.291   7.232   2.016
19455WAT      O58606   7.591   2.807   7.816
19455WAT     H158607   7.613   2.714   7.846
19455WAT     H258608   7.556   2.805   7.723
19456WAT      O58609   8.039   2.749   8.499
19456WAT     H158610   8.079   2.672   8.449
19456WAT     H258611   7.942   2.730   8.517
19457WAT      O58612   6.451   0.634   2.259
19457WAT     H158613   6.387   0.673   2.192
19457WAT     H258614   6.400   0.606   2.341
19458WAT      O58615   7.002   1.638   8.333
19458WAT     H158616   6.918   1.668   8.380
19458WAT     H258617   6.980   1.614   8.239
19459WAT      O58618   8.181   6.627   5.208
19459WAT     H158619   8.198   6.564   5.133
19459WAT     H258620   8.245   6.608   5.283
19460WAT      O58621   6.181   5.950   8.358
19460WAT     H158622   6.089   5.979   8.384
19460WAT     H258623   6.184   5.850   8.350
19461WAT      O58624   3.333   2.815   1.684
19461WAT     H158625   3.348   2.844   1.779
19461WAT     H258626   3.370   2.723   1.671
19462WAT      O58627   7.340   9.122   5.091
19462WAT     H158628   7.347   9.203   5.033
19462WAT     H258629   7.412   9.124   5.161
19463WAT      O58630   1.057   2.685   7.491
19463WAT     H158631   1.113   2.663   7.411
19463WAT     H258632   1.086   2.773   7.529
19464WAT      O58633   2.659   8.667   7.116
19464WAT     H158634   2.635   8.660   7.019
19464WAT     H258635   2.753   8.698   7.125
19465WAT      O58636   5.333   8.797   0.560
19465WAT     H158637   5.266   8.731   0.594
19465WAT     H258638   5.425   8.761   0.574
19466WAT      O58639   8.623   5.090   6.370
19466WAT     H158640   8.634   5.178   6.323
19466WAT     H258641   8.563   5.031   6.317
19467WAT      O58642   0.302   9.291   1.729
19467WAT     H158643   0.357   9.350   1.669
19467WAT     H258644   0.216   9.269   1.684
19468WAT      O58645   2.683   3.953   9.016
19468WAT     H158646   2.657   3.906   9.101
19468WAT     H258647   2.638   3.910   8.938
19469WAT      O58648   6.312   2.884   0.086
19469WAT     H158649   6.334   2.980   0.071
19469WAT     H258650   6.389   2.827   0.059
19470WAT      O58651   3.382   1.500   4.984
19470WAT     H158652   3.465   1.501   5.041
19470WAT     H258653   3.331   1.416   5.001
19471WAT      O58654   8.335   6.344   0.837
19471WAT     H158655   8.357   6.250   0.864
19471WAT     H258656   8.363   6.359   0.742
19472WAT      O58657   5.084   1.192   8.439
19472WAT     H158658   5.091   1.214   8.536
19472WAT     H258659   5.025   1.113   8.427
19473WAT      O58660   7.654   0.929   3.836
19473WAT     H158661   7.753   0.925   3.851
19473WAT     H258662   7.613   0.841   3.861
19474WAT      O58663   2.021   1.459   9.894
19474WAT     H158664   1.963   1.509   9.830
19474WAT     H258665   2.085   1.402   9.843
19475WAT      O58666   3.601   4.709   4.752
19475WAT     H158667   3.565   4.725   4.844
19475WAT     H258668   3.630   4.797   4.713
19476WAT      O58669   4.061   8.336   8.530
19476WAT     H158670   4.028   8.315   8.438
19476WAT     H258671   3.984   8.335   8.594
19477WAT      O58672   8.282   5.680   5.200
19477WAT     H158673   8.223   5.754   5.168
19477WAT     H258674   8.229   5.595   5.203
19478WAT      O58675   8.029   7.464   5.965
19478WAT     H158676   7.932   7.463   5.988
19478WAT     H258677   8.059   7.558   5.946
19479WAT      O58678   7.457   6.474   7.975
19479WAT     H158679   7.490   6.384   8.003
19479WAT     H258680   7.469   6.485   7.876
19480WAT      O58681   2.454   9.203   7.212
19480WAT     H158682   2.526   9.253   7.163
19480WAT     H258683   2.485   9.109   7.230
19481WAT      O58684   4.496   5.795   1.614
19481WAT     H158685   4.496   5.827   1.519
19481WAT     H258686   4.481   5.696   1.616
19482WAT      O58687   2.621   4.682   3.983
19482WAT     H158688   2.691   4.752   3.972
19482WAT     H258689   2.554   4.690   3.909
19483WAT      O58690   5.775   5.096   9.263
19483WAT     H158691   5.841   5.063   9.330
19483WAT     H258692   5.755   5.193   9.282
19484WAT      O58693   2.864   4.034   0.137
19484WAT     H158694   2.828   3.948   0.172
19484WAT     H258695   2.816   4.110   0.181
19485WAT      O58696   3.536   3.371   3.559
19485WAT     H158697   3.540   3.320   3.645
19485WAT     H258698   3.441   3.395   3.538
19486WAT      O58699   0.817   6.286   8.834
19486WAT     H158700   0.895   6.253   8.782
19486WAT     H258701   0.799   6.225   8.911
19487WAT      O58702   2.722   3.490   3.458
19487WAT     H158703   2.643   3.459   3.511
19487WAT     H258704   2.775   3.411   3.427
19488WAT      O58705   2.166   8.736   0.777
19488WAT     H158706   2.088   8.798   0.787
19488WAT     H258707   2.169   8.701   0.683
19489WAT      O58708   6.971   2.611   2.081
19489WAT     H158709   7.014   2.522   2.068
19489WAT     H258710   6.904   2.626   2.009
19490WAT      O58711   0.376   4.273   6.498
19490WAT     H158712   0.313   4.338   6.456
19490WAT     H258713   0.393   4.299   6.593
19491WAT      O58714   9.680   0.235   1.769
19491WAT     H158715   9.704   0.306   1.834
19491WAT     H258716   9.682   0.146   1.814
19492WAT      O58717   5.589   8.448   7.656
19492WAT     H158718   5.652   8.470   7.582
19492WAT     H258719   5.586   8.348   7.668
19493WAT      O58720   1.530   0.842   0.587
19493WAT     H158721   1.448   0.785   0.573
19493WAT     H258722   1.578   0.852   0.500
19494WAT      O58723   1.722   7.954   0.209
19494WAT     H158724   1.819   7.947   0.229
19494WAT     H258725   1.669   7.955   0.294
19495WAT      O58726   0.080   3.277   7.962
19495WAT     H158727   0.178   3.289   7.948
19495WAT     H258728   0.034   3.267   7.874
19496WAT      O58729   7.405   0.557   2.661
19496WAT     H158730   7.354   0.628   2.612
19496WAT     H258731   7.479   0.522   2.602
19497WAT      O58732   4.563   9.382   9.093
19497WAT     H158733   4.491   9.321   9.060
19497WAT     H258734   4.634   9.327   9.138
19498WAT      O58735   9.577   6.389   7.383
19498WAT     H158736   9.496   6.415   7.330
19498WAT     H258737   9.556   6.308   7.439
19499WAT      O58738   3.442   7.246   3.811
19499WAT     H158739   3.486   7.162   3.780
19499WAT     H258740   3.473   7.323   3.756
19500WAT      O58741   8.390   6.936   6.890
19500WAT     H158742   8.367   6.915   6.985
19500WAT     H258743   8.487   6.921   6.874
19501WAT      O58744   7.978   0.718   1.177
19501WAT     H158745   8.056   0.702   1.238
19501WAT     H258746   8.011   0.754   1.090
19502WAT      O58747   9.205   8.955   8.897
19502WAT     H158748   9.260   9.021   8.846
19502WAT     H258749   9.151   8.899   8.834
19503WAT      O58750   4.525   6.559   0.452
19503WAT     H158751   4.613   6.550   0.497
19503WAT     H258752   4.521   6.498   0.373
19504WAT      O58753   5.355   0.030   1.144
19504WAT     H158754   5.286   0.082   1.093
19504WAT     H258755   5.340   0.042   1.242
19505WAT      O58756   2.804   0.637   3.413
19505WAT     H158757   2.751   0.675   3.488
19505WAT     H258758   2.745   0.624   3.333
19506WAT      O58759   6.520   1.731   8.563
19506WAT     H158760   6.475   1.667   8.626
19506WAT     H258761   6.472   1.730   8.475
19507WAT      O58762   9.414   0.180   1.103
19507WAT     H158763   9.379   0.101   1.153
19507WAT     H258764   9.357   0.260   1.121
19508WAT      O58765   1.847   6.136   0.760
19508WAT     H158766   1.943   6.133   0.732
19508WAT     H258767   1.831   6.067   0.831
19509WAT      O58768   5.097   7.918   4.796
19509WAT     H158769   5.003   7.923   4.831
19509WAT     H258770   5.158   7.969   4.857
19510WAT      O58771   6.763   5.748   8.057
19510WAT     H158772   6.729   5.653   8.056
19510WAT     H258773   6.845   5.753   8.113
19511WAT      O58774   7.385   1.159   0.268
19511WAT     H158775   7.375   1.101   0.187
19511WAT     H258776   7.295   1.188   0.299
19512WAT      O58777   4.683   7.741   1.715
19512WAT     H158778   4.750   7.675   1.683
19512WAT     H258779   4.731   7.821   1.752
19513WAT      O58780   6.521   5.783   7.079
19513WAT     H158781   6.549   5.690   7.102
19513WAT     H258782   6.544   5.845   7.155
19514WAT      O58783   5.500   7.426   6.026
19514WAT     H158784   5.517   7.361   6.099
19514WAT     H258785   5.450   7.381   5.952
19515WAT      O58786   1.525   2.611   0.716
19515WAT     H158787   1.611   2.618   0.767
19515WAT     H258788   1.493   2.516   0.718
19516WAT      O58789   7.098   8.128   8.666
19516WAT     H158790   7.015   8.147   8.614
19516WAT     H258791   7.170   8.192   8.640
19517WAT      O58792   8.371   0.815   4.361
19517WAT     H158793   8.467   0.787   4.369
19517WAT     H258794   8.365   0.902   4.311
19518WAT      O58795   0.690   3.909   8.250
19518WAT     H158796   0.775   3.951   8.217
19518WAT     H258797   0.642   3.974   8.309
19519WAT      O58798   7.659   2.602   6.192
19519WAT     H158799   7.701   2.634   6.277
19519WAT     H258800   7.612   2.516   6.209
19520WAT      O58801   5.856   5.932   6.169
19520WAT     H158802   5.809   5.993   6.106
19520WAT     H258803   5.863   5.841   6.130
19521WAT      O58804   6.540   8.056   6.018
19521WAT     H158805   6.610   8.041   6.088
19521WAT     H258806   6.564   8.136   5.963
19522WAT      O58807   8.925   0.301   6.169
19522WAT     H158808   8.834   0.309   6.209
19522WAT     H258809   8.991   0.350   6.226
19523WAT      O58810   7.535   9.137   6.705
19523WAT     H158811   7.517   9.220   6.759
19523WAT     H258812   7.493   9.058   6.749
19524WAT      O58813   6.862   0.577   0.095
19524WAT     H158814   6.809   0.497   0.067
19524WAT     H258815   6.917   0.610   0.019
19525WAT      O58816   4.262   5.770   7.836
19525WAT     H158817   4.332   5.726   7.893
19525WAT     H258818   4.182   5.791   7.891
19526WAT      O58819   8.832   3.951   1.157
19526WAT     H158820   8.812   3.875   1.096
19526WAT     H258821   8.760   3.959   1.226
19527WAT      O58822   4.970   3.679   7.853
19527WAT     H158823   5.064   3.693   7.822
19527WAT     H258824   4.914   3.757   7.826
19528WAT      O58825   0.473   3.014   1.597
19528WAT     H158826   0.483   3.102   1.551
19528WAT     H258827   0.559   2.991   1.643
19529WAT      O58828   0.231   2.787   6.000
19529WAT     H158829   0.172   2.745   6.069
19529WAT     H258830   0.176   2.820   5.924
19530WAT      O58831   7.198   5.655   4.886
19530WAT     H158832   7.235   5.569   4.920
19530WAT     H258833   7.103   5.642   4.857
19531WAT      O58834   9.777   6.437   5.351
19531WAT     H158835   9.680   6.454   5.367
19531WAT     H258836   9.805   6.479   5.265
19532WAT      O58837   8.194   3.772   5.613
19532WAT     H158838   8.228   3.852   5.663
19532WAT     H258839   8.228   3.774   5.519
19533WAT      O58840   9.732   9.104   5.972
19533WAT     H158841   9.669   9.026   5.972
19533WAT     H258842   9.798   9.093   5.898
19534WAT      O58843   7.893   0.759   6.228
19534WAT     H158844   7.978   0.705   6.223
19534WAT     H258845   7.850   0.760   6.137
19535WAT      O58846   4.318   2.738   0.213
19535WAT     H158847   4.347   2.831   0.238
19535WAT     H258848   4.398   2.683   0.190
19536WAT      O58849   5.628   6.995   9.661
19536WAT     H158850   5.537   7.035   9.649
19536WAT     H258851   5.632   6.949   9.750
19537WAT      O58852   7.347   2.924   2.266
19537WAT     H158853   7.381   2.998   2.208
19537WAT     H258854   7.357   2.837   2.218
19538WAT      O58855   8.264   4.903   2.602
19538WAT     H158856   8.320   4.979   2.570
19538WAT     H258857   8.288   4.881   2.697
19539WAT      O58858   9.256   8.084   3.993
19539WAT     H158859   9.167   8.040   4.009
19539WAT     H258860   9.298   8.108   4.080
19540WAT      O58861   0.790   4.444   6.448
19540WAT     H158862   0.874   4.498   6.446
19540WAT     H258863   0.715   4.497   6.407
19541WAT      O58864   1.918   1.860   4.026
19541WAT     H158865   1.847   1.850   3.956
19541WAT     H258866   1.874   1.876   4.115
19542WAT      O58867   2.421   2.755   4.148
19542WAT     H158868   2.372   2.841   4.157
19542WAT     H258869   2.358   2.679   4.161
19543WAT      O58870   3.703   6.228   9.558
19543WAT     H158871   3.666   6.162   9.624
19543WAT     H258872   3.637   6.241   9.484
19544WAT      O58873   7.567   5.328   1.990
19544WAT     H158874   7.530   5.277   1.913
19544WAT     H258875   7.522   5.299   2.075
19545WAT      O58876   4.381   6.153   6.397
19545WAT     H158877   4.430   6.187   6.316
19545WAT     H258878   4.284   6.142   6.375
19546WAT      O58879   2.908   4.808   3.224
19546WAT     H158880   2.835   4.759   3.272
19546WAT     H258881   2.880   4.902   3.209
19547WAT      O58882   7.512   5.917   7.439
19547WAT     H158883   7.539   5.900   7.345
19547WAT     H258884   7.415   5.941   7.442
19548WAT      O58885   6.919   6.785   9.387
19548WAT     H158886   6.986   6.824   9.324
19548WAT     H258887   6.966   6.754   9.470
19549WAT      O58888   9.172   9.557   6.837
19549WAT     H158889   9.164   9.619   6.915
19549WAT     H258890   9.168   9.462   6.869
19550WAT      O58891   4.200   1.879   0.173
19550WAT     H158892   4.141   1.801   0.156
19550WAT     H258893   4.163   1.934   0.248
19551WAT      O58894   8.982   6.299   7.411
19551WAT     H158895   8.948   6.276   7.502
19551WAT     H258896   9.078   6.273   7.403
19552WAT      O58897   3.061   2.365   5.024
19552WAT     H158898   3.019   2.375   4.934
19552WAT     H258899   3.002   2.310   5.083
19553WAT      O58900   9.080   6.036   3.542
19553WAT     H158901   9.008   5.968   3.537
19553WAT     H258902   9.066   6.094   3.622
19554WAT      O58903   8.137   5.094   5.070
19554WAT     H158904   8.232   5.111   5.044
19554WAT     H258905   8.132   5.084   5.169
19555WAT      O58906   8.038   1.246   6.772
19555WAT     H158907   8.026   1.188   6.691
19555WAT     H258908   8.132   1.240   6.804
19556WAT      O58909   2.758   1.472   6.825
19556WAT     H158910   2.708   1.405   6.770
19556WAT     H258911   2.735   1.459   6.921
19557WAT      O58912   9.521   3.967   6.479
19557WAT     H158913   9.473   3.942   6.395
19557WAT     H258914   9.616   3.988   6.457
19558WAT      O58915   7.633   9.431   7.270
19558WAT     H158916   7.646   9.362   7.199
19558WAT     H258917   7.716   9.436   7.327
19559WAT      O58918   4.609   6.355   5.144
19559WAT     H158919   4.583   6.289   5.214
19559WAT     H258920   4.556   6.340   5.061
19560WAT      O58921   9.532   8.161   0.352
19560WAT     H158922   9.475   8.079   0.347
19560WAT     H258923   9.565   8.173   0.445
19561WAT      O58924   0.026   9.310   6.513
19561WAT     H158925   0.118   9.274   6.531
19561WAT     H258926   0.029   9.371   6.434
19562WAT      O58927   0.921   5.430   4.940
19562WAT     H158928   0.994   5.362   4.932
19562WAT     H258929   0.856   5.400   5.010
19563WAT      O58930   0.612   1.550   3.276
19563WAT     H158931   0.548   1.486   3.319
19563WAT     H258932   0.632   1.625   3.338
19564WAT      O58933   3.377   8.402   3.635
19564WAT     H158934   3.312   8.459   3.685
19564WAT     H258935   3.398   8.320   3.689
19565WAT      O58936   7.405   9.572   0.388
19565WAT     H158937   7.321   9.595   0.339
19565WAT     H258938   7.402   9.476   0.415
19566WAT      O58939   4.270   0.617   7.476
19566WAT     H158940   4.341   0.558   7.514
19566WAT     H258941   4.307   0.708   7.458
19567WAT      O58942   2.933   0.587   5.763
19567WAT     H158943   2.872   0.632   5.698
19567WAT     H258944   2.879   0.527   5.823
19568WAT      O58945   1.726   7.720   2.803
19568WAT     H158946   1.769   7.632   2.784
19568WAT     H258947   1.626   7.710   2.800
19569WAT      O58948   1.228   8.495   4.787
19569WAT     H158949   1.214   8.594   4.792
19569WAT     H258950   1.306   8.475   4.728
19570WAT      O58951   6.714   8.366   8.075
19570WAT     H158952   6.688   8.291   8.014
19570WAT     H258953   6.673   8.451   8.043
19571WAT      O58954   1.589   4.304   0.622
19571WAT     H158955   1.683   4.326   0.595
19571WAT     H258956   1.550   4.238   0.558
19572WAT      O58957   5.820   6.936   6.527
19572WAT     H158958   5.798   6.895   6.615
19572WAT     H258959   5.874   6.872   6.472
19573WAT      O58960   1.297   3.336   0.391
19573WAT     H158961   1.362   3.296   0.326
19573WAT     H258962   1.215   3.365   0.343
19574WAT      O58963   1.760   4.790   1.972
19574WAT     H158964   1.734   4.818   2.064
19574WAT     H258965   1.855   4.758   1.972
19575WAT      O58966   9.249   0.837   1.837
19575WAT     H158967   9.241   0.742   1.807
19575WAT     H258968   9.159   0.880   1.838
19576WAT      O58969   2.347   7.599   6.844
19576WAT     H158970   2.366   7.550   6.929
19576WAT     H258971   2.262   7.566   6.804
19577WAT      O58972   5.367   5.779   5.919
19577WAT     H158973   5.370   5.771   6.019
19577WAT     H258974   5.273   5.797   5.890
19578WAT      O58975   0.340   3.274   4.822
19578WAT     H158976   0.268   3.271   4.753
19578WAT     H258977   0.312   3.334   4.897
19579WAT      O58978   8.299   8.316   0.471
19579WAT     H158979   8.227   8.339   0.406
19579WAT     H258980   8.370   8.262   0.425
19580WAT      O58981   6.442   9.556   7.816
19580WAT     H158982   6.482   9.606   7.740
19580WAT     H258983   6.500   9.565   7.897
19581WAT      O58984   0.083   1.619   3.336
19581WAT     H158985   0.109   1.644   3.429
19581WAT     H258986   0.143   1.665   3.271
19582WAT      O58987   0.058   1.054   9.181
19582WAT     H158988  -0.009   1.066   9.255
19582WAT     H258989   0.138   1.112   9.199
19583WAT      O58990   7.103   8.535   8.836
19583WAT     H158991   7.079   8.558   8.741
19583WAT     H258992   7.051   8.594   8.898
19584WAT      O58993   1.721   4.590   7.422
19584WAT     H158994   1.797   4.525   7.422
19584WAT     H258995   1.675   4.587   7.511
19585WAT      O58996   8.963   8.902   1.127
19585WAT     H158997   9.050   8.858   1.149
19585WAT     H258998   8.901   8.894   1.204
19586WAT      O58999   0.317   9.535   6.012
19586WAT     H159000   0.268   9.521   5.926
19586WAT     H259001   0.409   9.569   5.992
19587WAT      O59002   6.596   0.789   5.676
19587WAT     H159003   6.583   0.887   5.691
19587WAT     H259004   6.547   0.762   5.593
19588WAT      O59005   9.831   6.368   3.350
19588WAT     H159006   9.835   6.297   3.420
19588WAT     H259007   9.736   6.384   3.324
19589WAT      O59008   0.736   3.738   6.477
19589WAT     H159009   0.827   3.732   6.436
19589WAT     H259010   0.705   3.833   6.477
19590WAT      O59011   1.028   4.904   2.227
19590WAT     H159012   1.009   4.895   2.325
19590WAT     H259013   1.090   4.832   2.198
19591WAT      O59014   8.487   5.553   7.785
19591WAT     H159015   8.548   5.513   7.717
19591WAT     H259016   8.416   5.485   7.809
19592WAT      O59017   4.752   9.020   2.497
19592WAT     H159018   4.784   8.926   2.507
19592WAT     H259019   4.677   9.023   2.431
19593WAT      O59020   4.284   1.131   0.456
19593WAT     H159021   4.213   1.172   0.399
19593WAT     H259022   4.371   1.131   0.406
19594WAT      O59023   5.125   9.755   3.739
19594WAT     H159024   5.203   9.817   3.735
19594WAT     H259025   5.134   9.696   3.819
19595WAT      O59026   0.770   6.658   9.193
19595WAT     H159027   0.794   6.710   9.111
19595WAT     H259028   0.736   6.568   9.166
19596WAT      O59029   7.008   0.356   2.239
19596WAT     H159030   7.005   0.366   2.140
19596WAT     H259031   6.938   0.413   2.281
19597WAT      O59032   6.597   9.737   0.204
19597WAT     H159033   6.526   9.668   0.218
19597WAT     H259034   6.566   9.825   0.240
19598WAT      O59035   6.740   8.575   8.849
19598WAT     H159036   6.673   8.626   8.901
19598WAT     H259037   6.831   8.614   8.863
19599WAT      O59038   0.419   5.587   8.045
19599WAT     H159039   0.480   5.573   8.122
19599WAT     H259040   0.345   5.649   8.071
19600WAT      O59041   2.814   2.736   8.682
19600WAT     H159042   2.848   2.818   8.634
19600WAT     H259043   2.753   2.685   8.621
19601WAT      O59044   2.415   6.474   6.768
19601WAT     H159045   2.382   6.479   6.862
19601WAT     H259046   2.504   6.519   6.761
19602WAT      O59047   5.876   7.652   0.785
19602WAT     H159048   5.950   7.717   0.805
19602WAT     H259049   5.910   7.559   0.796
19603WAT      O59050   9.366   9.265   0.491
19603WAT     H159051   9.308   9.251   0.411
19603WAT     H259052   9.317   9.237   0.574
19604WAT      O59053   4.615   3.529   0.810
19604WAT     H159054   4.692   3.487   0.858
19604WAT     H259055   4.580   3.606   0.865
19605WAT      O59056   5.023   3.402   7.929
19605WAT     H159057   5.059   3.348   7.853
19605WAT     H259058   5.003   3.495   7.897
19606WAT      O59059   2.262   7.287   2.396
19606WAT     H159060   2.181   7.231   2.412
19606WAT     H259061   2.299   7.318   2.484
19607WAT      O59062   7.546   0.495   3.060
19607WAT     H159063   7.499   0.558   3.122
19607WAT     H259064   7.541   0.530   2.966
19608WAT      O59065   8.143   7.970   7.827
19608WAT     H159066   8.058   7.920   7.844
19608WAT     H259067   8.150   8.046   7.892
19609WAT      O59068   7.856   6.456   1.819
19609WAT     H159069   7.948   6.463   1.780
19609WAT     H259070   7.788   6.469   1.747
19610WAT      O59071   3.357   5.425   5.078
19610WAT     H159072   3.320   5.335   5.055
19610WAT     H259073   3.294   5.496   5.049
19611WAT      O59074   3.049   1.576   9.658
19611WAT     H159075   3.068   1.674   9.651
19611WAT     H259076   2.954   1.562   9.685
19612WAT      O59077   5.879   4.741   5.449
19612WAT     H159078   5.955   4.760   5.387
19612WAT     H259079   5.900   4.661   5.505
19613WAT      O59080   8.388   7.841   1.656
19613WAT     H159081   8.302   7.792   1.640
19613WAT     H259082   8.434   7.856   1.569
19614WAT      O59083   1.322   1.979   3.285
19614WAT     H159084   1.342   1.938   3.374
19614WAT     H259085   1.388   2.052   3.267
19615WAT      O59086   3.008   2.771   6.167
19615WAT     H159087   3.050   2.862   6.156
19615WAT     H259088   2.989   2.756   6.264
19616WAT      O59089   7.866   1.619   0.072
19616WAT     H159090   7.951   1.589   0.116
19616WAT     H259091   7.875   1.715   0.044
19617WAT      O59092   0.700   1.707   0.705
19617WAT     H159093   0.675   1.719   0.801
19617WAT     H259094   0.788   1.751   0.688
19618WAT      O59095   4.743   3.245   2.896
19618WAT     H159096   4.826   3.265   2.844
19618WAT     H259097   4.673   3.314   2.875
19619WAT      O59098   7.065   7.308   1.570
19619WAT     H159099   7.031   7.355   1.489
19619WAT     H259100   7.134   7.365   1.615
19620WAT      O59101   2.447   6.277   9.022
19620WAT     H159102   2.436   6.208   8.950
19620WAT     H259103   2.466   6.231   9.109
19621WAT      O59104   4.165   1.825   6.684
19621WAT     H159105   4.148   1.750   6.619
19621WAT     H259106   4.128   1.801   6.773
19622WAT      O59107   5.458   4.308   8.697
19622WAT     H159108   5.455   4.334   8.794
19622WAT     H259109   5.508   4.223   8.687
19623WAT      O59110   9.284   0.503   0.213
19623WAT     H159111   9.319   0.490   0.306
19623WAT     H259112   9.187   0.478   0.210
19624WAT      O59113   8.255   6.745   8.344
19624WAT     H159114   8.302   6.669   8.388
19624WAT     H259115   8.306   6.829   8.360
19625WAT      O59116   6.484   6.952   2.305
19625WAT     H159117   6.476   6.962   2.404
19625WAT     H259118   6.532   7.031   2.267
19626WAT      O59119   7.442   8.724   4.875
19626WAT     H159120   7.443   8.779   4.792
19626WAT     H259121   7.362   8.664   4.874
19627WAT      O59122   1.481   9.821   7.164
19627WAT     H159123   1.445   9.738   7.121
19627WAT     H259124   1.570   9.802   7.205
19628WAT      O59125   3.527   7.875   4.987
19628WAT     H159126   3.579   7.956   4.960
19628WAT     H259127   3.569   7.794   4.945
19629WAT      O59128   9.498   0.011   0.771
19629WAT     H159129   9.510   0.095   0.823
19629WAT     H259130   9.512   0.029   0.673
19630WAT      O59131   3.368   9.573   9.298
19630WAT     H159132   3.462   9.557   9.270
19630WAT     H259133   3.331   9.491   9.341
19631WAT      O59134   1.090   0.756   3.647
19631WAT     H159135   1.174   0.708   3.672
19631WAT     H259136   1.022   0.690   3.615
19632WAT      O59137   8.352   4.366   7.217
19632WAT     H159138   8.429   4.341   7.276
19632WAT     H259139   8.378   4.351   7.121
19633WAT      O59140   4.600   6.048   0.963
19633WAT     H159141   4.637   6.079   0.876
19633WAT     H259142   4.636   5.957   0.983
19634WAT      O59143   7.146   0.612   0.256
19634WAT     H159144   7.069   0.566   0.212
19634WAT     H259145   7.157   0.703   0.216
19635WAT      O59146   9.012   0.649   5.471
19635WAT     H159147   8.942   0.578   5.470
19635WAT     H259148   9.058   0.653   5.383
19636WAT      O59149   1.297   6.754   5.089
19636WAT     H159150   1.357   6.679   5.062
19636WAT     H259151   1.202   6.723   5.084
19637WAT      O59152   0.839   3.029   0.822
19637WAT     H159153   0.762   3.003   0.881
19637WAT     H259154   0.923   3.031   0.876
19638WAT      O59155   7.939   7.029   1.770
19638WAT     H159156   7.991   7.104   1.731
19638WAT     H259157   8.001   6.969   1.822
19639WAT      O59158   5.413   9.662   2.864
19639WAT     H159159   5.496   9.607   2.851
19639WAT     H259160   5.361   9.664   2.779
19640WAT      O59161   7.262   3.388   6.216
19640WAT     H159162   7.234   3.317   6.281
19640WAT     H259163   7.250   3.354   6.122
19641WAT      O59164   1.163   4.939   3.785
19641WAT     H159165   1.110   4.962   3.866
19641WAT     H259166   1.180   4.840   3.783
19642WAT      O59167   2.979   7.395   5.945
19642WAT     H159168   2.927   7.367   6.025
19642WAT     H259169   3.073   7.417   5.972
19643WAT      O59170   2.835   9.070   3.206
19643WAT     H159171   2.804   9.052   3.113
19643WAT     H259172   2.847   9.168   3.219
19644WAT      O59173   1.192   2.795   5.976
19644WAT     H159174   1.181   2.712   5.921
19644WAT     H259175   1.218   2.871   5.916
19645WAT      O59176   9.526   5.561   5.902
19645WAT     H159177   9.550   5.651   5.866
19645WAT     H259178   9.605   5.500   5.898
19646WAT      O59179   3.307   6.590   2.786
19646WAT     H159180   3.331   6.526   2.859
19646WAT     H259181   3.380   6.658   2.776
19647WAT      O59182   7.348   4.728   1.337
19647WAT     H159183   7.396   4.792   1.396
19647WAT     H259184   7.249   4.744   1.344
19648WAT      O59185   7.529   8.466   7.855
19648WAT     H159186   7.532   8.566   7.857
19648WAT     H259187   7.589   8.433   7.782
19649WAT      O59188   4.572   1.637   8.598
19649WAT     H159189   4.663   1.622   8.638
19649WAT     H259190   4.562   1.733   8.573
19650WAT      O59191   2.246   7.631   7.125
19650WAT     H159192   2.188   7.680   7.060
19650WAT     H259193   2.249   7.534   7.101
19651WAT      O59194   3.680   2.121   6.444
19651WAT     H159195   3.695   2.032   6.488
19651WAT     H259196   3.726   2.122   6.356
19652WAT      O59197   5.163   7.484   4.594
19652WAT     H159198   5.198   7.506   4.685
19652WAT     H259199   5.108   7.400   4.599
19653WAT      O59200   7.006   9.813   0.589
19653WAT     H159201   7.087   9.769   0.628
19653WAT     H259202   7.034   9.888   0.530
19654WAT      O59203   7.365   6.208   3.725
19654WAT     H159204   7.379   6.290   3.781
19654WAT     H259205   7.385   6.127   3.780
19655WAT      O59206   8.001   3.651   3.832
19655WAT     H159207   7.912   3.694   3.845
19655WAT     H259208   8.029   3.660   3.736
19656WAT      O59209   8.670   4.086   6.764
19656WAT     H159210   8.582   4.050   6.794
19656WAT     H259211   8.743   4.044   6.818
19657WAT      O59212   1.394   1.239   5.464
19657WAT     H159213   1.354   1.273   5.549
19657WAT     H259214   1.325   1.242   5.391
19658WAT      O59215   6.697   6.884   6.041
19658WAT     H159216   6.636   6.857   6.116
19658WAT     H259217   6.675   6.831   5.959
19659WAT      O59218   2.191   4.410   3.740
19659WAT     H159219   2.254   4.448   3.672
19659WAT     H259220   2.100   4.451   3.728
19660WAT      O59221   0.234   8.825   5.430
19660WAT     H159222   0.183   8.894   5.379
19660WAT     H259223   0.267   8.755   5.367
19661WAT      O59224   0.054   3.413   0.603
19661WAT     H159225   0.026   3.361   0.684
19661WAT     H259226   0.130   3.366   0.558
19662WAT      O59227   5.236   3.060   5.714
19662WAT     H159228   5.301   3.080   5.788
19662WAT     H259229   5.259   3.115   5.634
19663WAT      O59230   7.743   5.650   9.834
19663WAT     H159231   7.668   5.612   9.889
19663WAT     H259232   7.731   5.749   9.825
19664WAT      O59233   0.072   5.581   7.682
19664WAT     H159234   0.159   5.538   7.708
19664WAT     H259235  -0.001   5.514   7.689
19665WAT      O59236   4.973   7.915   6.383
19665WAT     H159237   5.057   7.866   6.365
19665WAT     H259238   4.936   7.951   6.297
19666WAT      O59239   0.955   7.400   8.798
19666WAT     H159240   0.967   7.329   8.866
19666WAT     H259241   0.874   7.381   8.743
19667WAT      O59242   0.815   7.754   7.236
19667WAT     H159243   0.755   7.774   7.313
19667WAT     H259244   0.893   7.700   7.267
19668WAT      O59245   9.382   6.779   9.350
19668WAT     H159246   9.352   6.858   9.403
19668WAT     H259247   9.480   6.785   9.334
19669WAT      O59248   6.822   0.998   4.504
19669WAT     H159249   6.809   1.010   4.602
19669WAT     H259250   6.829   0.900   4.482
19670WAT      O59251   3.717   3.199   4.878
19670WAT     H159252   3.724   3.170   4.782
19670WAT     H259253   3.641   3.150   4.921
19671WAT      O59254   5.150   6.769   8.778
19671WAT     H159255   5.121   6.804   8.689
19671WAT     H259256   5.088   6.696   8.806
19672WAT      O59257   6.623   0.563   7.855
19672WAT     H159258   6.570   0.646   7.838
19672WAT     H259259   6.600   0.526   7.945
19673WAT      O59260   1.421   3.241   0.171
19673WAT     H159261   1.389   3.280   0.084
19673WAT     H259262   1.520   3.253   0.178
19674WAT      O59263   8.231   2.771   5.493
19674WAT     H159264   8.316   2.750   5.543
19674WAT     H259265   8.206   2.866   5.511
19675WAT      O59266   1.260   0.555   9.379
19675WAT     H159267   1.325   0.485   9.349
19675WAT     H259268   1.281   0.642   9.334
19676WAT      O59269   6.409   2.447   4.216
19676WAT     H159270   6.357   2.364   4.199
19676WAT     H259271   6.419   2.462   4.314
19677WAT      O59272   8.309   2.723   9.631
19677WAT     H159273   8.234   2.718   9.565
19677WAT     H259274   8.340   2.817   9.640
19678WAT      O59275   8.623   7.909   2.980
19678WAT     H159276   8.595   7.964   3.058
19678WAT     H259277   8.698   7.954   2.932
19679WAT      O59278   0.251   7.279   1.294
19679WAT     H159279   0.169   7.227   1.269
19679WAT     H259280   0.258   7.284   1.394
19680WAT      O59281   2.843   1.653   9.362
19680WAT     H159282   2.770   1.589   9.338
19680WAT     H259283   2.928   1.602   9.378
19681WAT      O59284   0.047   5.682   2.578
19681WAT     H159285  -0.005   5.766   2.596
19681WAT     H259286   0.099   5.656   2.659
19682WAT      O59287   2.787   9.164   9.352
19682WAT     H159288   2.740   9.193   9.269
19682WAT     H259289   2.738   9.088   9.394
19683WAT      O59290   4.077   1.884   2.667
19683WAT     H159291   4.168   1.842   2.667
19683WAT     H259292   4.016   1.831   2.725
19684WAT      O59293   7.241   9.048   5.895
19684WAT     H159294   7.238   9.106   5.977
19684WAT     H259295   7.284   8.960   5.918
19685WAT      O59296   1.265   5.826   2.383
19685WAT     H159297   1.237   5.890   2.312
19685WAT     H259298   1.365   5.818   2.383
19686WAT      O59299   4.366   5.833   8.666
19686WAT     H159300   4.278   5.795   8.693
19686WAT     H259301   4.369   5.931   8.689
19687WAT      O59302   4.896   8.385   5.398
19687WAT     H159303   4.839   8.446   5.453
19687WAT     H259304   4.965   8.438   5.350
19688WAT      O59305   8.707   2.834   4.347
19688WAT     H159306   8.647   2.912   4.327
19688WAT     H259307   8.673   2.787   4.429
19689WAT      O59308   4.899   2.049   7.065
19689WAT     H159309   4.878   1.983   6.993
19689WAT     H259310   4.878   2.009   7.154
19690WAT      O59311   7.091   7.049   1.834
19690WAT     H159312   7.102   7.001   1.921
19690WAT     H259313   7.135   7.139   1.840
19691WAT      O59314   0.306   9.311   4.395
19691WAT     H159315   0.367   9.374   4.347
19691WAT     H259316   0.275   9.353   4.480
19692WAT      O59317   2.234   3.765   2.486
19692WAT     H159318   2.333   3.773   2.490
19692WAT     H259319   2.207   3.730   2.396
19693WAT      O59320   6.216   6.359   9.546
19693WAT     H159321   6.188   6.383   9.639
19693WAT     H259322   6.138   6.367   9.485
19694WAT      O59323   6.140   3.983   8.931
19694WAT     H159324   6.147   4.047   9.007
19694WAT     H259325   6.221   3.924   8.930
19695WAT      O59326   6.267   0.813   1.329
19695WAT     H159327   6.229   0.726   1.362
19695WAT     H259328   6.309   0.862   1.406
19696WAT      O59329   2.033   9.234   5.699
19696WAT     H159330   2.048   9.264   5.793
19696WAT     H259331   2.117   9.193   5.663
19697WAT      O59332   9.881   6.563   7.930
19697WAT     H159333   9.925   6.478   7.959
19697WAT     H259334   9.807   6.586   7.994
19698WAT      O59335   7.048   8.943   2.464
19698WAT     H159336   7.001   9.012   2.410
19698WAT     H259337   7.133   8.981   2.499
19699WAT      O59338   7.041   6.883   3.996
19699WAT     H159339   6.951   6.918   4.023
19699WAT     H259340   7.029   6.795   3.950
19700WAT      O59341   5.003   8.735   2.977
19700WAT     H159342   4.936   8.804   2.950
19700WAT     H259343   5.002   8.660   2.911
19701WAT      O59344   7.339   8.059   6.761
19701WAT     H159345   7.378   8.042   6.670
19701WAT     H259346   7.250   8.104   6.751
19702WAT      O59347   2.109   7.075   8.023
19702WAT     H159348   2.190   7.099   7.970
19702WAT     H259349   2.037   7.042   7.962
19703WAT      O59350   0.422   5.918   0.014
19703WAT     H159351   0.358   5.910   0.090
19703WAT     H259352   0.460   5.828  -0.008
19704WAT      O59353   8.384   5.024   0.281
19704WAT     H159354   8.365   5.116   0.315
19704WAT     H259355   8.416   4.966   0.356
19705WAT      O59356   3.122   1.126   5.667
19705WAT     H159357   3.065   1.191   5.716
19705WAT     H259358   3.076   1.099   5.582
19706WAT      O59359   2.416   2.279   9.697
19706WAT     H159360   2.399   2.239   9.788
19706WAT     H259361   2.477   2.220   9.646
19707WAT      O59362   6.409   6.202   0.239
19707WAT     H159363   6.485   6.152   0.200
19707WAT     H259364   6.362   6.146   0.307
19708WAT      O59365   5.970   8.607   2.385
19708WAT     H159366   6.027   8.641   2.460
19708WAT     H259367   6.021   8.541   2.331
19709WAT      O59368   1.109   0.810   7.277
19709WAT     H159369   1.141   0.857   7.359
19709WAT     H259370   1.171   0.830   7.201
19710WAT      O59371   7.903   2.778   1.374
19710WAT     H159372   7.988   2.820   1.346
19710WAT     H259373   7.893   2.785   1.474
19711WAT      O59374   0.741   3.810   6.136
19711WAT     H159375   0.675   3.736   6.123
19711WAT     H259376   0.771   3.844   6.047
19712WAT      O59377   3.434   3.009   3.456
19712WAT     H159378   3.434   2.909   3.458
19712WAT     H259379   3.528   3.041   3.446
19713WAT      O59380   7.551   6.572   7.131
19713WAT     H159381   7.549   6.546   7.035
19713WAT     H259382   7.484   6.517   7.182
19714WAT      O59383   6.701   8.793   5.333
19714WAT     H159384   6.629   8.858   5.308
19714WAT     H259385   6.713   8.727   5.259
19715WAT      O59386   6.620   6.597   7.816
19715WAT     H159387   6.579   6.521   7.764
19715WAT     H259388   6.719   6.585   7.819
19716WAT      O59389   4.793   7.929   0.966
19716WAT     H159390   4.741   7.969   1.042
19716WAT     H259391   4.884   7.971   0.963
19717WAT      O59392   7.697   1.063   5.739
19717WAT     H159393   7.637   0.988   5.714
19717WAT     H259394   7.671   1.100   5.828
19718WAT      O59395   0.507   8.861   6.218
19718WAT     H159396   0.430   8.924   6.206
19718WAT     H259397   0.487   8.798   6.293
19719WAT      O59398   9.331   1.293   5.516
19719WAT     H159399   9.304   1.248   5.431
19719WAT     H259400   9.317   1.231   5.593
19720WAT      O59401   1.774   4.432   0.479
19720WAT     H159402   1.711   4.453   0.404
19720WAT     H259403   1.819   4.516   0.509
19721WAT      O59404   6.401   7.457   2.628
19721WAT     H159405   6.434   7.546   2.660
19721WAT     H259406   6.393   7.458   2.528
19722WAT      O59407   5.511   4.820   4.288
19722WAT     H159408   5.552   4.841   4.199
19722WAT     H259409   5.423   4.775   4.274
19723WAT      O59410   2.934   7.176   4.023
19723WAT     H159411   2.982   7.207   4.105
19723WAT     H259412   3.001   7.159   3.950
19724WAT      O59413   9.801   7.609   5.306
19724WAT     H159414   9.801   7.626   5.207
19724WAT     H259415   9.770   7.692   5.353
19725WAT      O59416   4.325   8.128   2.360
19725WAT     H159417   4.326   8.228   2.369
19725WAT     H259418   4.384   8.101   2.284
19726WAT      O59419   4.145   7.765   2.430
19726WAT     H159420   4.074   7.786   2.497
19726WAT     H259421   4.152   7.839   2.363
19727WAT      O59422   7.607   7.947   6.008
19727WAT     H159423   7.528   7.998   5.974
19727WAT     H259424   7.653   7.902   5.931
19728WAT      O59425   6.043   1.529   8.016
19728WAT     H159426   6.008   1.616   8.051
19728WAT     H259427   6.061   1.537   7.918
19729WAT      O59428   2.725   3.910   6.217
19729WAT     H159429   2.699   3.980   6.283
19729WAT     H259430   2.794   3.947   6.154
19730WAT      O59431   3.183   1.507   6.969
19730WAT     H159432   3.168   1.408   6.961
19730WAT     H259433   3.099   1.550   7.004
19731WAT      O59434   9.357   0.419   4.839
19731WAT     H159435   9.406   0.473   4.908
19731WAT     H259436   9.421   0.357   4.794
19732WAT      O59437   8.377   9.212   3.786
19732WAT     H159438   8.366   9.116   3.759
19732WAT     H259439   8.338   9.226   3.876
19733WAT      O59440   7.912   9.198   0.434
19733WAT     H159441   7.914   9.113   0.381
19733WAT     H259442   7.853   9.186   0.514
19734WAT      O59443   9.379   5.510   3.689
19734WAT     H159444   9.300   5.567   3.710
19734WAT     H259445   9.349   5.427   3.642
19735WAT      O59446   9.422   4.466   0.128
19735WAT     H159447   9.378   4.400   0.189
19735WAT     H259448   9.498   4.422   0.080
19736WAT      O59449   0.663   3.108   2.951
19736WAT     H159450   0.563   3.109   2.952
19736WAT     H259451   0.698   3.177   3.015
19737WAT      O59452   6.203   5.754   6.500
19737WAT     H159453   6.241   5.756   6.407
19737WAT     H259454   6.199   5.847   6.536
19738WAT      O59455   7.914   1.394   6.442
19738WAT     H159456   7.882   1.329   6.511
19738WAT     H259457   7.851   1.471   6.438
19739WAT      O59458   2.655   8.407   8.894
19739WAT     H159459   2.612   8.327   8.852
19739WAT     H259460   2.585   8.473   8.919
19740WAT      O59461   4.060   6.570   0.559
19740WAT     H159462   3.973   6.589   0.514
19740WAT     H259463   4.129   6.637   0.529
19741WAT      O59464   6.944   2.035   3.776
19741WAT     H159465   6.925   2.031   3.874
19741WAT     H259466   6.879   2.097   3.732
19742WAT      O59467   4.679   8.620   4.273
19742WAT     H159468   4.591   8.636   4.318
19742WAT     H259469   4.747   8.683   4.310
19743WAT      O59470   3.711   4.128   0.809
19743WAT     H159471   3.640   4.058   0.815
19743WAT     H259472   3.673   4.209   0.764
19744WAT      O59473   9.668   4.509   2.898
19744WAT     H159474   9.655   4.469   2.808
19744WAT     H259475   9.683   4.436   2.965
19745WAT      O59476   4.049   1.892   7.775
19745WAT     H159477   4.079   1.978   7.818
19745WAT     H259478   4.118   1.862   7.709
19746WAT      O59479   7.359   7.050   2.108
19746WAT     H159480   7.446   7.021   2.148
19746WAT     H259481   7.372   7.137   2.060
19747WAT      O59482   9.784   9.117   9.454
19747WAT     H159483   9.727   9.199   9.449
19747WAT     H259484   9.779   9.067   9.368
19748WAT      O59485   4.157   9.254   2.187
19748WAT     H159486   4.156   9.193   2.266
19748WAT     H259487   4.064   9.267   2.154
19749WAT      O59488   1.663   2.198   8.180
19749WAT     H159489   1.610   2.155   8.106
19749WAT     H259490   1.749   2.149   8.191
19750WAT      O59491   1.499   9.021   7.482
19750WAT     H159492   1.597   9.009   7.498
19750WAT     H259493   1.484   9.059   7.391
19751WAT      O59494   6.343   8.807   4.053
19751WAT     H159495   6.314   8.900   4.073
19751WAT     H259496   6.305   8.745   4.121
19752WAT      O59497   4.722   9.211   7.288
19752WAT     H159498   4.652   9.140   7.298
19752WAT     H259499   4.791   9.181   7.223
19753WAT      O59500   1.628   9.220   6.348
19753WAT     H159501   1.533   9.243   6.372
19753WAT     H259502   1.687   9.297   6.370
19754WAT      O59503   2.510   1.828   4.808
19754WAT     H159504   2.469   1.769   4.740
19754WAT     H259505   2.439   1.863   4.870
19755WAT      O59506   1.754   4.307   5.503
19755WAT     H159507   1.761   4.407   5.497
19755WAT     H259508   1.660   4.282   5.527
19756WAT      O59509   1.473   5.558   6.227
19756WAT     H159510   1.386   5.603   6.248
19756WAT     H259511   1.511   5.518   6.311
19757WAT      O59512   9.748   6.671   2.946
19757WAT     H159513   9.785   6.591   2.993
19757WAT     H259514   9.791   6.680   2.856
19758WAT      O59515   1.332   4.327   5.192
19758WAT     H159516   1.333   4.392   5.116
19758WAT     H259517   1.365   4.373   5.275
19759WAT      O59518   1.647   2.803   9.656
19759WAT     H159519   1.643   2.815   9.556
19759WAT     H259520   1.624   2.890   9.700
19760WAT      O59521   0.841   8.399   8.465
19760WAT     H159522   0.896   8.450   8.398
19760WAT     H259523   0.836   8.451   8.550
19761WAT      O59524   5.415   4.700   9.584
19761WAT     H159525   5.391   4.700   9.486
19761WAT     H259526   5.509   4.732   9.595
19762WAT      O59527   8.547   1.019   0.725
19762WAT     H159528   8.521   1.093   0.787
19762WAT     H259529   8.645   1.027   0.703
19763WAT      O59530   0.214   3.688   6.759
19763WAT     H159531   0.240   3.633   6.679
19763WAT     H259532   0.115   3.698   6.762
19764WAT      O59533   3.122   8.280   2.119
19764WAT     H159534   3.111   8.191   2.074
19764WAT     H259535   3.061   8.346   2.077
19765WAT      O59536   2.342   8.290   4.221
19765WAT     H159537   2.288   8.220   4.173
19765WAT     H259538   2.379   8.251   4.306
19766WAT      O59539   1.593   9.301   1.967
19766WAT     H159540   1.582   9.225   2.031
19766WAT     H259541   1.650   9.372   2.008
19767WAT      O59542   8.251   4.610   1.568
19767WAT     H159543   8.310   4.530   1.565
19767WAT     H259544   8.244   4.642   1.663
19768WAT      O59545   8.833   2.983   7.947
19768WAT     H159546   8.736   2.997   7.927
19768WAT     H259547   8.851   2.884   7.955
19769WAT      O59548   1.697   4.003   3.284
19769WAT     H159549   1.727   4.022   3.191
19769WAT     H259550   1.745   4.063   3.348
19770WAT      O59551   5.185   6.007   5.464
19770WAT     H159552   5.202   6.084   5.525
19770WAT     H259553   5.272   5.966   5.438
19771WAT      O59554   3.562   0.169   6.851
19771WAT     H159555   3.608   0.257   6.837
19771WAT     H259556   3.609   0.119   6.924
19772WAT      O59557   0.712   0.545   8.119
19772WAT     H159558   0.778   0.481   8.081
19772WAT     H259559   0.624   0.535   8.073
19773WAT      O59560   7.861   9.060   0.020
19773WAT     H159561   7.960   9.072   0.017
19773WAT     H259562   7.834   9.026   0.110
19774WAT      O59563   3.861   7.691   3.470
19774WAT     H159564   3.951   7.666   3.507
19774WAT     H259565   3.869   7.708   3.372
19775WAT      O59566   8.616   2.916   4.845
19775WAT     H159567   8.683   2.975   4.799
19775WAT     H259568   8.524   2.950   4.827
19776WAT      O59569   0.699   7.075   1.709
19776WAT     H159570   0.750   7.004   1.756
19776WAT     H259571   0.627   7.034   1.653
19777WAT      O59572   1.658   2.480   7.880
19777WAT     H159573   1.747   2.447   7.911
19777WAT     H259574   1.671   2.553   7.813
19778WAT      O59575   9.844   3.475   5.967
19778WAT     H159576   9.924   3.430   6.006
19778WAT     H259577   9.818   3.428   5.882
19779WAT      O59578   2.922   1.643   1.883
19779WAT     H159579   2.880   1.613   1.968
19779WAT     H259580   2.850   1.656   1.814
19780WAT      O59581   0.738   4.475   6.029
19780WAT     H159582   0.819   4.488   6.087
19780WAT     H259583   0.759   4.500   5.935
19781WAT      O59584   8.706   2.690   5.965
19781WAT     H159585   8.626   2.671   5.908
19781WAT     H259586   8.682   2.676   6.061
19782WAT      O59587   4.043   8.301   8.267
19782WAT     H159588   4.120   8.362   8.246
19782WAT     H259589   4.023   8.244   8.187
19783WAT      O59590   2.700   0.942   2.669
19783WAT     H159591   2.648   0.928   2.753
19783WAT     H259592   2.710   0.855   2.621
19784WAT      O59593   1.735   5.377   3.868
19784WAT     H159594   1.688   5.465   3.863
19784WAT     H259595   1.700   5.316   3.797
19785WAT      O59596   1.062   8.474   9.248
19785WAT     H159597   0.984   8.427   9.290
19785WAT     H259598   1.139   8.473   9.312
19786WAT      O59599   1.299   9.360   7.652
19786WAT     H159600   1.233   9.435   7.643
19786WAT     H259601   1.262   9.278   7.609
19787WAT      O59602   3.747   8.004   5.260
19787WAT     H159603   3.747   7.959   5.349
19787WAT     H259604   3.770   7.937   5.189
19788WAT      O59605   3.619   5.480   2.591
19788WAT     H159606   3.541   5.543   2.592
19788WAT     H259607   3.600   5.402   2.650
19789WAT      O59608   1.101   5.268   6.441
19789WAT     H159609   1.199   5.260   6.461
19789WAT     H259610   1.088   5.324   6.360
19790WAT      O59611   0.873   4.318   5.360
19790WAT     H159612   0.829   4.262   5.431
19790WAT     H259613   0.859   4.415   5.381
19791WAT      O59614   9.380   4.760   1.911
19791WAT     H159615   9.342   4.785   1.822
19791WAT     H259616   9.381   4.660   1.921
19792WAT      O59617   3.618   2.501   8.919
19792WAT     H159618   3.651   2.483   9.012
19792WAT     H259619   3.695   2.510   8.857
19793WAT      O59620   9.239   2.899   4.944
19793WAT     H159621   9.207   2.985   4.905
19793WAT     H259622   9.174   2.867   5.013
19794WAT      O59623   3.867   3.343   9.521
19794WAT     H159624   3.907   3.378   9.605
19794WAT     H259625   3.784   3.292   9.543
19795WAT      O59626   5.366   6.422   5.930
19795WAT     H159627   5.456   6.462   5.914
19795WAT     H259628   5.297   6.494   5.929
19796WAT      O59629   0.068   2.731   3.084
19796WAT     H159630   0.116   2.798   3.140
19796WAT     H259631  -0.015   2.772   3.047
19797WAT      O59632   5.927   3.419   6.890
19797WAT     H159633   5.972   3.348   6.837
19797WAT     H259634   5.993   3.491   6.913
19798WAT      O59635   0.229   5.623   2.772
19798WAT     H159636   0.256   5.684   2.846
19798WAT     H259637   0.202   5.534   2.809
19799WAT      O59638   7.971   1.058   9.297
19799WAT     H159639   8.005   0.985   9.356
19799WAT     H259640   7.959   1.023   9.204
19800WAT      O59641   2.661   2.139   0.006
19800WAT     H159642   2.631   2.226   0.046
19800WAT     H259643   2.754   2.149  -0.028
19801WAT      O59644   4.350   4.399   4.153
19801WAT     H159645   4.391   4.351   4.231
19801WAT     H259646   4.251   4.385   4.154
19802WAT      O59647   4.505   5.672   4.855
19802WAT     H159648   4.495   5.582   4.898
19802WAT     H259649   4.601   5.687   4.830
19803WAT      O59650   8.979   8.636   0.916
19803WAT     H159651   9.015   8.586   0.995
19803WAT     H259652   8.917   8.577   0.865
19804WAT      O59653   2.195   6.958   9.464
19804WAT     H159654   2.295   6.963   9.474
19804WAT     H259655   2.156   7.049   9.482
19805WAT      O59656   2.431   7.932   6.351
19805WAT     H159657   2.425   8.014   6.409
19805WAT     H259658   2.341   7.912   6.313
19806WAT      O59659   9.829   5.560   9.208
19806WAT     H159660   9.781   5.646   9.195
19806WAT     H259661   9.857   5.523   9.120
19807WAT      O59662   4.737   2.907   9.037
19807WAT     H159663   4.738   3.007   9.040
19807WAT     H259664   4.714   2.878   8.944
19808WAT      O59665   1.574   1.488   5.865
19808WAT     H159666   1.493   1.492   5.806
19808WAT     H259667   1.652   1.527   5.817
19809WAT      O59668   7.646   6.898   3.525
19809WAT     H159669   7.670   6.804   3.550
19809WAT     H259670   7.683   6.961   3.593
19810WAT      O59671   0.548   1.376   7.216
19810WAT     H159672   0.512   1.469   7.213
19810WAT     H259673   0.534   1.338   7.307
19811WAT      O59674   5.116   7.676   1.593
19811WAT     H159675   5.130   7.774   1.580
19811WAT     H259676   5.027   7.650   1.556
19812WAT      O59677   7.598   9.172   9.861
19812WAT     H159678   7.690   9.135   9.874
19812WAT     H259679   7.574   9.230   9.939
19813WAT      O59680   0.374   2.994   6.120
19813WAT     H159681   0.323   2.937   6.056
19813WAT     H259682   0.471   2.994   6.096
19814WAT      O59683   4.031   2.936   6.679
19814WAT     H159684   4.112   2.968   6.728
19814WAT     H259685   4.058   2.876   6.604
19815WAT      O59686   4.951   0.278   7.313
19815WAT     H159687   4.883   0.349   7.334
19815WAT     H259688   4.914   0.189   7.339
19816WAT      O59689   8.956   5.020   8.132
19816WAT     H159690   9.023   5.093   8.119
19816WAT     H259691   8.943   4.972   8.045
19817WAT      O59692   6.983   8.192   1.256
19817WAT     H159693   7.003   8.137   1.338
19817WAT     H259694   6.948   8.133   1.184
19818WAT      O59695   6.701   8.637   5.596
19818WAT     H159696   6.687   8.685   5.510
19818WAT     H259697   6.771   8.684   5.650
19819WAT      O59698   0.570   0.036   8.935
19819WAT     H159699   0.589   0.123   8.889
19819WAT     H259700   0.647   0.012   8.994
19820WAT      O59701   0.468   1.555   1.218
19820WAT     H159702   0.374   1.550   1.253
19820WAT     H259703   0.465   1.573   1.120
19821WAT      O59704   9.816   8.070   6.005
19821WAT     H159705   9.835   8.167   6.018
19821WAT     H259706   9.882   8.016   6.057
19822WAT      O59707   8.801   8.487   2.458
19822WAT     H159708   8.882   8.450   2.411
19822WAT     H259709   8.800   8.586   2.449
19823WAT      O59710   4.859   2.067   0.283
19823WAT     H159711   4.954   2.098   0.290
19823WAT     H259712   4.804   2.113   0.354
19824WAT      O59713   1.484   5.947   5.244
19824WAT     H159714   1.539   5.965   5.163
19824WAT     H259715   1.470   5.848   5.254
19825WAT      O59716   0.284   1.984   2.206
19825WAT     H159717   0.214   1.972   2.136
19825WAT     H259718   0.320   1.894   2.232
19826WAT      O59719   6.370   3.284   6.023
19826WAT     H159720   6.296   3.344   5.992
19826WAT     H259721   6.366   3.274   6.122
19827WAT      O59722   8.834   6.203   1.388
19827WAT     H159723   8.833   6.179   1.291
19827WAT     H259724   8.916   6.258   1.408
19828WAT      O59725   5.014   8.279   6.436
19828WAT     H159726   5.043   8.194   6.481
19828WAT     H259727   5.080   8.351   6.456
19829WAT      O59728   2.367   1.360   0.724
19829WAT     H159729   2.385   1.415   0.642
19829WAT     H259730   2.453   1.332   0.765
19830WAT      O59731   7.118   6.654   4.289
19830WAT     H159732   7.112   6.664   4.388
19830WAT     H259733   7.032   6.619   4.253
19831WAT      O59734   2.012   5.910   7.713
19831WAT     H159735   1.976   5.963   7.790
19831WAT     H259736   2.088   5.961   7.671
19832WAT      O59737   5.680   6.245   4.349
19832WAT     H159738   5.623   6.175   4.394
19832WAT     H259739   5.693   6.322   4.412
19833WAT      O59740   1.123   6.229   9.574
19833WAT     H159741   1.082   6.138   9.570
19833WAT     H259742   1.158   6.254   9.484
19834WAT      O59743   4.949   9.183   6.197
19834WAT     H159744   4.859   9.143   6.211
19834WAT     H259745   4.979   9.229   6.281
19835WAT      O59746   0.155   9.548   3.218
19835WAT     H159747   0.184   9.534   3.313
19835WAT     H259748   0.060   9.579   3.216
19836WAT      O59749   9.224   8.553   2.979
19836WAT     H159750   9.264   8.461   2.975
19836WAT     H259751   9.293   8.620   2.954
19837WAT      O59752   8.687   8.205   3.100
19837WAT     H159753   8.768   8.258   3.075
19837WAT     H259754   8.679   8.202   3.200
19838WAT      O59755   3.659   9.738   8.756
19838WAT     H159756   3.649   9.639   8.746
19838WAT     H259757   3.752   9.765   8.731
19839WAT      O59758   3.203   7.660   3.037
19839WAT     H159759   3.241   7.620   3.120
19839WAT     H259760   3.113   7.700   3.056
19840WAT      O59761   3.575   0.750   0.695
19840WAT     H159762   3.603   0.814   0.623
19840WAT     H259763   3.544   0.802   0.775
19841WAT      O59764   8.092   4.947   4.143
19841WAT     H159765   8.066   4.851   4.151
19841WAT     H259766   8.010   5.005   4.146
19842WAT      O59767   2.582   9.070   1.898
19842WAT     H159768   2.623   9.035   1.982
19842WAT     H259769   2.529   8.998   1.854
19843WAT      O59770   1.718   1.315   4.528
19843WAT     H159771   1.623   1.344   4.524
19843WAT     H259772   1.755   1.306   4.435
19844WAT      O59773   3.042   3.248   7.623
19844WAT     H159774   3.075   3.330   7.669
19844WAT     H259775   3.099   3.170   7.651
19845WAT      O59776   4.141   0.682   5.878
19845WAT     H159777   4.102   0.599   5.918
19845WAT     H259778   4.172   0.664   5.785
19846WAT      O59779   2.776   5.767   7.760
19846WAT     H159780   2.791   5.717   7.674
19846WAT     H259781   2.847   5.741   7.826
19847WAT      O59782   4.379   6.911   7.851
19847WAT     H159783   4.379   6.987   7.786
19847WAT     H259784   4.393   6.946   7.943
19848WAT      O59785   5.814   1.437   5.730
19848WAT     H159786   5.779   1.476   5.815
19848WAT     H259787   5.747   1.452   5.657
19849WAT      O59788   7.118   5.513   8.193
19849WAT     H159789   7.056   5.438   8.169
19849WAT     H259790   7.095   5.548   8.283
19850WAT      O59791   8.295   1.577   1.010
19850WAT     H159792   8.331   1.645   1.075
19850WAT     H259793   8.198   1.597   0.992
19851WAT      O59794   2.914   3.798   8.808
19851WAT     H159795   2.987   3.859   8.840
19851WAT     H259796   2.854   3.846   8.745
19852WAT      O59797   5.929   2.816   3.349
19852WAT     H159798   5.911   2.741   3.285
19852WAT     H259799   5.903   2.788   3.441
19853WAT      O59800   1.159   0.376   2.686
19853WAT     H159801   1.202   0.425   2.762
19853WAT     H259802   1.118   0.291   2.720
19854WAT      O59803   2.917   6.823   4.753
19854WAT     H159804   3.005   6.854   4.787
19854WAT     H259805   2.845   6.885   4.785
19855WAT      O59806   5.050   2.698   2.876
19855WAT     H159807   5.037   2.797   2.884
19855WAT     H259808   5.019   2.653   2.960
19856WAT      O59809   2.232   5.229   0.413
19856WAT     H159810   2.278   5.140   0.417
19856WAT     H259811   2.159   5.231   0.481
19857WAT      O59812   1.944   0.772   5.754
19857WAT     H159813   1.877   0.797   5.683
19857WAT     H259814   1.980   0.681   5.735
19858WAT      O59815   9.118   7.525   4.322
19858WAT     H159816   9.088   7.603   4.267
19858WAT     H259817   9.051   7.452   4.315
19859WAT      O59818   7.308   5.754   4.257
19859WAT     H159819   7.260   5.757   4.345
19859WAT     H259820   7.245   5.722   4.186
19860WAT      O59821   6.534   7.966   9.759
19860WAT     H159822   6.602   7.894   9.742
19860WAT     H259823   6.523   8.022   9.677
19861WAT      O59824   1.967   0.111   8.837
19861WAT     H159825   1.868   0.126   8.847
19861WAT     H259826   2.016   0.187   8.879
19862WAT      O59827   4.398   9.607   2.030
19862WAT     H159828   4.487   9.650   2.013
19862WAT     H259829   4.362   9.570   1.944
19863WAT      O59830   5.014   7.060   0.831
19863WAT     H159831   4.975   7.143   0.791
19863WAT     H259832   5.094   7.084   0.886
19864WAT      O59833   1.442   6.470   7.578
19864WAT     H159834   1.401   6.434   7.495
19864WAT     H259835   1.541   6.482   7.564
19865WAT      O59836   1.591   1.711   1.340
19865WAT     H159837   1.577   1.741   1.434
19865WAT     H259838   1.508   1.725   1.287
19866WAT      O59839   7.975   7.295   1.277
19866WAT     H159840   7.880   7.278   1.302
19866WAT     H259841   7.981   7.380   1.225
19867WAT      O59842   6.395   8.953   1.036
19867WAT     H159843   6.305   8.993   1.057
19867WAT     H259844   6.389   8.854   1.037
19868WAT      O59845   7.262   2.282   9.176
19868WAT     H159846   7.164   2.302   9.181
19868WAT     H259847   7.288   2.224   9.253
19869WAT      O59848   2.171   2.404   2.057
19869WAT     H159849   2.241   2.443   1.998
19869WAT     H259850   2.174   2.449   2.147
19870WAT      O59851   6.211   5.276   2.834
19870WAT     H159852   6.210   5.236   2.742
19870WAT     H259853   6.303   5.269   2.872
19871WAT      O59854   8.314   4.884   6.992
19871WAT     H159855   8.398   4.937   7.005
19871WAT     H259856   8.325   4.793   7.030
19872WAT      O59857   7.137   2.303   6.928
19872WAT     H159858   7.060   2.305   6.991
19872WAT     H259859   7.104   2.303   6.834
19873WAT      O59860   4.795   1.731   1.052
19873WAT     H159861   4.803   1.757   1.148
19873WAT     H259862   4.845   1.797   0.996
19874WAT      O59863   1.204   4.110   6.122
19874WAT     H159864   1.132   4.160   6.171
19874WAT     H259865   1.169   4.021   6.093
19875WAT      O59866   5.978   3.450   0.580
19875WAT     H159867   5.960   3.352   0.591
19875WAT     H259868   5.903   3.492   0.528
19876WAT      O59869   2.462   8.495   8.511
19876WAT     H159870   2.420   8.517   8.423
19876WAT     H259871   2.504   8.577   8.550
19877WAT      O59872   7.672   5.513   7.913
19877WAT     H159873   7.716   5.563   7.987
19877WAT     H259874   7.736   5.502   7.837
19878WAT      O59875   5.759   3.766   1.791
19878WAT     H159876   5.720   3.682   1.754
19878WAT     H259877   5.685   3.833   1.807
19879WAT      O59878   7.886   8.446   8.072
19879WAT     H159879   7.846   8.533   8.101
19879WAT     H259880   7.815   8.385   8.038
19880WAT      O59881   6.947   6.522   8.994
19880WAT     H159882   6.953   6.446   9.059
19880WAT     H259883   7.033   6.574   8.995
19881WAT      O59884   2.615   2.052   0.556
19881WAT     H159885   2.547   2.004   0.611
19881WAT     H259886   2.630   2.144   0.593
19882WAT      O59887   3.550   0.542   8.528
19882WAT     H159888   3.542   0.451   8.487
19882WAT     H259889   3.646   0.571   8.527
19883WAT      O59890   6.690   3.945   0.219
19883WAT     H159891   6.734   3.869   0.170
19883WAT     H259892   6.595   3.922   0.238
19884WAT      O59893   2.744   0.845   4.226
19884WAT     H159894   2.783   0.880   4.311
19884WAT     H259895   2.808   0.860   4.151
19885WAT      O59896   9.795   8.285   6.561
19885WAT     H159897   9.784   8.193   6.599
19885WAT     H259898   9.830   8.346   6.632
19886WAT      O59899   3.843   8.360   6.528
19886WAT     H159900   3.874   8.384   6.436
19886WAT     H259901   3.898   8.284   6.563
19887WAT      O59902   5.019   2.049   0.741
19887WAT     H159903   5.091   1.993   0.700
19887WAT     H259904   4.943   2.058   0.676
19888WAT      O59905   4.465   4.649   6.515
19888WAT     H159906   4.552   4.637   6.563
19888WAT     H259907   4.457   4.580   6.443
19889WAT      O59908   9.073   5.224   0.567
19889WAT     H159909   9.070   5.124   0.577
19889WAT     H259910   9.041   5.249   0.476
19890WAT      O59911   8.772   1.044   5.364
19890WAT     H159912   8.693   1.095   5.399
19890WAT     H259913   8.745   0.988   5.286
19891WAT      O59914   1.976   3.832   9.781
19891WAT     H159915   2.017   3.908   9.830
19891WAT     H259916   1.884   3.815   9.818
19892WAT      O59917   0.920   5.577   0.157
19892WAT     H159918   0.971   5.579   0.070
19892WAT     H259919   0.876   5.488   0.167
19893WAT      O59920   8.292   0.957   3.680
19893WAT     H159921   8.215   1.006   3.639
19893WAT     H259922   8.340   1.017   3.743
19894WAT      O59923   3.404   7.513   6.249
19894WAT     H159924   3.402   7.496   6.347
19894WAT     H259925   3.491   7.482   6.211
19895WAT      O59926   9.031   2.746   6.865
19895WAT     H159927   9.002   2.659   6.903
19895WAT     H259928   9.080   2.730   6.779
19896WAT      O59929   7.419   1.831   5.527
19896WAT     H159930   7.416   1.828   5.627
19896WAT     H259931   7.391   1.743   5.490
19897WAT      O59932   3.238   2.371   6.781
19897WAT     H159933   3.230   2.402   6.686
19897WAT     H259934   3.183   2.430   6.840
19898WAT      O59935   0.247   8.703   7.786
19898WAT     H159936   0.327   8.666   7.738
19898WAT     H259937   0.277   8.776   7.848
19899WAT      O59938   6.248   4.011   5.552
19899WAT     H159939   6.306   4.090   5.531
19899WAT     H259940   6.157   4.025   5.513
19900WAT      O59941   1.633   9.214   8.894
19900WAT     H159942   1.557   9.279   8.887
19900WAT     H259943   1.603   9.134   8.947
19901WAT      O59944   2.006   4.758   7.644
19901WAT     H159945   2.071   4.685   7.622
19901WAT     H259946   2.016   4.784   7.740
19902WAT      O59947   7.978   9.308   8.504
19902WAT     H159948   7.939   9.229   8.456
19902WAT     H259949   7.967   9.295   8.603
19903WAT      O59950   4.401   6.847   6.898
19903WAT     H159951   4.362   6.872   6.987
19903WAT     H259952   4.500   6.845   6.904
19904WAT      O59953   2.615   8.827   9.875
19904WAT     H159954   2.639   8.920   9.902
19904WAT     H259955   2.699   8.775   9.856
19905WAT      O59956   6.030   4.574   0.407
19905WAT     H159957   6.026   4.520   0.491
19905WAT     H259958   6.125   4.596   0.387
19906WAT      O59959   3.404   8.299   6.777
19906WAT     H159960   3.370   8.241   6.703
19906WAT     H259961   3.443   8.383   6.737
19907WAT      O59962   3.462   8.460   0.892
19907WAT     H159963   3.531   8.515   0.939
19907WAT     H259964   3.441   8.501   0.803
19908WAT      O59965   7.221   5.183   9.438
19908WAT     H159966   7.278   5.105   9.413
19908WAT     H259967   7.277   5.250   9.489
19909WAT      O59968   3.313   0.624   0.633
19909WAT     H159969   3.324   0.525   0.627
19909WAT     H259970   3.403   0.667   0.641
19910WAT      O59971   9.622   8.743   8.748
19910WAT     H159972   9.589   8.716   8.658
19910WAT     H259973   9.608   8.842   8.760
19911WAT      O59974   9.122   1.325   9.858
19911WAT     H159975   9.056   1.357   9.790
19911WAT     H259976   9.081   1.331   9.949
19912WAT      O59977   7.924   5.548   2.833
19912WAT     H159978   7.912   5.449   2.840
19912WAT     H259979   7.870   5.594   2.903
19913WAT      O59980   2.641   1.898   2.523
19913WAT     H159981   2.590   1.980   2.550
19913WAT     H259982   2.665   1.845   2.605
19914WAT      O59983   5.382   5.792   9.846
19914WAT     H159984   5.376   5.692   9.852
19914WAT     H259985   5.470   5.822   9.881
19915WAT      O59986   7.742   0.327   7.577
19915WAT     H159987   7.840   0.306   7.576
19915WAT     H259988   7.692   0.251   7.618
19916WAT      O59989   3.920   7.755   0.479
19916WAT     H159990   3.878   7.810   0.551
19916WAT     H259991   3.999   7.706   0.516
19917WAT      O59992   3.577   5.131   8.850
19917WAT     H159993   3.559   5.121   8.948
19917WAT     H259994   3.517   5.070   8.799
19918WAT      O59995   6.545   1.990   1.025
19918WAT     H159996   6.637   1.953   1.040
19918WAT     H259997   6.495   1.931   0.962
19919WAT      O59998   6.824   7.419   3.320
19919WAT     H159999   6.861   7.494   3.266
19919WAT     H260000   6.735   7.392   3.282
19920WAT      O60001   8.442   6.563   7.853
19920WAT     H160002   8.413   6.658   7.867
19920WAT     H260003   8.410   6.532   7.763
19921WAT      O60004   1.743   9.803   8.529
19921WAT     H160005   1.666   9.748   8.562
19921WAT     H260006   1.806   9.744   8.478
19922WAT      O60007   1.955   2.140   3.110
19922WAT     H160008   1.974   2.042   3.115
19922WAT     H260009   1.964   2.180   3.201
19923WAT      O60010   4.021   6.364   6.034
19923WAT     H160011   4.059   6.442   6.083
19923WAT     H260012   4.092   6.323   5.977
19924WAT      O60013   7.560   2.137   3.422
19924WAT     H160014   7.497   2.065   3.453
19924WAT     H260015   7.528   2.225   3.456
19925WAT      O60016   7.959   8.145   6.189
19925WAT     H160017   7.892   8.218   6.181
19925WAT     H260018   7.913   8.061   6.217
19926WAT      O60019   0.200   2.808   4.402
19926WAT     H160020   0.288   2.850   4.383
19926WAT     H260021   0.202   2.712   4.375
19927WAT      O60022   9.665   9.530   0.915
19927WAT     H160023   9.646   9.436   0.942
19927WAT     H260024   9.722   9.575   0.984
19928WAT      O60025   4.919   2.242   6.254
19928WAT     H160026   4.833   2.277   6.219
19928WAT     H260027   4.985   2.317   6.263
19929WAT      O60028   3.524   3.383   6.641
19929WAT     H160029   3.456   3.381   6.714
19929WAT     H260030   3.597   3.318   6.661
19930WAT      O60031   0.326   5.055   0.990
19930WAT     H160032   0.424   5.036   0.989
19930WAT     H260033   0.290   5.041   1.083
19931WAT      O60034   4.114   7.935   3.788
19931WAT     H160035   4.187   7.952   3.854
19931WAT     H260036   4.154   7.910   3.700
19932WAT      O60037   4.286   2.172   2.859
19932WAT     H160038   4.360   2.230   2.827
19932WAT     H260039   4.215   2.229   2.902
19933WAT      O60040   9.113   0.973   2.306
19933WAT     H160041   9.071   1.028   2.234
19933WAT     H260042   9.052   0.898   2.332
19934WAT      O60043   9.861   5.159   2.333
19934WAT     H160044   9.856   5.067   2.371
19934WAT     H260045   9.792   5.217   2.377
19935WAT      O60046   0.774   0.305   0.299
19935WAT     H160047   0.842   0.357   0.248
19935WAT     H260048   0.801   0.209   0.302
19936WAT      O60049   0.375   3.442   2.037
19936WAT     H160050   0.339   3.490   1.957
19936WAT     H260051   0.460   3.396   2.014
19937WAT      O60052   6.381   3.288   6.945
19937WAT     H160053   6.337   3.213   6.896
19937WAT     H260054   6.373   3.273   7.043
19938WAT      O60055   7.276   8.484   7.708
19938WAT     H160056   7.346   8.471   7.778
19938WAT     H260057   7.189   8.447   7.740
19939WAT      O60058   6.363   5.167   9.419
19939WAT     H160059   6.374   5.166   9.320
19939WAT     H260060   6.443   5.126   9.462
19940WAT      O60061   4.645   0.625   6.023
19940WAT     H160062   4.547   0.637   6.037
19940WAT     H260063   4.695   0.669   6.097
19941WAT      O60064   2.112   9.560   6.405
19941WAT     H160065   2.076   9.472   6.435
19941WAT     H260066   2.038   9.617   6.372
19942WAT      O60067   5.977   8.688   4.789
19942WAT     H160068   5.957   8.617   4.722
19942WAT     H260069   6.021   8.646   4.869
19943WAT      O60070   7.594   6.592   6.580
19943WAT     H160071   7.495   6.581   6.579
19943WAT     H260072   7.622   6.637   6.664
19944WAT      O60073   3.259   6.332   3.527
19944WAT     H160074   3.179   6.384   3.496
19944WAT     H260075   3.256   6.240   3.489
19945WAT      O60076   8.782   5.797   1.947
19945WAT     H160077   8.744   5.862   2.013
19945WAT     H260078   8.721   5.789   1.868
19946WAT      O60079   9.600   3.899   9.598
19946WAT     H160080   9.513   3.929   9.637
19946WAT     H260081   9.596   3.800   9.580
19947WAT      O60082   9.272   3.717   5.144
19947WAT     H160083   9.188   3.716   5.090
19947WAT     H260084   9.259   3.773   5.225
19948WAT      O60085   5.982   8.573   1.653
19948WAT     H160086   5.917   8.498   1.643
19948WAT     H260087   5.965   8.641   1.581
19949WAT      O60088   9.384   0.804   9.085
19949WAT     H160089   9.346   0.895   9.072
19949WAT     H260090   9.481   0.803   9.058
19950WAT      O60091   2.393   9.665   4.022
19950WAT     H160092   2.377   9.699   4.115
19950WAT     H260093   2.430   9.573   4.026
19951WAT      O60094   1.988   6.097   7.929
19951WAT     H160095   1.895   6.129   7.946
19951WAT     H260096   2.024   6.053   8.011
19952WAT      O60097   5.188   3.703   8.389
19952WAT     H160098   5.220   3.659   8.305
19952WAT     H260099   5.211   3.645   8.468
19953WAT      O60100   1.467   0.499   8.086
19953WAT     H160101   1.558   0.536   8.066
19953WAT     H260102   1.399   0.545   8.030
19954WAT      O60103   4.387   1.495   3.265
19954WAT     H160104   4.298   1.451   3.275
19954WAT     H260105   4.374   1.593   3.247
19955WAT      O60106   5.064   7.763   8.440
19955WAT     H160107   5.152   7.715   8.439
19955WAT     H260108   4.990   7.698   8.419
19956WAT      O60109   7.034   4.398   6.259
19956WAT     H160110   6.947   4.377   6.303
19956WAT     H260111   7.030   4.490   6.220
19957WAT      O60112   2.480   5.451   5.584
19957WAT     H160113   2.512   5.415   5.672
19957WAT     H260114   2.423   5.383   5.539
19958WAT      O60115   7.330   5.876   7.167
19958WAT     H160116   7.273   5.958   7.155
19958WAT     H260117   7.366   5.847   7.078
19959WAT      O60118   0.493   0.408   1.211
19959WAT     H160119   0.559   0.333   1.203
19959WAT     H260120   0.542   0.491   1.238
19960WAT      O60121   1.825   6.520   9.763
19960WAT     H160122   1.789   6.613   9.751
19960WAT     H260123   1.761   6.467   9.818
19961WAT      O60124   1.014   0.068   4.125
19961WAT     H160125   1.034   0.166   4.125
19961WAT     H260126   1.093   0.018   4.161
19962WAT      O60127   1.349   2.807   8.190
19962WAT     H160128   1.308   2.895   8.164
19962WAT     H260129   1.441   2.802   8.153
19963WAT      O60130   0.649   4.384   0.748
19963WAT     H160131   0.707   4.324   0.694
19963WAT     H260132   0.629   4.467   0.696
19964WAT      O60133   4.490   0.553   3.770
19964WAT     H160134   4.438   0.555   3.855
19964WAT     H260135   4.578   0.599   3.784
19965WAT      O60136   9.083   0.063   8.754
19965WAT     H160137   9.069  -0.030   8.786
19965WAT     H260138   9.060   0.069   8.657
19966WAT      O60139   6.369   2.524   3.743
19966WAT     H160140   6.408   2.503   3.833
19966WAT     H260141   6.298   2.594   3.754
19967WAT      O60142   0.090   3.155   8.649
19967WAT     H160143   0.065   3.103   8.731
19967WAT     H260144   0.189   3.148   8.634
19968WAT      O60145   9.869   8.485   2.698
19968WAT     H160146   9.941   8.549   2.726
19968WAT     H260147   9.790   8.495   2.758
19969WAT      O60148   5.797   0.736   9.461
19969WAT     H160149   5.703   0.749   9.493
19969WAT     H260150   5.846   0.823   9.467
19970WAT      O60151   3.567   8.981   8.020
19970WAT     H160152   3.503   8.964   8.095
19970WAT     H260153   3.637   8.909   8.019
19971WAT      O60154   6.899   8.546   0.218
19971WAT     H160155   6.811   8.575   0.181
19971WAT     H260156   6.968   8.552   0.146
19972WAT      O60157   0.210   2.624   5.168
19972WAT     H160158   0.137   2.555   5.175
19972WAT     H260159   0.169   2.715   5.159
19973WAT      O60160   6.974   8.070   5.387
19973WAT     H160161   6.913   8.107   5.457
19973WAT     H260162   7.064   8.114   5.394
19974WAT      O60163   2.095   7.201   9.502
19974WAT     H160164   2.000   7.232   9.505
19974WAT     H260165   2.152   7.266   9.552
19975WAT      O60166   7.741   9.760   8.051
19975WAT     H160167   7.728   9.661   8.052
19975WAT     H260168   7.736   9.795   8.145
19976WAT      O60169   2.828   7.595   9.301
19976WAT     H160170   2.776   7.679   9.312
19976WAT     H260171   2.889   7.583   9.380
19977WAT      O60172   6.740   0.803   6.517
19977WAT     H160173   6.823   0.765   6.558
19977WAT     H260174   6.681   0.840   6.589
19978WAT      O60175   7.180   3.041   4.394
19978WAT     H160176   7.221   2.957   4.429
19978WAT     H260177   7.206   3.053   4.298
19979WAT      O60178   0.514   4.623   7.140
19979WAT     H160179   0.426   4.631   7.186
19979WAT     H260180   0.574   4.564   7.192
19980WAT      O60181   6.809   6.416   1.621
19980WAT     H160182   6.809   6.317   1.638
19980WAT     H260183   6.892   6.440   1.571
19981WAT      O60184   0.909   3.822   3.643
19981WAT     H160185   0.898   3.772   3.558
19981WAT     H260186   0.840   3.791   3.709
19982WAT      O60187   3.725   2.240   3.025
19982WAT     H160188   3.715   2.275   3.118
19982WAT     H260189   3.776   2.305   2.969
19983WAT      O60190   4.503   3.511   4.382
19983WAT     H160191   4.449   3.595   4.375
19983WAT     H260192   4.598   3.531   4.360
19984WAT      O60193   7.971   9.705   2.485
19984WAT     H160194   8.011   9.723   2.575
19984WAT     H260195   7.949   9.608   2.478
19985WAT      O60196   1.950   3.755   3.186
19985WAT     H160197   1.927   3.813   3.108
19985WAT     H260198   1.946   3.659   3.157
19986WAT      O60199   7.733   5.965   4.324
19986WAT     H160200   7.724   6.049   4.377
19986WAT     H260201   7.830   5.940   4.318
19987WAT      O60202   6.672   7.689   7.475
19987WAT     H160203   6.743   7.693   7.546
19987WAT     H260204   6.591   7.644   7.512
19988WAT      O60205   0.899   6.734   3.003
19988WAT     H160206   0.885   6.636   3.005
19988WAT     H260207   0.847   6.774   2.927
19989WAT      O60208   5.205   7.027   0.414
19989WAT     H160209   5.241   6.951   0.469
19989WAT     H260210   5.187   6.994   0.321
19990WAT      O60211   4.541   3.648   5.077
19990WAT     H160212   4.580   3.619   4.990
19990WAT     H260213   4.447   3.614   5.084
19991WAT      O60214   4.992   4.246   0.725
19991WAT     H160215   5.052   4.287   0.794
19991WAT     H260216   5.014   4.149   0.715
19992WAT      O60217   1.320   6.046   8.774
19992WAT     H160218   1.269   5.960   8.776
19992WAT     H260219   1.321   6.086   8.866
19993WAT      O60220   0.152   1.881   7.047
19993WAT     H160221   0.246   1.846   7.051
19993WAT     H260222   0.089   1.804   7.036
19994WAT      O60223   9.134   8.011   6.093
19994WAT     H160224   9.230   8.034   6.109
19994WAT     H260225   9.075   8.076   6.140
19995WAT      O60226   9.000   7.568   9.054
19995WAT     H160227   9.099   7.563   9.062
19995WAT     H260228   8.972   7.664   9.045
19996WAT      O60229   7.952   7.591   1.734
19996WAT     H160230   8.024   7.607   1.667
19996WAT     H260231   7.885   7.666   1.729
19997WAT      O60232   5.239   4.114   0.510
19997WAT     H160233   5.207   4.186   0.448
19997WAT     H260234   5.337   4.126   0.526
19998WAT      O60235   6.510   8.187   0.071
19998WAT     H160236   6.493   8.119  -0.000
19998WAT     H260237   6.446   8.264   0.060
19999WAT      O60238   6.069   2.232   5.763
19999WAT     H160239   6.126   2.152   5.747
19999WAT     H260240   5.981   2.220   5.718
20000WAT      O60241   5.979   4.760   3.765
20000WAT     H160242   5.945   4.669   3.740
20000WAT     H260243   6.016   4.805   3.683
20001WAT      O60244   0.846   3.239   7.942
20001WAT     H160245   0.940   3.273   7.952
20001WAT     H260246   0.847   3.156   7.887
20002WAT      O60247   0.443   0.582   5.502
20002WAT     H160248   0.539   0.569   5.479
20002WAT     H260249   0.432   0.584   5.601
20003WAT      O60250   6.611   2.576   8.820
20003WAT     H160251   6.620   2.675   8.820
20003WAT     H260252   6.697   2.535   8.789
20004WAT      O60253   0.563   8.448   2.222
20004WAT     H160254   0.587   8.374   2.285
20004WAT     H260255   0.534   8.528   2.275
20005WAT      O60256   5.258   2.658   8.077
20005WAT     H160257   5.171   2.700   8.050
20005WAT     H260258   5.248   2.559   8.077
20006WAT      O60259   1.687   5.766   5.745
20006WAT     H160260   1.595   5.751   5.708
20006WAT     H260261   1.750   5.699   5.706
20007WAT      O60262   6.935   1.530   2.942
20007WAT     H160263   7.034   1.528   2.935
20007WAT     H260264   6.895   1.541   2.851
20008WAT      O60265   6.264   9.193   1.262
20008WAT     H160266   6.209   9.152   1.189
20008WAT     H260267   6.338   9.246   1.222
20009WAT      O60268   9.451   5.589   2.292
20009WAT     H160269   9.363   5.551   2.264
20009WAT     H260270   9.518   5.577   2.219
20010WAT      O60271   6.163   2.538   1.340
20010WAT     H160272   6.068   2.561   1.364
20010WAT     H260273   6.223   2.612   1.370
20011WAT      O60274   9.728   8.261   2.584
20011WAT     H160275   9.792   8.338   2.585
20011WAT     H260276   9.646   8.286   2.533
20012WAT      O60277   0.478   0.557   6.326
20012WAT     H160278   0.441   0.471   6.361
20012WAT     H260279   0.458   0.631   6.391
20013WAT      O60280   9.256   4.987   4.760
20013WAT     H160281   9.209   4.903   4.733
20013WAT     H260282   9.283   4.981   4.856
20014WAT      O60283   2.682   6.253   7.843
20014WAT     H160284   2.616   6.216   7.908
20014WAT     H260285   2.641   6.258   7.752
20015WAT      O60286   4.779   9.206   9.146
20015WAT     H160287   4.761   9.107   9.147
20015WAT     H260288   4.841   9.229   9.221
20016WAT      O60289   8.049   1.806   2.932
20016WAT     H160290   8.008   1.891   2.899
20016WAT     H260291   8.028   1.732   2.867
20017WAT      O60292   7.467   9.099   6.108
20017WAT     H160293   7.435   9.172   6.168
20017WAT     H260294   7.561   9.074   6.132
20018WAT      O60295   2.132   0.658   6.431
20018WAT     H160296   2.038   0.625   6.432
20018WAT     H260297   2.136   0.750   6.471
20019WAT      O60298   5.810   7.497   2.388
20019WAT     H160299   5.881   7.432   2.415
20019WAT     H260300   5.743   7.505   2.462
20020WAT      O60301   5.009   2.504   3.546
20020WAT     H160302   4.911   2.497   3.527
20020WAT     H260303   5.045   2.586   3.502
20021WAT      O60304   5.089   8.879   6.290
20021WAT     H160305   5.073   8.896   6.193
20021WAT     H260306   5.161   8.810   6.300
20022WAT      O60307   5.207   5.545   4.694
20022WAT     H160308   5.300   5.546   4.656
20022WAT     H260309   5.150   5.611   4.646
20023WAT      O60310   7.557   0.165   0.847
20023WAT     H160311   7.619   0.114   0.908
20023WAT     H260312   7.605   0.185   0.762
20024WAT      O60313   8.937   3.879   0.728
20024WAT     H160314   8.889   3.857   0.643
20024WAT     H260315   8.904   3.821   0.802
20025WAT      O60316   7.685   0.682   5.503
20025WAT     H160317   7.600   0.690   5.451
20025WAT     H260318   7.748   0.755   5.476
20026WAT      O60319   0.999   5.974   6.314
20026WAT     H160320   1.030   5.910   6.385
20026WAT     H260321   0.960   6.055   6.358
20027WAT      O60322   2.567   0.636   4.182
20027WAT     H160323   2.565   0.613   4.279
20027WAT     H260324   2.634   0.709   4.167
20028WAT      O60325   4.869   9.445   4.074
20028WAT     H160326   4.832   9.358   4.041
20028WAT     H260327   4.875   9.442   4.174
20029WAT      O60328   1.820   5.512   8.243
20029WAT     H160329   1.798   5.459   8.161
20029WAT     H260330   1.748   5.579   8.260
20030WAT      O60331   3.961   5.878   0.464
20030WAT     H160332   3.953   5.909   0.369
20030WAT     H260333   3.870   5.871   0.505
20031WAT      O60334   9.867   2.482   8.893
20031WAT     H160335   9.867   2.414   8.820
20031WAT     H260336   9.868   2.574   8.854
20032WAT      O60337   0.118   3.934   1.257
20032WAT     H160338   0.189   3.984   1.208
20032WAT     H260339   0.125   3.836   1.237
20033WAT      O60340   8.404   0.013   6.376
20033WAT     H160341   8.445   0.058   6.455
20033WAT     H260342   8.362  -0.073   6.405
20034WAT      O60343   6.829   3.070   3.592
20034WAT     H160344   6.842   3.016   3.675
20034WAT     H260345   6.753   3.134   3.605
20035WAT      O60346   4.172   3.572   7.180
20035WAT     H160347   4.129   3.626   7.253
20035WAT     H260348   4.161   3.620   7.093
20036WAT      O60349   2.490   3.359   9.695
20036WAT     H160350   2.490   3.329   9.599
20036WAT     H260351   2.534   3.448   9.702
20037WAT      O60352   7.926   7.169   3.557
20037WAT     H160353   7.866   7.193   3.480
20037WAT     H260354   7.932   7.069   3.565
20038WAT      O60355   5.650   3.492   1.742
20038WAT     H160356   5.577   3.507   1.808
20038WAT     H260357   5.673   3.395   1.739
20039WAT      O60358   8.645   5.785   5.982
20039WAT     H160359   8.571   5.718   5.991
20039WAT     H260360   8.622   5.850   5.909
20040WAT      O60361   3.354   3.821   1.457
20040WAT     H160362   3.332   3.918   1.468
20040WAT     H260363   3.454   3.809   1.458
20041WAT      O60364   2.627   8.168   8.785
20041WAT     H160365   2.636   8.155   8.686
20041WAT     H260366   2.718   8.172   8.826
20042WAT      O60367   3.561   1.370   3.479
20042WAT     H160368   3.483   1.361   3.418
20042WAT     H260369   3.569   1.288   3.535
20043WAT      O60370   6.664   4.552   5.826
20043WAT     H160371   6.628   4.635   5.785
20043WAT     H260372   6.760   4.540   5.798
20044WAT      O60373   0.658   4.215   7.911
20044WAT     H160374   0.721   4.263   7.850
20044WAT     H260375   0.669   4.248   8.004
20045WAT      O60376   0.462   3.890   6.271
20045WAT     H160377   0.403   3.920   6.196
20045WAT     H260378   0.557   3.890   6.241
20046WAT      O60379   7.676   9.697   2.265
20046WAT     H160380   7.618   9.666   2.341
20046WAT     H260381   7.732   9.774   2.295
20047WAT      O60382   5.891   2.270   9.274
20047WAT     H160383   5.966   2.214   9.310
20047WAT     H260384   5.897   2.362   9.312
20048WAT      O60385   0.665   6.729   5.060
20048WAT     H160386   0.648   6.821   5.096
20048WAT     H260387   0.589   6.669   5.086
20049WAT      O60388   6.716   9.714   6.821
20049WAT     H160389   6.725   9.775   6.742
20049WAT     H260390   6.730   9.619   6.791
20050WAT      O60391   6.047   9.127   3.223
20050WAT     H160392   6.101   9.209   3.242
20050WAT     H260393   5.995   9.102   3.305
20051WAT      O60394   4.263   1.769   1.007
20051WAT     H160395   4.352   1.796   0.972
20051WAT     H260396   4.220   1.703   0.944
20052WAT      O60397   7.612   7.675   8.771
20052WAT     H160398   7.542   7.657   8.840
20052WAT     H260399   7.587   7.629   8.685
20053WAT      O60400   3.903   2.046   3.112
20053WAT     H160401   3.839   2.093   3.052
20053WAT     H260402   3.917   2.101   3.195
20054WAT      O60403   1.338   4.520   5.015
20054WAT     H160404   1.342   4.567   4.927
20054WAT     H260405   1.298   4.580   5.084
20055WAT      O60406   8.797   8.320   1.923
20055WAT     H160407   8.755   8.325   1.832
20055WAT     H260408   8.759   8.391   1.982
20056WAT      O60409   2.502   2.776   3.888
20056WAT     H160410   2.471   2.703   3.949
20056WAT     H260411   2.535   2.736   3.803
20057WAT      O60412   3.920   8.790   5.780
20057WAT     H160413   3.922   8.690   5.782
20057WAT     H260414   3.946   8.826   5.870
20058WAT      O60415   9.052   8.590   8.791
20058WAT     H160416   9.068   8.595   8.693
20058WAT     H260417   8.957   8.612   8.811
20059WAT      O60418   3.149   1.461   7.362
20059WAT     H160419   3.135   1.542   7.304
20059WAT     H260420   3.164   1.381   7.304
20060WAT      O60421   3.735   6.857   2.879
20060WAT     H160422   3.791   6.791   2.930
20060WAT     H260423   3.737   6.945   2.926
20061WAT      O60424   4.636   0.876   5.756
20061WAT     H160425   4.648   0.886   5.854
20061WAT     H260426   4.723   0.851   5.714
20062WAT      O60427   4.079   4.398   0.842
20062WAT     H160428   4.154   4.440   0.892
20062WAT     H260429   4.013   4.360   0.907
20063WAT      O60430   4.342   2.417   3.624
20063WAT     H160431   4.364   2.475   3.702
20063WAT     H260432   4.348   2.472   3.540
20064WAT      O60433   1.230   3.569   5.973
20064WAT     H160434   1.131   3.575   5.987
20064WAT     H260435   1.265   3.486   6.015
20065WAT      O60436   8.711   4.318   7.855
20065WAT     H160437   8.689   4.377   7.933
20065WAT     H260438   8.697   4.223   7.880
20066WAT      O60439   7.525   3.989   2.932
20066WAT     H160440   7.443   4.000   2.876
20066WAT     H260441   7.510   4.033   3.021
20067WAT      O60442   7.822   8.704   8.347
20067WAT     H160443   7.921   8.693   8.359
20067WAT     H260444   7.802   8.728   8.252
20068WAT      O60445   7.578   6.268   4.208
20068WAT     H160446   7.501   6.320   4.172
20068WAT     H260447   7.557   6.236   4.301
20069WAT      O60448   4.032   6.725   5.029
20069WAT     H160449   4.049   6.654   5.097
20069WAT     H260450   3.934   6.734   5.012
20070WAT      O60451   4.112   8.059   8.033
20070WAT     H160452   4.044   8.090   7.966
20070WAT     H260453   4.082   7.973   8.073
20071WAT      O60454   0.386   2.632   5.383
20071WAT     H160455   0.343   2.631   5.292
20071WAT     H260456   0.316   2.617   5.452
20072WAT      O60457   7.157   8.563   4.779
20072WAT     H160458   7.225   8.508   4.828
20072WAT     H260459   7.087   8.503   4.742
20073WAT      O60460   3.754   5.077   9.823
20073WAT     H160461   3.700   5.087   9.906
20073WAT     H260462   3.718   5.001   9.769
20074WAT      O60463   2.934   0.601   1.111
20074WAT     H160464   2.892   0.682   1.151
20074WAT     H260465   3.029   0.594   1.143
20075WAT      O60466   6.043   8.094   3.511
20075WAT     H160467   5.966   8.070   3.571
20075WAT     H260468   6.110   8.020   3.513
20076WAT      O60469   4.089   0.492   3.911
20076WAT     H160470   4.060   0.454   3.823
20076WAT     H260471   4.012   0.489   3.976
20077WAT      O60472   6.167   9.659   0.071
20077WAT     H160473   6.259   9.637   0.104
20077WAT     H260474   6.173   9.703  -0.018
20078WAT      O60475   9.216   3.273   3.164
20078WAT     H160476   9.249   3.185   3.128
20078WAT     H260477   9.289   3.341   3.157
20079WAT      O60478   8.500   1.444   0.500
20079WAT     H160479   8.469   1.487   0.584
20079WAT     H260480   8.565   1.505   0.454
20080WAT      O60481   6.494   1.168   1.217
20080WAT     H160482   6.556   1.101   1.257
20080WAT     H260483   6.466   1.136   1.126
20081WAT      O60484   2.072   3.413   5.792
20081WAT     H160485   1.983   3.453   5.769
20081WAT     H260486   2.107   3.362   5.714
20082WAT      O60487   6.836   4.026   3.382
20082WAT     H160488   6.748   4.019   3.335
20082WAT     H260489   6.820   4.047   3.478
20083WAT      O60490   6.415   4.802   3.764
20083WAT     H160491   6.383   4.888   3.804
20083WAT     H260492   6.504   4.779   3.801
20084WAT      O60493   3.117   9.108   5.056
20084WAT     H160494   3.188   9.051   5.015
20084WAT     H260495   3.147   9.139   5.147
20085WAT      O60496   0.661   7.225   3.071
20085WAT     H160497   0.611   7.166   3.134
20085WAT     H260498   0.750   7.247   3.110
20086WAT      O60499   6.807   0.402   6.008
20086WAT     H160500   6.824   0.351   5.923
20086WAT     H260501   6.747   0.480   5.988
20087WAT      O60502   9.100   5.948   8.523
20087WAT     H160503   9.102   5.887   8.444
20087WAT     H260504   9.117   6.042   8.494
20088WAT      O60505   4.725   2.678   2.592
20088WAT     H160506   4.714   2.709   2.498
20088WAT     H260507   4.813   2.631   2.603
20089WAT      O60508   7.944   4.346   6.144
20089WAT     H160509   7.997   4.404   6.083
20089WAT     H260510   7.999   4.267   6.171
20090WAT      O60511   9.580   0.832   9.721
20090WAT     H160512   9.640   0.759   9.754
20090WAT     H260513   9.569   0.824   9.622
20091WAT      O60514   2.788   5.429   4.814
20091WAT     H160515   2.880   5.463   4.831
20091WAT     H260516   2.722   5.487   4.861
20092WAT      O60517   7.238   5.024   3.280
20092WAT     H160518   7.164   5.088   3.258
20092WAT     H260519   7.279   4.990   3.196
20093WAT      O60520   9.481   9.051   1.078
20093WAT     H160521   9.543   8.979   1.048
20093WAT     H260522   9.446   9.029   1.169
20094WAT      O60523   2.716   5.835   1.858
20094WAT     H160524   2.785   5.763   1.845
20094WAT     H260525   2.710   5.858   1.955
20095WAT      O60526   3.266   8.623   3.459
20095WAT     H160527   3.236   8.716   3.440
20095WAT     H260528   3.350   8.625   3.513
20096WAT      O60529   1.867   3.508   4.642
20096WAT     H160530   1.915   3.560   4.571
20096WAT     H260531   1.858   3.413   4.614
20097WAT      O60532   4.869   9.769   8.421
20097WAT     H160533   4.866   9.725   8.331
20097WAT     H260534   4.960   9.755   8.461
20098WAT      O60535   8.950   5.194   8.499
20098WAT     H160536   8.984   5.149   8.582
20098WAT     H260537   8.855   5.221   8.514
20099WAT      O60538   7.072   2.929   8.803
20099WAT     H160539   7.002   2.862   8.828
20099WAT     H260540   7.162   2.887   8.811
20100WAT      O60541   2.144   8.939   6.157
20100WAT     H160542   2.233   8.922   6.116
20100WAT     H260543   2.074   8.936   6.086
20101WAT      O60544   8.252   1.873   6.882
20101WAT     H160545   8.243   1.865   6.782
20101WAT     H260546   8.349   1.876   6.906
20102WAT      O60547   0.827   5.815   3.393
20102WAT     H160548   0.838   5.871   3.312
20102WAT     H260549   0.762   5.859   3.455
20103WAT      O60550   4.560   5.405   6.572
20103WAT     H160551   4.571   5.503   6.589
20103WAT     H260552   4.626   5.377   6.502
20104WAT      O60553   3.579   5.164   3.244
20104WAT     H160554   3.598   5.066   3.242
20104WAT     H260555   3.533   5.190   3.159
20105WAT      O60556   5.726   4.024   7.706
20105WAT     H160557   5.790   3.959   7.666
20105WAT     H260558   5.756   4.047   7.798
20106WAT      O60559   7.258   4.108   0.268
20106WAT     H160560   7.168   4.074   0.297
20106WAT     H260561   7.255   4.131   0.171
20107WAT      O60562   2.075   0.445   3.212
20107WAT     H160563   2.139   0.477   3.142
20107WAT     H260564   2.033   0.524   3.257
20108WAT      O60565   9.525   9.407   7.037
20108WAT     H160566   9.533   9.345   6.959
20108WAT     H260567   9.486   9.357   7.115
20109WAT      O60568   4.148   3.989   0.619
20109WAT     H160569   4.179   3.931   0.543
20109WAT     H260570   4.048   3.998   0.614
20110WAT      O60571   0.307   1.145   6.328
20110WAT     H160572   0.364   1.217   6.289
20110WAT     H260573   0.361   1.089   6.390
20111WAT      O60574   0.028   2.547   7.248
20111WAT     H160575  -0.033   2.483   7.294
20111WAT     H260576  -0.018   2.586   7.168
20112WAT      O60577   2.840   7.875   4.427
20112WAT     H160578   2.749   7.838   4.445
20112WAT     H260579   2.870   7.848   4.336
20113WAT      O60580   2.539   7.358   5.056
20113WAT     H160581   2.616   7.370   5.119
20113WAT     H260582   2.523   7.260   5.041
20114WAT      O60583   4.211   3.084   4.533
20114WAT     H160584   4.294   3.035   4.561
20114WAT     H260585   4.235   3.157   4.470
20115WAT      O60586   3.366   9.143   1.707
20115WAT     H160587   3.296   9.157   1.776
20115WAT     H260588   3.323   9.123   1.619
20116WAT      O60589   5.932   6.161   4.362
20116WAT     H160590   5.833   6.175   4.357
20116WAT     H260591   5.951   6.080   4.419
20117WAT      O60592   3.973   4.758   7.942
20117WAT     H160593   3.884   4.770   7.986
20117WAT     H260594   3.976   4.812   7.858
20118WAT      O60595   7.864   5.705   4.758
20118WAT     H160596   7.833   5.662   4.673
20118WAT     H260597   7.800   5.776   4.786
20119WAT      O60598   8.291   4.859   1.416
20119WAT     H160599   8.261   4.783   1.473
20119WAT     H260600   8.252   4.850   1.325
20120WAT      O60601   7.557   8.042   9.021
20120WAT     H160602   7.644   8.006   8.988
20120WAT     H260603   7.486   8.024   8.954
20121WAT      O60604   8.069   3.319   5.985
20121WAT     H160605   7.971   3.317   5.965
20121WAT     H260606   8.104   3.225   5.988
20122WAT      O60607   6.720   5.923   2.367
20122WAT     H160608   6.817   5.929   2.390
20122WAT     H260609   6.667   5.909   2.451
20123WAT      O60610   8.001   7.983   3.144
20123WAT     H160611   7.970   7.913   3.079
20123WAT     H260612   7.931   7.994   3.215
20124WAT      O60613   2.452   5.447   2.478
20124WAT     H160614   2.359   5.481   2.464
20124WAT     H260615   2.497   5.437   2.389
20125WAT      O60616   1.433   0.367   8.322
20125WAT     H160617   1.514   0.312   8.343
20125WAT     H260618   1.451   0.422   8.241
20126WAT      O60619   1.944   3.204   4.599
20126WAT     H160620   1.908   3.164   4.684
20126WAT     H260621   1.982   3.131   4.542
20127WAT      O60622   1.059   3.096   2.382
20127WAT     H160623   0.986   3.164   2.382
20127WAT     H260624   1.022   3.008   2.411
20128WAT      O60625   0.469   7.381   3.774
20128WAT     H160626   0.490   7.379   3.676
20128WAT     H260627   0.377   7.417   3.788
20129WAT      O60628   2.871   3.765   7.303
20129WAT     H160629   2.826   3.705   7.369
20129WAT     H260630   2.891   3.714   7.220
20130WAT      O60631   8.376   7.240   4.232
20130WAT     H160632   8.413   7.293   4.308
20130WAT     H260633   8.276   7.241   4.236
20131WAT      O60634   9.229   4.264   4.726
20131WAT     H160635   9.265   4.251   4.818
20131WAT     H260636   9.277   4.203   4.662
20132WAT      O60637   9.572   5.144   0.888
20132WAT     H160638   9.630   5.095   0.953
20132WAT     H260639   9.629   5.179   0.814
20133WAT      O60640   2.610   1.246   3.111
20133WAT     H160641   2.654   1.226   3.199
20133WAT     H260642   2.568   1.336   3.115
20134WAT      O60643   7.778   4.423   3.219
20134WAT     H160644   7.719   4.477   3.279
20134WAT     H260645   7.825   4.353   3.274
20135WAT      O60646   8.019   4.689   4.162
20135WAT     H160647   8.033   4.622   4.090
20135WAT     H260648   7.941   4.662   4.218
20136WAT      O60649   4.718   9.288   0.792
20136WAT     H160650   4.736   9.193   0.818
20136WAT     H260651   4.638   9.321   0.842
20137WAT      O60652   7.329   2.088   5.616
20137WAT     H160653   7.347   1.995   5.584
20137WAT     H260654   7.246   2.123   5.571
20138WAT      O60655   4.515   0.961   1.856
20138WAT     H160656   4.522   1.046   1.909
20138WAT     H260657   4.503   0.884   1.919
20139WAT      O60658   1.128   8.187   0.331
20139WAT     H160659   1.097   8.141   0.415
20139WAT     H260660   1.055   8.245   0.296
20140WAT      O60661   1.618   2.854   9.059
20140WAT     H160662   1.526   2.849   9.022
20140WAT     H260663   1.629   2.785   9.131
20141WAT      O60664   9.156   2.900   0.231
20141WAT     H160665   9.114   2.975   0.179
20141WAT     H260666   9.107   2.889   0.317
20142WAT      O60667   4.331   1.387   8.206
20142WAT     H160668   4.349   1.460   8.273
20142WAT     H260669   4.322   1.300   8.254
20143WAT      O60670   7.723   1.799   2.359
20143WAT     H160671   7.793   1.870   2.347
20143WAT     H260672   7.649   1.814   2.293
20144WAT      O60673   3.387   0.399   4.311
20144WAT     H160674   3.405   0.407   4.213
20144WAT     H260675   3.362   0.489   4.347
20145WAT      O60676   1.254   9.181   6.663
20145WAT     H160677   1.187   9.133   6.606
20145WAT     H260678   1.219   9.189   6.756
20146WAT      O60679   6.208   4.583   5.695
20146WAT     H160680   6.299   4.570   5.736
20146WAT     H260681   6.151   4.503   5.716
20147WAT      O60682   4.804   6.676   7.757
20147WAT     H160683   4.748   6.759   7.749
20147WAT     H260684   4.794   6.638   7.848
20148WAT      O60685   1.796   9.709   6.107
20148WAT     H160686   1.871   9.745   6.051
20148WAT     H260687   1.747   9.639   6.054
20149WAT      O60688   8.158   4.075   7.865
20149WAT     H160689   8.157   4.132   7.947
20149WAT     H260690   8.081   4.011   7.868
20150WAT      O60691   2.571   9.072   4.365
20150WAT     H160692   2.643   9.115   4.419
20150WAT     H260693   2.601   8.981   4.336
20151WAT      O60694   8.849   4.900   8.916
20151WAT     H160695   8.832   4.998   8.921
20151WAT     H260696   8.932   4.877   8.966
20152WAT      O60697   6.527   4.741   5.405
20152WAT     H160698   6.498   4.806   5.335
20152WAT     H260699   6.593   4.677   5.366
20153WAT      O60700   3.344   4.683   8.663
20153WAT     H160701   3.333   4.639   8.752
20153WAT     H260702   3.265   4.662   8.605
20154WAT      O60703   1.710   9.559   0.753
20154WAT     H160704   1.727   9.482   0.691
20154WAT     H260705   1.746   9.643   0.712
20155WAT      O60706   2.302   7.436   1.430
20155WAT     H160707   2.206   7.434   1.459
20155WAT     H260708   2.345   7.519   1.464
20156WAT      O60709   4.697   1.473   1.936
20156WAT     H160710   4.747   1.552   1.901
20156WAT     H260711   4.610   1.464   1.889
20157WAT      O60712   2.281   3.218   9.846
20157WAT     H160713   2.212   3.270   9.794
20157WAT     H260714   2.371   3.232   9.805
20158WAT      O60715   7.500   0.893   5.651
20158WAT     H160716   7.461   0.979   5.619
20158WAT     H260717   7.429   0.823   5.654
20159WAT      O60718   8.939   5.542   7.056
20159WAT     H160719   8.981   5.630   7.077
20159WAT     H260720   8.882   5.551   6.975
20160WAT      O60721   3.000   8.509   3.121
20160WAT     H160722   2.927   8.488   3.057
20160WAT     H260723   3.078   8.549   3.072
20161WAT      O60724   2.496   1.288   2.739
20161WAT     H160725   2.443   1.210   2.707
20161WAT     H260726   2.594   1.265   2.736
20162WAT      O60727   7.009   8.507   3.682
20162WAT     H160728   6.927   8.543   3.639
20162WAT     H260729   7.008   8.529   3.780
20163WAT      O60730   5.757   4.844   6.087
20163WAT     H160731   5.756   4.927   6.032
20163WAT     H260732   5.752   4.764   6.026
20164WAT      O60733   5.223   4.024   9.168
20164WAT     H160734   5.237   4.045   9.265
20164WAT     H260735   5.268   4.093   9.112
20165WAT      O60736   9.603   6.146   2.555
20165WAT     H160737   9.670   6.205   2.600
20165WAT     H260738   9.551   6.095   2.624
20166WAT      O60739   0.893   8.652   5.797
20166WAT     H160740   0.799   8.637   5.767
20166WAT     H260741   0.893   8.685   5.892
20167WAT      O60742   9.382   4.434   5.728
20167WAT     H160743   9.468   4.385   5.722
20167WAT     H260744   9.330   4.402   5.807
20168WAT      O60745   6.573   9.058   5.581
20168WAT     H160746   6.597   9.000   5.503
20168WAT     H260747   6.581   9.154   5.554
20169WAT      O60748   1.868   5.639   2.114
20169WAT     H160749   1.783   5.687   2.136
20169WAT     H260750   1.926   5.634   2.195
20170WAT      O60751   8.234   3.944   8.215
20170WAT     H160752   8.295   3.876   8.255
20170WAT     H260753   8.259   4.035   8.248
20171WAT      O60754   9.117   6.541   1.212
20171WAT     H160755   9.138   6.639   1.207
20171WAT     H260756   9.200   6.488   1.194
20172WAT      O60757   2.408   3.992   2.372
20172WAT     H160758   2.347   3.986   2.292
20172WAT     H260759   2.382   4.071   2.427
20173WAT      O60760   5.835   3.239   1.126
20173WAT     H160761   5.774   3.308   1.086
20173WAT     H260762   5.876   3.184   1.053
20174WAT      O60763   1.690   4.520   2.359
20174WAT     H160764   1.722   4.462   2.433
20174WAT     H260765   1.593   4.501   2.341
20175WAT      O60766   4.949   0.449   5.239
20175WAT     H160767   4.954   0.410   5.331
20175WAT     H260768   4.865   0.503   5.231
20176WAT      O60769   2.073   0.904   6.598
20176WAT     H160770   2.024   0.943   6.521
20176WAT     H260771   2.149   0.964   6.623
20177WAT      O60772   1.517   4.071   3.884
20177WAT     H160773   1.474   4.161   3.890
20177WAT     H260774   1.585   4.062   3.957
20178WAT      O60775   3.484   3.780   0.576
20178WAT     H160776   3.470   3.683   0.596
20178WAT     H260777   3.513   3.828   0.659
20179WAT      O60778   2.366   5.732   5.141
20179WAT     H160779   2.322   5.652   5.180
20179WAT     H260780   2.465   5.724   5.150
20180WAT      O60781   2.002   8.323   8.341
20180WAT     H160782   1.929   8.324   8.273
20180WAT     H260783   2.044   8.414   8.347
20181WAT      O60784   8.362   4.874   7.388
20181WAT     H160785   8.356   4.817   7.306
20181WAT     H260786   8.447   4.925   7.388
20182WAT      O60787   5.119   6.404   1.062
20182WAT     H160788   5.178   6.330   1.094
20182WAT     H260789   5.136   6.421   0.965
20183WAT      O60790   5.979   6.251   1.182
20183WAT     H160791   5.887   6.281   1.204
20183WAT     H260792   6.040   6.269   1.259
20184WAT      O60793   9.013   8.340   4.086
20184WAT     H160794   8.935   8.380   4.134
20184WAT     H260795   9.085   8.318   4.152
20185WAT      O60796   3.262   1.610   3.932
20185WAT     H160797   3.242   1.615   4.030
20185WAT     H260798   3.348   1.658   3.913
20186WAT      O60799   2.570   3.197   5.533
20186WAT     H160800   2.524   3.119   5.577
20186WAT     H260801   2.548   3.280   5.583
20187WAT      O60802   1.747   5.288   2.592
20187WAT     H160803   1.835   5.244   2.573
20187WAT     H260804   1.673   5.230   2.559
20188WAT      O60805   7.195   4.283   9.163
20188WAT     H160806   7.226   4.357   9.103
20188WAT     H260807   7.183   4.199   9.110
20189WAT      O60808   4.244   5.187   8.113
20189WAT     H160809   4.274   5.202   8.019
20189WAT     H260810   4.323   5.175   8.172
20190WAT      O60811   4.669   4.957   7.724
20190WAT     H160812   4.743   4.891   7.732
20190WAT     H260813   4.700   5.036   7.670
20191WAT      O60814   9.587   2.765   1.140
20191WAT     H160815   9.680   2.754   1.105
20191WAT     H260816   9.587   2.747   1.239
20192WAT      O60817   3.592   8.492   7.173
20192WAT     H160818   3.584   8.577   7.226
20192WAT     H260819   3.679   8.448   7.195
20193WAT      O60820   3.956   1.885   4.158
20193WAT     H160821   4.027   1.951   4.179
20193WAT     H260822   3.911   1.911   4.072
20194WAT      O60823   7.852   1.014   4.057
20194WAT     H160824   7.832   1.104   4.097
20194WAT     H260825   7.848   0.944   4.129
20195WAT      O60826   0.712   6.602   8.583
20195WAT     H160827   0.757   6.652   8.509
20195WAT     H260828   0.617   6.582   8.557
20196WAT      O60829   8.868   3.117   3.317
20196WAT     H160830   8.869   3.071   3.229
20196WAT     H260831   8.776   3.113   3.356
20197WAT      O60832   7.338   8.186   6.450
20197WAT     H160833   7.387   8.252   6.394
20197WAT     H260834   7.400   8.113   6.479
20198WAT      O60835   0.094   7.012   8.418
20198WAT     H160836   0.061   6.994   8.325
20198WAT     H260837   0.178   6.960   8.434
20199WAT      O60838   0.888   1.023   5.906
20199WAT     H160839   0.872   1.115   5.870
20199WAT     H260840   0.813   0.963   5.879
20200WAT      O60841   7.555   7.688   0.495
20200WAT     H160842   7.588   7.729   0.410
20200WAT     H260843   7.550   7.758   0.566
20201WAT      O60844   0.758   3.993   1.530
20201WAT     H160845   0.763   3.897   1.503
20201WAT     H260846   0.846   4.038   1.512
20202WAT      O60847   3.568   8.347   6.531
20202WAT     H160848   3.668   8.357   6.533
20202WAT     H260849   3.526   8.427   6.574
20203WAT      O60850   0.774   5.896   1.083
20203WAT     H160851   0.685   5.857   1.107
20203WAT     H260852   0.836   5.823   1.055
20204WAT      O60853   3.382   7.616   4.055
20204WAT     H160854   3.422   7.660   4.135
20204WAT     H260855   3.356   7.685   3.988
20205WAT      O60856   8.821   8.409   4.278
20205WAT     H160857   8.779   8.484   4.226
20205WAT     H260858   8.894   8.446   4.336
20206WAT      O60859   3.526   0.649   4.803
20206WAT     H160860   3.583   0.723   4.767
20206WAT     H260861   3.461   0.687   4.869
20207WAT      O60862   8.077   3.833   0.566
20207WAT     H160863   8.054   3.829   0.469
20207WAT     H260864   8.174   3.816   0.578
20208WAT      O60865   3.131   7.253   2.160
20208WAT     H160866   3.113   7.236   2.257
20208WAT     H260867   3.056   7.214   2.106
20209WAT      O60868   9.297   5.911   8.048
20209WAT     H160869   9.329   5.955   8.131
20209WAT     H260870   9.307   5.974   7.971
20210WAT      O60871   4.894   8.352   9.175
20210WAT     H160872   4.860   8.271   9.127
20210WAT     H260873   4.944   8.410   9.110
20211WAT      O60874   1.302   3.122   6.303
20211WAT     H160875   1.329   3.183   6.377
20211WAT     H260876   1.384   3.080   6.264
20212WAT      O60877   1.397   7.090   2.795
20212WAT     H160878   1.355   7.068   2.883
20212WAT     H260879   1.337   7.150   2.742
20213WAT      O60880   9.868   6.287   7.967
20213WAT     H160881   9.775   6.270   8.000
20213WAT     H260882   9.892   6.217   7.899
20214WAT      O60883   5.572   0.036   2.511
20214WAT     H160884   5.574  -0.022   2.430
20214WAT     H260885   5.641   0.005   2.576
20215WAT      O60886   9.008   1.448   6.033
20215WAT     H160887   9.024   1.369   6.092
20215WAT     H260888   9.044   1.430   5.942
20216WAT      O60889   1.907   6.081   4.774
20216WAT     H160890   1.898   5.985   4.748
20216WAT     H260891   1.825   6.109   4.825
20217WAT      O60892   4.862   3.380   5.302
20217WAT     H160893   4.834   3.462   5.352
20217WAT     H260894   4.806   3.371   5.220
20218WAT      O60895   7.053   8.879   5.751
20218WAT     H160896   7.099   8.956   5.794
20218WAT     H260897   6.955   8.893   5.753
20219WAT      O60898   2.982   4.691   0.695
20219WAT     H160899   2.990   4.717   0.791
20219WAT     H260900   3.002   4.771   0.638
20220WAT      O60901   6.652   8.890   6.900
20220WAT     H160902   6.679   8.798   6.926
20220WAT     H260903   6.621   8.940   6.980
20221WAT      O60904   4.998   2.635   6.425
20221WAT     H160905   4.929   2.661   6.358
20221WAT     H260906   4.962   2.651   6.517
20222WAT      O60907   2.700   3.537   2.795
20222WAT     H160908   2.707   3.475   2.717
20222WAT     H260909   2.606   3.537   2.829
20223WAT      O60910   9.802   2.510   3.258
20223WAT     H160911   9.783   2.413   3.243
20223WAT     H260912   9.841   2.550   3.174
20224WAT      O60913   8.779   9.677   8.446
20224WAT     H160914   8.818   9.586   8.459
20224WAT     H260915   8.704   9.692   8.510
20225WAT      O60916   6.641   0.231   2.664
20225WAT     H160917   6.601   0.257   2.752
20225WAT     H260918   6.568   0.221   2.596
20226WAT      O60919   9.393   0.232   5.092
20226WAT     H160920   9.451   0.172   5.147
20226WAT     H260921   9.400   0.205   4.996
20227WAT      O60922   3.713   7.065   8.414
20227WAT     H160923   3.711   7.156   8.456
20227WAT     H260924   3.740   6.997   8.482
20228WAT      O60925   9.611   3.656   0.852
20228WAT     H160926   9.606   3.595   0.773
20228WAT     H260927   9.604   3.603   0.936
20229WAT      O60928   9.040   6.866   9.321
20229WAT     H160929   9.111   6.935   9.305
20229WAT     H260930   9.019   6.819   9.236
20230WAT      O60931   9.734   9.636   4.773
20230WAT     H160932   9.766   9.548   4.738
20230WAT     H260933   9.810   9.700   4.775
20231WAT      O60934   9.688   0.679   0.642
20231WAT     H160935   9.759   0.664   0.711
20231WAT     H260936   9.642   0.592   0.624
20232WAT      O60937   5.692   2.585   7.855
20232WAT     H160938   5.643   2.602   7.941
20232WAT     H260939   5.738   2.496   7.861
20233WAT      O60940   4.992   9.024   7.951
20233WAT     H160941   4.899   9.046   7.921
20233WAT     H260942   5.057   9.086   7.907
20234WAT      O60943   4.298   9.843   3.366
20234WAT     H160944   4.307   9.756   3.318
20234WAT     H260945   4.341   9.915   3.312
20235WAT      O60946   5.923   7.528   0.460
20235WAT     H160947   5.854   7.590   0.498
20235WAT     H260948   5.944   7.555   0.366
20236WAT      O60949   6.410   1.094   2.234
20236WAT     H160950   6.373   1.183   2.208
20236WAT     H260951   6.443   1.047   2.152
20237WAT      O60952   1.842   2.647   4.059
20237WAT     H160953   1.895   2.601   3.987
20237WAT     H260954   1.890   2.638   4.146
20238WAT      O60955   9.785   6.123   6.900
20238WAT     H160956   9.737   6.098   6.984
20238WAT     H260957   9.831   6.211   6.912
20239WAT      O60958   8.848   7.527   2.848
20239WAT     H160959   8.772   7.471   2.814
20239WAT     H260960   8.934   7.493   2.809
20240WAT      O60961   5.957   2.109   7.712
20240WAT     H160962   5.881   2.092   7.775
20240WAT     H260963   6.042   2.118   7.764
20241WAT      O60964   2.835   5.885   3.770
20241WAT     H160965   2.736   5.876   3.757
20241WAT     H260966   2.883   5.822   3.709
20242WAT      O60967   6.546   4.233   2.341
20242WAT     H160968   6.457   4.191   2.356
20242WAT     H260969   6.583   4.203   2.253
20243WAT      O60970   4.023   8.786   4.252
20243WAT     H160971   4.039   8.712   4.186
20243WAT     H260972   3.964   8.752   4.325
20244WAT      O60973   5.072   4.816   2.172
20244WAT     H160974   4.983   4.808   2.218
20244WAT     H260975   5.063   4.787   2.077
20245WAT      O60976   2.120   6.234   5.787
20245WAT     H160977   2.150   6.275   5.873
20245WAT     H260978   2.199   6.200   5.736
20246WAT      O60979   7.221   9.759   5.628
20246WAT     H160980   7.285   9.749   5.551
20246WAT     H260981   7.139   9.705   5.610
20247WAT      O60982   9.565   6.656   6.619
20247WAT     H160983   9.479   6.693   6.654
20247WAT     H260984   9.636   6.664   6.689
20248WAT      O60985   5.314   0.378   6.920
20248WAT     H160986   5.257   0.319   6.977
20248WAT     H260987   5.260   0.456   6.889
20249WAT      O60988   7.551   4.945   5.018
20249WAT     H160989   7.520   4.875   5.082
20249WAT     H260990   7.640   4.920   4.981
20250WAT      O60991   8.050   7.272   6.498
20250WAT     H160992   8.127   7.231   6.547
20250WAT     H260993   8.045   7.234   6.406
20251WAT      O60994   6.758   8.876   8.481
20251WAT     H160995   6.744   8.971   8.509
20251WAT     H260996   6.700   8.816   8.537
20252WAT      O60997   1.104   9.138   8.580
20252WAT     H160998   1.023   9.081   8.597
20252WAT     H260999   1.156   9.099   8.504
20253WAT      O61000   3.167   6.594   4.267
20253WAT     H161001   3.115   6.616   4.185
20253WAT     H261002   3.165   6.495   4.282
20254WAT      O61003   9.317   9.353   9.338
20254WAT     H161004   9.294   9.318   9.429
20254WAT     H261005   9.359   9.443   9.347
20255WAT      O61006   0.289   6.776   3.499
20255WAT     H161007   0.254   6.791   3.591
20255WAT     H261008   0.223   6.720   3.447
20256WAT      O61009   1.560   8.921   1.945
20256WAT     H161010   1.657   8.896   1.943
20256WAT     H261011   1.505   8.839   1.962
20257WAT      O61012   2.397   9.351   1.723
20257WAT     H161013   2.406   9.293   1.642
20257WAT     H261014   2.380   9.294   1.803
20258WAT      O61015   0.714   2.669   0.751
20258WAT     H161016   0.763   2.675   0.664
20258WAT     H261017   0.630   2.723   0.746
20259WAT      O61018   1.641   7.317   2.233
20259WAT     H161019   1.640   7.282   2.139
20259WAT     H261020   1.598   7.407   2.235
20260WAT      O61021   3.429   9.077   9.800
20260WAT     H161022   3.343   9.031   9.779
20260WAT     H261023   3.410   9.168   9.837
20261WAT      O61024   5.947   7.271   6.314
20261WAT     H161025   5.910   7.280   6.406
20261WAT     H261026   5.924   7.181   6.277
20262WAT      O61027   8.865   2.897   1.974
20262WAT     H161028   8.906   2.860   2.058
20262WAT     H261029   8.884   2.835   1.898
20263WAT      O61030   5.140   0.252   7.136
20263WAT     H161031   5.068   0.268   7.204
20263WAT     H261032   5.219   0.211   7.181
20264WAT      O61033   6.390   3.573   2.599
20264WAT     H161034   6.446   3.555   2.518
20264WAT     H261035   6.412   3.507   2.670
20265WAT      O61036   2.862   4.090   5.839
20265WAT     H161037   2.841   4.051   5.749
20265WAT     H261038   2.875   4.016   5.905
20266WAT      O61039   1.194   2.039   9.337
20266WAT     H161040   1.110   2.031   9.391
20266WAT     H261041   1.182   2.112   9.269
20267WAT      O61042   6.268   8.656   6.723
20267WAT     H161043   6.225   8.624   6.638
20267WAT     H261044   6.347   8.712   6.701
20268WAT      O61045   2.053   6.478   3.125
20268WAT     H161046   2.023   6.410   3.057
20268WAT     H261047   2.023   6.569   3.096
20269WAT      O61048   3.688   9.537   3.102
20269WAT     H161049   3.671   9.522   3.004
20269WAT     H261050   3.731   9.626   3.114
20270WAT      O61051   2.363   1.814   3.497
20270WAT     H161052   2.270   1.848   3.487
20270WAT     H261053   2.426   1.876   3.449
20271WAT      O61054   2.507   7.147   2.742
20271WAT     H161055   2.495   7.077   2.671
20271WAT     H261056   2.437   7.218   2.731
20272WAT      O61057   0.148   3.167   5.235
20272WAT     H161058   0.128   3.074   5.206
20272WAT     H261059   0.073   3.201   5.292
20273WAT      O61060   0.310   2.865   2.101
20273WAT     H161061   0.238   2.816   2.151
20273WAT     H261062   0.374   2.799   2.062
20274WAT      O61063   1.715   7.881   7.954
20274WAT     H161064   1.806   7.840   7.945
20274WAT     H261065   1.665   7.834   8.026
20275WAT      O61066   6.443   3.986   0.507
20275WAT     H161067   6.449   4.039   0.422
20275WAT     H261068   6.455   3.889   0.486
20276WAT      O61069   0.718   2.330   8.793
20276WAT     H161070   0.804   2.286   8.818
20276WAT     H261071   0.736   2.415   8.743
20277WAT      O61072   2.546   2.009   2.119
20277WAT     H161073   2.551   2.094   2.171
20277WAT     H261074   2.452   1.974   2.121
20278WAT      O61075   3.404   3.724   7.673
20278WAT     H161076   3.493   3.715   7.628
20278WAT     H261077   3.332   3.707   7.606
20279WAT      O61078   9.287   4.989   6.467
20279WAT     H161079   9.368   4.934   6.444
20279WAT     H261080   9.317   5.080   6.497
20280WAT      O61081   3.638   3.788   8.340
20280WAT     H161082   3.553   3.785   8.392
20280WAT     H261083   3.627   3.851   8.263
20281WAT      O61084   1.242   1.265   9.853
20281WAT     H161085   1.169   1.331   9.833
20281WAT     H261086   1.202   1.181   9.890
20282WAT      O61087   5.795   1.053   1.796
20282WAT     H161088   5.872   1.117   1.806
20282WAT     H261089   5.781   1.033   1.699
20283WAT      O61090   0.427   4.673   6.859
20283WAT     H161091   0.419   4.726   6.944
20283WAT     H261092   0.500   4.605   6.869
20284WAT      O61093   6.979   8.733   6.731
20284WAT     H161094   7.032   8.816   6.744
20284WAT     H261095   7.027   8.656   6.773
20285WAT      O61096   5.557   8.202   9.684
20285WAT     H161097   5.486   8.173   9.748
20285WAT     H261098   5.603   8.283   9.719
20286WAT      O61099   4.500   9.043   5.151
20286WAT     H161100   4.404   9.033   5.127
20286WAT     H261101   4.544   8.953   5.154
20287WAT      O61102   8.771   8.141   2.116
20287WAT     H161103   8.777   8.045   2.086
20287WAT     H261104   8.772   8.201   2.037
20288WAT      O61105   4.641   9.817   2.867
20288WAT     H161106   4.700   9.768   2.931
20288WAT     H261107   4.689   9.830   2.780
20289WAT      O61108   5.407   7.919   5.121
20289WAT     H161109   5.307   7.930   5.115
20289WAT     H261110   5.442   7.974   5.197
20290WAT      O61111   0.038   4.537   7.349
20290WAT     H161112   0.033   4.442   7.378
20290WAT     H261113  -0.025   4.592   7.404
20291WAT      O61114   2.066   0.151   5.841
20291WAT     H161115   2.033   0.120   5.930
20291WAT     H261116   2.023   0.239   5.819
20292WAT      O61117   5.176   3.190   4.192
20292WAT     H161118   5.247   3.234   4.138
20292WAT     H261119   5.177   3.092   4.175
20293WAT      O61120   6.706   2.123   8.182
20293WAT     H161121   6.686   2.041   8.236
20293WAT     H261122   6.663   2.202   8.227
20294WAT      O61123   7.843   1.097   9.638
20294WAT     H161124   7.763   1.149   9.667
20294WAT     H261125   7.817   1.034   9.565
20295WAT      O61126   1.326   0.541   7.738
20295WAT     H161127   1.380   0.620   7.766
20295WAT     H261128   1.229   0.564   7.744
20296WAT      O61129   1.241   8.966   8.791
20296WAT     H161130   1.186   8.902   8.845
20296WAT     H261131   1.181   9.037   8.752
20297WAT      O61132   0.465   7.950   1.304
20297WAT     H161133   0.452   7.990   1.213
20297WAT     H261134   0.557   7.972   1.337
20298WAT      O61135   7.589   5.078   6.444
20298WAT     H161136   7.544   5.157   6.404
20298WAT     H261137   7.687   5.098   6.457
20299WAT      O61138   7.249   3.009   9.781
20299WAT     H161139   7.255   2.975   9.687
20299WAT     H261140   7.319   3.079   9.796
20300WAT      O61141   5.759   4.796   8.062
20300WAT     H161142   5.699   4.726   8.101
20300WAT     H261143   5.710   4.883   8.058
20301WAT      O61144   3.961   7.462   2.815
20301WAT     H161145   3.950   7.468   2.716
20301WAT     H261146   3.972   7.366   2.841
20302WAT      O61147   2.103   4.470   5.540
20302WAT     H161148   2.095   4.482   5.441
20302WAT     H261149   2.083   4.375   5.564
20303WAT      O61150   3.285   1.893   1.741
20303WAT     H161151   3.322   1.808   1.703
20303WAT     H261152   3.202   1.874   1.792
20304WAT      O61153   5.531   7.696   6.099
20304WAT     H161154   5.591   7.740   6.032
20304WAT     H261155   5.513   7.602   6.070
20305WAT      O61156   6.357   2.685   4.084
20305WAT     H161157   6.410   2.685   3.999
20305WAT     H261158   6.390   2.612   4.144
20306WAT      O61159   8.610   3.988   1.317
20306WAT     H161160   8.643   3.913   1.375
20306WAT     H261161   8.521   3.964   1.278
20307WAT      O61162   5.008   5.889   7.330
20307WAT     H161163   5.017   5.988   7.337
20307WAT     H261164   5.098   5.848   7.320
20308WAT      O61165   6.266   5.649   7.214
20308WAT     H161166   6.343   5.602   7.172
20308WAT     H261167   6.196   5.666   7.145
20309WAT      O61168   6.628   5.129   5.428
20309WAT     H161169   6.658   5.219   5.457
20309WAT     H261170   6.661   5.111   5.335
20310WAT      O61171   4.071  -0.002   2.489
20310WAT     H161172   4.078   0.028   2.394
20310WAT     H261173   3.976   0.003   2.519
20311WAT      O61174   0.854   9.677   8.294
20311WAT     H161175   0.811   9.617   8.362
20311WAT     H261176   0.866   9.768   8.333
20312WAT      O61177   8.583   1.225   0.019
20312WAT     H161178   8.534   1.248  -0.066
20312WAT     H261179   8.679   1.209  -0.002
20313WAT      O61180   7.825   6.960   0.359
20313WAT     H161181   7.784   7.044   0.323
20313WAT     H261182   7.916   6.947   0.320
20314WAT      O61183   1.565   5.089   5.530
20314WAT     H161184   1.571   5.146   5.448
20314WAT     H261185   1.473   5.052   5.537
20315WAT      O61186   4.801   2.760   7.367
20315WAT     H161187   4.741   2.759   7.287
20315WAT     H261188   4.874   2.693   7.355
20316WAT      O61189   4.778   1.594   6.374
20316WAT     H161190   4.786   1.667   6.306
20316WAT     H261191   4.689   1.549   6.364
20317WAT      O61192   7.139   4.148   4.174
20317WAT     H161193   7.087   4.209   4.234
20317WAT     H261194   7.154   4.193   4.086
20318WAT      O61195   7.189   4.038   9.034
20318WAT     H161196   7.140   3.957   9.068
20318WAT     H261197   7.286   4.030   9.057
20319WAT      O61198   3.696   1.014   9.810
20319WAT     H161199   3.642   1.013   9.726
20319WAT     H261200   3.640   1.048   9.886
20320WAT      O61201   4.476   5.405   7.669
20320WAT     H161202   4.393   5.460   7.658
20320WAT     H261203   4.548   5.442   7.611
20321WAT      O61204   5.892   1.025   2.657
20321WAT     H161205   5.898   0.990   2.751
20321WAT     H261206   5.800   1.006   2.621
20322WAT      O61207   4.656   2.794   4.818
20322WAT     H161208   4.663   2.774   4.720
20322WAT     H261209   4.733   2.851   4.846
20323WAT      O61210   3.358   1.725   9.871
20323WAT     H161211   3.271   1.732   9.821
20323WAT     H261212   3.433   1.751   9.809
20324WAT      O61213   3.702   1.395   4.255
20324WAT     H161214   3.635   1.408   4.181
20324WAT     H261215   3.792   1.426   4.224
20325WAT      O61216   5.102   1.405   7.626
20325WAT     H161217   5.160   1.380   7.548
20325WAT     H261218   5.159   1.436   7.702
20326WAT      O61219   7.699   2.692   0.307
20326WAT     H161220   7.640   2.615   0.331
20326WAT     H261221   7.782   2.657   0.262
20327WAT      O61222   6.280   6.359   8.537
20327WAT     H161223   6.341   6.382   8.613
20327WAT     H261224   6.278   6.435   8.472
20328WAT      O61225   6.267   2.756   9.376
20328WAT     H161226   6.241   2.723   9.285
20328WAT     H261227   6.290   2.853   9.372
20329WAT      O61228   4.742   0.891   3.046
20329WAT     H161229   4.774   0.797   3.034
20329WAT     H261230   4.659   0.905   2.991
20330WAT      O61231   1.025   0.877   4.382
20330WAT     H161232   1.069   0.790   4.407
20330WAT     H261233   0.926   0.867   4.392
20331WAT      O61234   3.106   7.837   6.291
20331WAT     H161235   3.014   7.813   6.259
20331WAT     H261236   3.105   7.849   6.390
20332WAT      O61237   8.214   2.145   0.777
20332WAT     H161238   8.296   2.119   0.828
20332WAT     H261239   8.150   2.191   0.838
20333WAT      O61240   5.001   0.915   4.853
20333WAT     H161241   5.080   0.856   4.839
20333WAT     H261242   4.918   0.860   4.859
20334WAT      O61243   6.491   7.440   8.480
20334WAT     H161244   6.398   7.412   8.502
20334WAT     H261245   6.524   7.389   8.401
20335WAT      O61246   7.257   0.121   8.897
20335WAT     H161247   7.251   0.165   8.987
20335WAT     H261248   7.353   0.115   8.869
20336WAT      O61249   1.734   9.158   2.664
20336WAT     H161250   1.715   9.068   2.704
20336WAT     H261251   1.766   9.219   2.736
20337WAT      O61252   9.861   9.459   7.019
20337WAT     H161253   9.863   9.359   7.023
20337WAT     H261254   9.832   9.487   6.927
20338WAT      O61255   3.793   6.361   4.599
20338WAT     H161256   3.739   6.284   4.565
20338WAT     H261257   3.806   6.352   4.698
20339WAT      O61258   4.568   4.494   2.629
20339WAT     H161259   4.483   4.542   2.645
20339WAT     H261260   4.558   4.398   2.658
20340WAT      O61261   4.148   6.042   6.359
20340WAT     H161262   4.068   6.065   6.303
20340WAT     H261263   4.157   5.942   6.365
20341WAT      O61264   1.254   0.531   2.493
20341WAT     H161265   1.289   0.471   2.420
20341WAT     H261266   1.206   0.476   2.561
20342WAT      O61267   7.475   1.082   7.196
20342WAT     H161268   7.517   1.057   7.284
20342WAT     H261269   7.467   1.181   7.191
20343WAT      O61270   7.939   4.039   5.758
20343WAT     H161271   7.854   4.029   5.708
20343WAT     H261272   7.980   3.949   5.774
20344WAT      O61273   2.436   1.948   0.325
20344WAT     H161274   2.505   1.987   0.386
20344WAT     H261275   2.445   1.849   0.323
20345WAT      O61276   3.977   2.275   7.203
20345WAT     H161277   4.029   2.292   7.120
20345WAT     H261278   3.887   2.239   7.180
20346WAT      O61279   2.709   8.303   9.346
20346WAT     H161280   2.718   8.369   9.421
20346WAT     H261281   2.633   8.330   9.286
20347WAT      O61282   3.830   7.332   0.675
20347WAT     H161283   3.788   7.268   0.740
20347WAT     H261284   3.897   7.389   0.722
20348WAT      O61285   7.401   1.408   1.743
20348WAT     H161286   7.325   1.469   1.762
20348WAT     H261287   7.454   1.394   1.827
20349WAT      O61288   9.320   2.518   1.728
20349WAT     H161289   9.396   2.536   1.790
20349WAT     H261290   9.284   2.604   1.693
20350WAT      O61291   7.889   8.741   0.884
20350WAT     H161292   7.869   8.837   0.908
20350WAT     H261293   7.934   8.738   0.794
20351WAT      O61294   2.178   6.296   9.443
20351WAT     H161295   2.175   6.348   9.529
20351WAT     H261296   2.229   6.348   9.375
20352WAT      O61297   9.649   2.367   7.077
20352WAT     H161298   9.609   2.275   7.085
20352WAT     H261299   9.585   2.427   7.028
20353WAT      O61300   3.141   1.397   1.097
20353WAT     H161301   3.099   1.366   1.183
20353WAT     H261302   3.071   1.399   1.025
20354WAT      O61303   2.018   7.183   0.554
20354WAT     H161304   1.997   7.100   0.606
20354WAT     H261305   2.005   7.263   0.613
20355WAT      O61306   4.417   1.766   3.262
20355WAT     H161307   4.419   1.838   3.193
20355WAT     H261308   4.364   1.797   3.341
20356WAT      O61309   7.243   9.287   6.576
20356WAT     H161310   7.250   9.330   6.666
20356WAT     H261311   7.333   9.289   6.531
20357WAT      O61312   9.489   2.092   6.148
20357WAT     H161313   9.410   2.050   6.102
20357WAT     H261314   9.520   2.171   6.095
20358WAT      O61315   0.289   8.996   4.958
20358WAT     H161316   0.208   9.044   4.991
20358WAT     H261317   0.281   8.980   4.860
20359WAT      O61318   0.565   9.095   2.498
20359WAT     H161319   0.604   9.139   2.579
20359WAT     H261320   0.622   9.017   2.471
20360WAT      O61321   2.426   2.542   3.205
20360WAT     H161322   2.460   2.509   3.294
20360WAT     H261323   2.420   2.465   3.141
20361WAT      O61324   3.228   0.452   5.471
20361WAT     H161325   3.296   0.383   5.495
20361WAT     H261326   3.148   0.408   5.430
20362WAT      O61327   2.231   1.173   4.924
20362WAT     H161328   2.314   1.140   4.880
20362WAT     H261329   2.152   1.152   4.867
20363WAT      O61330   5.061   8.717   0.575
20363WAT     H161331   5.028   8.779   0.647
20363WAT     H261332   5.042   8.757   0.486
20364WAT      O61333   3.991   6.838   0.028
20364WAT     H161334   3.894   6.825   0.046
20364WAT     H261335   4.045   6.810   0.107
20365WAT      O61336   1.207   7.339   8.410
20365WAT     H161337   1.213   7.398   8.330
20365WAT     H261338   1.225   7.393   8.492
20366WAT      O61339   0.130   7.825   2.902
20366WAT     H161340   0.175   7.912   2.920
20366WAT     H261341   0.050   7.839   2.844
20367WAT      O61342   5.576   2.958   0.139
20367WAT     H161343   5.556   2.883   0.075
20367WAT     H261344   5.615   3.035   0.089
20368WAT      O61345   4.208   4.840   9.607
20368WAT     H161346   4.154   4.919   9.580
20368WAT     H261347   4.214   4.836   9.707
20369WAT      O61348   5.972   2.408   0.158
20369WAT     H161349   5.970   2.483   0.224
20369WAT     H261350   6.046   2.423   0.093
20370WAT      O61351   4.981   5.982   1.165
20370WAT     H161352   4.913   5.910   1.177
20370WAT     H261353   5.027   5.972   1.077
20371WAT      O61354   5.859   8.848   1.794
20371WAT     H161355   5.826   8.764   1.837
20371WAT     H261356   5.927   8.891   1.853
20372WAT      O61357   2.748   6.450   5.241
20372WAT     H161358   2.777   6.488   5.153
20372WAT     H261359   2.652   6.423   5.235
20373WAT      O61360   1.160   9.392   5.727
20373WAT     H161361   1.203   9.305   5.703
20373WAT     H261362   1.115   9.430   5.646
20374WAT      O61363   8.870   8.374   7.445
20374WAT     H161364   8.918   8.358   7.359
20374WAT     H261365   8.910   8.317   7.517
20375WAT      O61366   0.743   4.977   5.400
20375WAT     H161367   0.672   4.922   5.355
20375WAT     H261368   0.790   5.033   5.331
20376WAT      O61369   9.694   9.232   5.580
20376WAT     H161370   9.613   9.226   5.523
20376WAT     H261371   9.752   9.152   5.565
20377WAT      O61372   9.390   2.182   9.664
20377WAT     H161373   9.463   2.114   9.670
20377WAT     H261374   9.423   2.270   9.699
20378WAT      O61375   0.795   7.420   1.954
20378WAT     H161376   0.819   7.515   1.934
20378WAT     H261377   0.717   7.392   1.898
20379WAT      O61378   4.053   7.404   4.971
20379WAT     H161379   4.002   7.341   4.912
20379WAT     H261380   4.125   7.353   5.019
20380WAT      O61381   8.851   2.751   1.743
20380WAT     H161382   8.794   2.790   1.671
20380WAT     H261383   8.876   2.658   1.718
20381WAT      O61384   3.864   4.294   1.396
20381WAT     H161385   3.946   4.351   1.387
20381WAT     H261386   3.889   4.204   1.433
20382WAT      O61387   8.251   1.711   3.096
20382WAT     H161388   8.193   1.767   3.037
20382WAT     H261389   8.336   1.689   3.048
20383WAT      O61390   3.503   9.565   1.551
20383WAT     H161391   3.549   9.621   1.620
20383WAT     H261392   3.571   9.512   1.500
20384WAT      O61393   4.130   0.190   7.162
20384WAT     H161394   4.030   0.200   7.163
20384WAT     H261395   4.171   0.267   7.112
20385WAT      O61396   8.336   2.829   1.354
20385WAT     H161397   8.395   2.787   1.423
20385WAT     H261398   8.354   2.927   1.349
20386WAT      O61399   7.220   5.736   6.827
20386WAT     H161400   7.248   5.712   6.734
20386WAT     H261401   7.276   5.812   6.860
20387WAT      O61402   2.641   5.387   3.391
20387WAT     H161403   2.657   5.453   3.465
20387WAT     H261404   2.584   5.312   3.425
20388WAT      O61405   7.584   9.400   5.878
20388WAT     H161406   7.557   9.432   5.787
20388WAT     H261407   7.640   9.318   5.869
20389WAT      O61408   3.980   2.574   1.608
20389WAT     H161409   4.072   2.536   1.603
20389WAT     H261410   3.945   2.566   1.702
20390WAT      O61411   0.136   4.708   4.944
20390WAT     H161412   0.097   4.787   4.896
20390WAT     H261413   0.093   4.698   5.033
20391WAT      O61414   8.330   5.394   0.877
20391WAT     H161415   8.352   5.326   0.947
20391WAT     H261416   8.412   5.449   0.857
20392WAT      O61417   8.247   3.474   1.327
20392WAT     H161418   8.254   3.568   1.360
20392WAT     H261419   8.230   3.413   1.404
20393WAT      O61420   3.116   6.017   6.699
20393WAT     H161421   3.150   6.081   6.767
20393WAT     H261422   3.191   5.993   6.636
20394WAT      O61423   8.526   6.771   3.806
20394WAT     H161424   8.561   6.799   3.716
20394WAT     H261425   8.494   6.676   3.800
20395WAT      O61426   5.545   7.751   4.966
20395WAT     H161427   5.533   7.781   4.872
20395WAT     H261428   5.507   7.819   5.029
20396WAT      O61429   0.851   3.942   5.894
20396WAT     H161430   0.797   3.938   5.810
20396WAT     H261431   0.856   4.036   5.927
20397WAT      O61432   2.861   4.961   5.324
20397WAT     H161433   2.934   5.028   5.308
20397WAT     H261434   2.794   5.000   5.387
20398WAT      O61435   7.240   6.281   5.750
20398WAT     H161436   7.261   6.345   5.824
20398WAT     H261437   7.313   6.214   5.742
20399WAT      O61438   8.193   3.875   9.397
20399WAT     H161439   8.149   3.900   9.483
20399WAT     H261440   8.227   3.957   9.351
20400WAT      O61441   1.480   5.834   8.507
20400WAT     H161442   1.512   5.755   8.559
20400WAT     H261443   1.381   5.829   8.496
20401WAT      O61444   2.994   4.993   1.767
20401WAT     H161445   3.026   4.913   1.818
20401WAT     H261446   2.969   5.065   1.832
20402WAT      O61447   7.508   4.257   1.199
20402WAT     H161448   7.513   4.285   1.104
20402WAT     H261449   7.525   4.336   1.258
20403WAT      O61450   2.875   5.890   2.383
20403WAT     H161451   2.973   5.869   2.382
20403WAT     H261452   2.861   5.982   2.346
20404WAT      O61453   5.300   9.530   4.824
20404WAT     H161454   5.336   9.547   4.732
20404WAT     H261455   5.353   9.583   4.891
20405WAT      O61456   1.540   3.404   5.033
20405WAT     H161457   1.625   3.362   4.999
20405WAT     H261458   1.541   3.502   5.013
20406WAT      O61459   2.349   1.909   5.027
20406WAT     H161460   2.263   1.869   5.061
20406WAT     H261461   2.341   2.008   5.024
20407WAT      O61462   8.579   9.564   9.880
20407WAT     H161463   8.527   9.647   9.859
20407WAT     H261464   8.627   9.576   9.967
20408WAT      O61465   7.772   8.442   7.401
20408WAT     H161466   7.781   8.412   7.306
20408WAT     H261467   7.806   8.535   7.410
20409WAT      O61468   3.521   6.218   9.128
20409WAT     H161469   3.545   6.227   9.224
20409WAT     H261470   3.576   6.145   9.086
20410WAT      O61471   8.980   1.362   7.297
20410WAT     H161472   9.006   1.270   7.327
20410WAT     H261473   8.903   1.395   7.352
20411WAT      O61474   6.932   7.942   0.156
20411WAT     H161475   6.930   7.967   0.060
20411WAT     H261476   6.988   7.860   0.169
20412WAT      O61477   0.913   5.254   1.830
20412WAT     H161478   0.940   5.208   1.914
20412WAT     H261479   0.935   5.352   1.837
20413WAT      O61480   6.059   7.498   3.180
20413WAT     H161481   6.131   7.464   3.121
20413WAT     H261482   5.974   7.509   3.127
20414WAT      O61483   8.100   7.784   7.151
20414WAT     H161484   8.139   7.820   7.066
20414WAT     H261485   8.132   7.839   7.228
20415WAT      O61486   6.120   7.849   2.277
20415WAT     H161487   6.166   7.837   2.365
20415WAT     H261488   6.154   7.781   2.213
20416WAT      O61489   5.133   8.363   0.808
20416WAT     H161490   5.190   8.409   0.740
20416WAT     H261491   5.189   8.342   0.889
20417WAT      O61492   3.239   4.220   7.187
20417WAT     H161493   3.141   4.198   7.197
20417WAT     H261494   3.282   4.219   7.278
20418WAT      O61495   0.746   6.167   5.200
20418WAT     H161496   0.837   6.158   5.159
20418WAT     H261497   0.684   6.103   5.155
20419WAT      O61498   7.488   1.314   2.463
20419WAT     H161499   7.544   1.335   2.383
20419WAT     H261500   7.404   1.270   2.434
20420WAT      O61501   8.089   3.582   0.319
20420WAT     H161502   8.136   3.507   0.364
20420WAT     H261503   8.145   3.617   0.244
20421WAT      O61504   4.681   7.639   3.059
20421WAT     H161505   4.608   7.590   3.107
20421WAT     H261506   4.671   7.737   3.075
20422WAT      O61507   0.041   4.181   3.741
20422WAT     H161508  -0.057   4.163   3.751
20422WAT     H261509   0.093   4.100   3.768
20423WAT      O61510   9.069   8.330   3.666
20423WAT     H161511   9.158   8.331   3.712
20423WAT     H261512   9.027   8.420   3.674
20424WAT      O61513   2.816   7.112   5.047
20424WAT     H161514   2.797   7.171   5.125
20424WAT     H261515   2.911   7.080   5.051
20425WAT      O61516   5.713   1.409   6.080
20425WAT     H161517   5.709   1.309   6.088
20425WAT     H261518   5.775   1.446   6.148
20426WAT      O61519   2.350   7.755   8.539
20426WAT     H161520   2.304   7.788   8.457
20426WAT     H261521   2.417   7.823   8.569
20427WAT      O61522   1.150   1.408   8.116
20427WAT     H161523   1.240   1.450   8.109
20427WAT     H261524   1.083   1.476   8.147
20428WAT      O61525   9.171   8.952   4.987
20428WAT     H161526   9.266   8.983   4.989
20428WAT     H261527   9.148   8.910   5.074
20429WAT      O61528   4.761   6.208   7.190
20429WAT     H161529   4.770   6.224   7.288
20429WAT     H261530   4.713   6.122   7.175
20430WAT      O61531   2.674   1.365   8.639
20430WAT     H161532   2.732   1.446   8.637
20430WAT     H261533   2.704   1.300   8.569
20431WAT      O61534   5.412   1.661   2.708
20431WAT     H161535   5.450   1.621   2.791
20431WAT     H261536   5.386   1.756   2.726
20432WAT      O61537   9.393   1.644   4.787
20432WAT     H161538   9.315   1.584   4.769
20432WAT     H261539   9.455   1.643   4.708
20433WAT      O61540   6.132   3.491   2.586
20433WAT     H161541   6.066   3.549   2.538
20433WAT     H261542   6.220   3.538   2.593
20434WAT      O61543   2.366   5.760   9.398
20434WAT     H161544   2.315   5.846   9.391
20434WAT     H261545   2.305   5.684   9.375
20435WAT      O61546   6.822   3.935   4.309
20435WAT     H161547   6.768   3.996   4.367
20435WAT     H261548   6.811   3.961   4.213
20436WAT      O61549   5.416   2.614   8.838
20436WAT     H161550   5.481   2.587   8.909
20436WAT     H261551   5.393   2.534   8.782
20437WAT      O61552   9.731   5.995   8.326
20437WAT     H161553   9.675   5.962   8.402
20437WAT     H261554   9.691   5.964   8.240
20438WAT      O61555   5.270   9.809   8.742
20438WAT     H161556   5.341   9.741   8.721
20438WAT     H261557   5.252   9.864   8.660
20439WAT      O61558   1.756   5.225   1.728
20439WAT     H161559   1.714   5.213   1.638
20439WAT     H261560   1.720   5.157   1.791
20440WAT      O61561   2.540   2.592   2.377
20440WAT     H161562   2.527   2.688   2.403
20440WAT     H261563   2.454   2.543   2.389
20441WAT      O61564   8.710   1.711   3.938
20441WAT     H161565   8.660   1.636   3.893
20441WAT     H261566   8.785   1.673   3.991
20442WAT      O61567   8.985   8.708   7.879
20442WAT     H161568   8.984   8.645   7.801
20442WAT     H261569   9.055   8.777   7.865
20443WAT      O61570   7.572   0.388   2.472
20443WAT     H161571   7.508   0.345   2.408
20443WAT     H261572   7.650   0.327   2.488
20444WAT      O61573   5.871   8.061   0.533
20444WAT     H161574   5.901   7.968   0.513
20444WAT     H261575   5.796   8.059   0.599
20445WAT      O61576   9.028   8.716   5.691
20445WAT     H161577   9.118   8.726   5.732
20445WAT     H261578   8.963   8.778   5.735
20446WAT      O61579   1.958   9.710   5.883
20446WAT     H161580   1.889   9.776   5.854
20446WAT     H261581   1.985   9.653   5.805
20447WAT      O61582   7.326   1.289   8.256
20447WAT     H161583   7.376   1.243   8.182
20447WAT     H261584   7.233   1.307   8.226
20448WAT      O61585   8.803   4.784   1.920
20448WAT     H161586   8.828   4.773   1.823
20448WAT     H261587   8.801   4.881   1.942
20449WAT      O61588   2.371   2.935   5.202
20449WAT     H161589   2.278   2.907   5.180
20449WAT     H261590   2.434   2.901   5.133
20450WAT      O61591   4.780   6.274   5.459
20450WAT     H161592   4.785   6.175   5.445
20450WAT     H261593   4.686   6.299   5.484
20451WAT      O61594   0.042   4.506   2.016
20451WAT     H161595   0.074   4.592   1.976
20451WAT     H261596   0.113   4.436   2.006
20452WAT      O61597   1.568   8.300   3.257
20452WAT     H161598   1.600   8.240   3.330
20452WAT     H261599   1.557   8.247   3.173
20453WAT      O61600   6.296   7.693   6.728
20453WAT     H161601   6.264   7.787   6.717
20453WAT     H261602   6.248   7.632   6.665
20454WAT      O61603   6.855   8.907   2.200
20454WAT     H161604   6.865   8.998   2.239
20454WAT     H261605   6.782   8.858   2.250
20455WAT      O61606   0.655   8.898   7.385
20455WAT     H161607   0.692   8.991   7.376
20455WAT     H261608   0.562   8.896   7.350
20456WAT      O61609   9.371   2.159   5.460
20456WAT     H161610   9.288   2.107   5.481
20456WAT     H261611   9.439   2.097   5.419
20457WAT      O61612   0.231   5.927   0.210
20457WAT     H161613   0.220   6.027   0.212
20457WAT     H261614   0.162   5.884   0.268
20458WAT      O61615   3.981   6.467   6.799
20458WAT     H161616   4.059   6.474   6.862
20458WAT     H261617   4.015   6.459   6.705
20459WAT      O61618   5.705   2.022   8.332
20459WAT     H161619   5.740   1.937   8.371
20459WAT     H261620   5.702   2.015   8.233
20460WAT      O61621   1.893   8.560   3.567
20460WAT     H161622   1.955   8.496   3.523
20460WAT     H261623   1.869   8.633   3.502
20461WAT      O61624   9.083   1.671   0.339
20461WAT     H161625   9.059   1.735   0.266
20461WAT     H261626   9.046   1.704   0.425
20462WAT      O61627   4.821   4.624   8.778
20462WAT     H161628   4.840   4.717   8.745
20462WAT     H261629   4.787   4.629   8.872
20463WAT      O61630   2.377   7.834   5.502
20463WAT     H161631   2.383   7.742   5.462
20463WAT     H261632   2.439   7.839   5.581
20464WAT      O61633   2.602   7.169   9.347
20464WAT     H161634   2.552   7.127   9.423
20464WAT     H261635   2.540   7.225   9.292
20465WAT      O61636   3.051   2.948   7.953
20465WAT     H161637   2.998   2.893   8.018
20465WAT     H261638   3.008   3.039   7.944
20466WAT      O61639   8.511   3.540   0.347
20466WAT     H161640   8.557   3.516   0.432
20466WAT     H261641   8.568   3.604   0.295
20467WAT      O61642   0.570   9.081   7.697
20467WAT     H161643   0.492   9.041   7.745
20467WAT     H261644   0.540   9.158   7.642
20468WAT      O61645   6.557   7.213   2.633
20468WAT     H161646   6.511   7.302   2.631
20468WAT     H261647   6.617   7.208   2.713
20469WAT      O61648   2.510   7.186   4.460
20469WAT     H161649   2.542   7.137   4.379
20469WAT     H261650   2.572   7.169   4.536
20470WAT      O61651   8.452   0.239   3.315
20470WAT     H161652   8.433   0.142   3.326
20470WAT     H261653   8.373   0.285   3.274
20471WAT      O61654   5.907   8.726   9.655
20471WAT     H161655   5.910   8.740   9.754
20471WAT     H261656   6.000   8.713   9.621
20472WAT      O61657   0.584   3.083   7.828
20472WAT     H161658   0.679   3.097   7.801
20472WAT     H261659   0.569   2.987   7.852
20473WAT      O61660   3.791   7.529   0.343
20473WAT     H161661   3.827   7.586   0.417
20473WAT     H261662   3.754   7.444   0.381
20474WAT      O61663   3.010   2.763   9.558
20474WAT     H161664   3.034   2.688   9.497
20474WAT     H261665   2.919   2.797   9.535
20475WAT      O61666   3.643   3.078   6.367
20475WAT     H161667   3.677   3.042   6.454
20475WAT     H261668   3.658   3.010   6.295
20476WAT      O61669   7.320   1.654   6.529
20476WAT     H161670   7.412   1.656   6.569
20476WAT     H261671   7.297   1.744   6.494
20477WAT      O61672   7.198   1.694   3.704
20477WAT     H161673   7.238   1.785   3.719
20477WAT     H261674   7.269   1.625   3.710
20478WAT      O61675   3.553   3.124   4.219
20478WAT     H161676   3.624   3.179   4.262
20478WAT     H261677   3.590   3.037   4.189
20479WAT      O61678   3.761   3.913   2.610
20479WAT     H161679   3.712   3.944   2.529
20479WAT     H261680   3.723   3.956   2.691
20480WAT      O61681   2.096   0.387   6.325
20480WAT     H161682   2.068   0.328   6.400
20480WAT     H261683   2.097   0.482   6.356
20481WAT      O61684   5.020   3.632   3.425
20481WAT     H161685   5.083   3.640   3.502
20481WAT     H261686   4.963   3.551   3.436
20482WAT      O61687   6.246   3.834   9.282
20482WAT     H161688   6.326   3.826   9.222
20482WAT     H261689   6.276   3.832   9.378
20483WAT      O61690   3.502   0.100   8.617
20483WAT     H161691   3.428   0.092   8.684
20483WAT     H261692   3.581   0.048   8.649
20484WAT      O61693   5.035   2.293   8.848
20484WAT     H161694   4.957   2.318   8.907
20484WAT     H261695   5.045   2.194   8.847
20485WAT      O61696   0.508   6.876   1.307
20485WAT     H161697   0.415   6.899   1.279
20485WAT     H261698   0.569   6.884   1.228
20486WAT      O61699   6.489   3.558   2.357
20486WAT     H161700   6.544   3.633   2.320
20486WAT     H261701   6.495   3.480   2.295
20487WAT      O61702   0.707   6.342   3.403
20487WAT     H161703   0.748   6.407   3.467
20487WAT     H261704   0.627   6.384   3.360
20488WAT      O61705   2.722   0.497   2.323
20488WAT     H161706   2.794   0.507   2.254
20488WAT     H261707   2.638   0.541   2.290
20489WAT      O61708   9.757   9.721   7.224
20489WAT     H161709   9.720   9.648   7.167
20489WAT     H261710   9.831   9.684   7.280
20490WAT      O61711   7.472   1.085   5.168
20490WAT     H161712   7.534   1.054   5.239
20490WAT     H261713   7.455   1.011   5.103
20491WAT      O61714   2.181   5.264   8.229
20491WAT     H161715   2.225   5.334   8.285
20491WAT     H261716   2.227   5.176   8.243
20492WAT      O61717   4.313   8.853   4.505
20492WAT     H161718   4.261   8.934   4.531
20492WAT     H261719   4.271   8.772   4.545
20493WAT      O61720   2.154   8.648   3.705
20493WAT     H161721   2.178   8.567   3.758
20493WAT     H261722   2.071   8.630   3.651
20494WAT      O61723   7.120   0.850   9.640
20494WAT     H161724   7.207   0.900   9.645
20494WAT     H261725   7.062   0.890   9.569
20495WAT      O61726   2.913   5.641   8.190
20495WAT     H161727   2.974   5.642   8.269
20495WAT     H261728   2.822   5.670   8.217
20496WAT      O61729   2.210   9.259   7.090
20496WAT     H161730   2.290   9.235   7.035
20496WAT     H261731   2.227   9.235   7.185
20497WAT      O61732   1.564   4.801   4.920
20497WAT     H161733   1.522   4.770   5.006
20497WAT     H261734   1.507   4.771   4.844
20498WAT      O61735   5.303   5.639   6.738
20498WAT     H161736   5.270   5.697   6.664
20498WAT     H261737   5.301   5.689   6.824
20499WAT      O61738   5.863   0.616   2.652
20499WAT     H161739   5.842   0.604   2.555
20499WAT     H261740   5.793   0.673   2.694
20500WAT      O61741   8.683   2.437   7.267
20500WAT     H161742   8.651   2.343   7.278
20500WAT     H261743   8.760   2.453   7.328
20501WAT      O61744   6.773   1.669   7.357
20501WAT     H161745   6.751   1.654   7.261
20501WAT     H261746   6.693   1.705   7.405
20502WAT      O61747   9.233   9.543   5.131
20502WAT     H161748   9.205   9.577   5.221
20502WAT     H261749   9.155   9.498   5.087
20503WAT      O61750   6.269   0.857   1.052
20503WAT     H161751   6.194   0.797   1.024
20503WAT     H261752   6.259   0.880   1.149
20504WAT      O61753   6.045   7.081   3.966
20504WAT     H161754   6.083   7.163   3.923
20504WAT     H261755   6.103   7.002   3.945
20505WAT      O61756   3.735   3.401   5.598
20505WAT     H161757   3.808   3.455   5.557
20505WAT     H261758   3.648   3.449   5.586
20506WAT      O61759   5.154   0.861   8.864
20506WAT     H161760   5.056   0.880   8.861
20506WAT     H261761   5.188   0.876   8.957
20507WAT      O61762   9.719   3.507   8.165
20507WAT     H161763   9.741   3.411   8.143
20507WAT     H261764   9.803   3.555   8.189
20508WAT      O61765   5.175   8.155   3.892
20508WAT     H161766   5.182   8.249   3.858
20508WAT     H261767   5.132   8.097   3.823
20509WAT      O61768   2.381   0.868   2.118
20509WAT     H161769   2.408   0.782   2.160
20509WAT     H261770   2.457   0.906   2.066
20510WAT      O61771   7.597   0.470   7.191
20510WAT     H161772   7.666   0.497   7.259
20510WAT     H261773   7.597   0.535   7.115
20511WAT      O61774   5.542   0.298   9.415
20511WAT     H161775   5.514   0.309   9.511
20511WAT     H261776   5.561   0.387   9.375
20512WAT      O61777   9.313   0.651   8.613
20512WAT     H161778   9.379   0.580   8.635
20512WAT     H261779   9.341   0.699   8.530
20513WAT      O61780   9.719   3.444   9.461
20513WAT     H161781   9.766   3.491   9.386
20513WAT     H261782   9.715   3.346   9.442
20514WAT      O61783   3.175   3.215   4.674
20514WAT     H161784   3.114   3.292   4.694
20514WAT     H261785   3.123   3.130   4.675
20515WAT      O61786   4.173   8.562   9.211
20515WAT     H161787   4.158   8.613   9.126
20515WAT     H261788   4.144   8.467   9.199
20516WAT      O61789   1.290   1.350   1.415
20516WAT     H161790   1.380   1.360   1.456
20516WAT     H261791   1.277   1.420   1.344
20517WAT      O61792   1.084   2.690   1.953
20517WAT     H161793   1.176   2.720   1.976
20517WAT     H261794   1.025   2.770   1.943
20518WAT      O61795   0.347   7.461   1.686
20518WAT     H161796   0.387   7.536   1.634
20518WAT     H261797   0.308   7.497   1.771
20519WAT      O61798   7.280   9.530   8.700
20519WAT     H161799   7.275   9.432   8.681
20519WAT     H261800   7.368   9.566   8.671
20520WAT      O61801   1.489   0.979   1.756
20520WAT     H161802   1.550   0.932   1.692
20520WAT     H261803   1.395   0.949   1.741
20521WAT      O61804   6.524   5.452   4.387
20521WAT     H161805   6.460   5.483   4.316
20521WAT     H261806   6.472   5.416   4.465
20522WAT      O61807   6.907   7.327   2.999
20522WAT     H161808   7.004   7.350   3.007
20522WAT     H261809   6.854   7.410   2.981
20523WAT      O61810   8.860   8.036   2.779
20523WAT     H161811   8.902   7.948   2.758
20523WAT     H261812   8.858   8.092   2.697
20524WAT      O61813   2.012   6.787   0.474
20524WAT     H161814   2.046   6.718   0.538
20524WAT     H261815   2.010   6.876   0.519
20525WAT      O61816   0.379   6.187   3.187
20525WAT     H161817   0.431   6.215   3.107
20525WAT     H261818   0.310   6.257   3.208
20526WAT      O61819   5.734   1.923   7.113
20526WAT     H161820   5.823   1.894   7.150
20526WAT     H261821   5.713   2.015   7.146
20527WAT      O61822   3.148   7.567   6.373
20527WAT     H161823   3.109   7.606   6.290
20527WAT     H261824   3.170   7.471   6.358
20528WAT      O61825   5.969   7.617   2.837
20528WAT     H161826   6.035   7.552   2.799
20528WAT     H261827   5.942   7.683   2.767
20529WAT      O61828   4.567   1.001   7.622
20529WAT     H161829   4.662   1.030   7.634
20529WAT     H261830   4.512   1.077   7.587
20530WAT      O61831   6.154   0.698   9.393
20530WAT     H161832   6.091   0.743   9.330
20530WAT     H261833   6.155   0.748   9.480
20531WAT      O61834   8.918   7.544   7.555
20531WAT     H161835   8.920   7.637   7.517
20531WAT     H261836   8.823   7.513   7.563
20532WAT      O61837   9.325   9.269   5.541
20532WAT     H161838   9.328   9.193   5.476
20532WAT     H261839   9.237   9.316   5.534
20533WAT      O61840   3.657   4.277   6.813
20533WAT     H161841   3.656   4.183   6.848
20533WAT     H261842   3.570   4.322   6.835
20534WAT      O61843   1.238   9.770   9.325
20534WAT     H161844   1.314   9.814   9.278
20534WAT     H261845   1.248   9.780   9.423
20535WAT      O61846   1.556   9.774   9.674
20535WAT     H161847   1.620   9.756   9.600
20535WAT     H261848   1.582   9.721   9.755
20536WAT      O61849   0.744   5.078   4.852
20536WAT     H161850   0.691   5.160   4.872
20536WAT     H261851   0.682   5.000   4.838
20537WAT      O61852   8.572   2.111   1.190
20537WAT     H161853   8.615   2.159   1.113
20537WAT     H261854   8.569   2.171   1.269
20538WAT      O61855   9.821   5.347   7.652
20538WAT     H161856   9.772   5.281   7.710
20538WAT     H261857   9.793   5.334   7.556
20539WAT      O61858   9.614   8.486   9.457
20539WAT     H161859   9.557   8.452   9.532
20539WAT     H261860   9.710   8.485   9.485
20540WAT      O61861   0.635   2.260   9.876
20540WAT     H161862   0.643   2.274   9.974
20540WAT     H261863   0.561   2.317   9.840
20541WAT      O61864   7.441   7.104   6.840
20541WAT     H161865   7.466   7.081   6.745
20541WAT     H261866   7.359   7.160   6.840
20542WAT      O61867   2.645   2.572   4.591
20542WAT     H161868   2.736   2.532   4.579
20542WAT     H261869   2.583   2.533   4.524
20543WAT      O61870   4.797   4.054   1.415
20543WAT     H161871   4.703   4.080   1.394
20543WAT     H261872   4.860   4.107   1.359
20544WAT      O61873   7.015   2.741   3.824
20544WAT     H161874   7.016   2.695   3.736
20544WAT     H261875   7.097   2.716   3.876
20545WAT      O61876   4.820   1.070   7.574
20545WAT     H161877   4.867   1.104   7.656
20545WAT     H261878   4.886   1.062   7.500
20546WAT      O61879   9.099   4.890   9.021
20546WAT     H161880   9.101   4.988   9.005
20546WAT     H261881   9.091   4.872   9.119
20547WAT      O61882   2.522   5.759   2.206
20547WAT     H161883   2.490   5.761   2.301
20547WAT     H261884   2.611   5.802   2.199
20548WAT      O61885   4.478   0.377   4.794
20548WAT     H161886   4.453   0.474   4.785
20548WAT     H261887   4.468   0.348   4.889
20549WAT      O61888   8.560   0.117   8.453
20549WAT     H161889   8.539   0.194   8.513
20549WAT     H261890   8.574   0.035   8.508
20550WAT      O61891   3.201   4.812   9.580
20550WAT     H161892   3.273   4.837   9.515
20550WAT     H261893   3.112   4.818   9.534
20551WAT      O61894   8.022   0.983   6.285
20551WAT     H161895   7.986   1.047   6.217
20551WAT     H261896   7.965   0.901   6.287
20552WAT      O61897   0.438   6.620   7.393
20552WAT     H161898   0.536   6.635   7.381
20552WAT     H261899   0.390   6.708   7.392
20553WAT      O61900   1.960   1.949   7.606
20553WAT     H161901   2.035   2.015   7.602
20553WAT     H261902   1.979   1.880   7.675
20554WAT      O61903   7.881   5.070   9.112
20554WAT     H161904   7.971   5.110   9.093
20554WAT     H261905   7.835   5.124   9.183
20555WAT      O61906   4.259   6.647   2.425
20555WAT     H161907   4.165   6.623   2.401
20555WAT     H261908   4.259   6.704   2.507
20556WAT      O61909   5.458   8.857   1.544
20556WAT     H161910   5.427   8.952   1.537
20556WAT     H261911   5.552   8.856   1.578
20557WAT      O61912   2.797   7.693   6.714
20557WAT     H161913   2.705   7.655   6.721
20557WAT     H261914   2.848   7.672   6.798
20558WAT      O61915   5.904   1.491   6.262
20558WAT     H161916   5.981   1.472   6.200
20558WAT     H261917   5.940   1.521   6.351
20559WAT      O61918   8.176   6.167   7.227
20559WAT     H161919   8.121   6.215   7.158
20559WAT     H261920   8.179   6.220   7.311
20560WAT      O61921   6.861   9.584   1.037
20560WAT     H161922   6.811   9.662   1.002
20560WAT     H261923   6.805   9.535   1.105
20561WAT      O61924   5.800   7.770   8.797
20561WAT     H161925   5.760   7.861   8.790
20561WAT     H261926   5.739   7.711   8.851
20562WAT      O61927   6.602   3.795   1.326
20562WAT     H161928   6.549   3.880   1.321
20562WAT     H261929   6.545   3.718   1.298
20563WAT      O61930   1.630   0.049   1.132
20563WAT     H161931   1.586  -0.034   1.098
20563WAT     H261932   1.722   0.026   1.165
20564WAT      O61933   0.914   5.116   2.079
20564WAT     H161934   0.882   5.196   2.131
20564WAT     H261935   0.971   5.059   2.138
20565WAT      O61936   3.350   6.974   8.581
20565WAT     H161937   3.297   6.890   8.578
20565WAT     H261938   3.326   7.031   8.503
20566WAT      O61939   9.286   8.745   7.947
20566WAT     H161940   9.379   8.771   7.972
20566WAT     H261941   9.223   8.773   8.019
20567WAT      O61942   6.816   9.343   5.194
20567WAT     H161943   6.903   9.392   5.204
20567WAT     H261944   6.754   9.397   5.137
20568WAT      O61945   7.981   8.414   3.361
20568WAT     H161946   8.068   8.394   3.407
20568WAT     H261947   7.998   8.433   3.265
20569WAT      O61948   5.603   5.010   9.033
20569WAT     H161949   5.641   4.942   8.972
20569WAT     H261950   5.675   5.051   9.088
20570WAT      O61951   0.481   2.685   2.003
20570WAT     H161952   0.518   2.631   1.928
20570WAT     H261953   0.483   2.631   2.087
20571WAT      O61954   1.744   1.307   9.826
20571WAT     H161955   1.812   1.379   9.836
20571WAT     H261956   1.653   1.347   9.820
20572WAT      O61957   7.330   2.920   7.114
20572WAT     H161958   7.406   2.936   7.051
20572WAT     H261959   7.313   2.822   7.121
20573WAT      O61960   9.506   4.776   3.451
20573WAT     H161961   9.462   4.862   3.426
20573WAT     H261962   9.532   4.726   3.368
20574WAT      O61963   5.024   8.322   9.543
20574WAT     H161964   4.995   8.284   9.455
20574WAT     H261965   5.123   8.338   9.541
20575WAT      O61966   0.194   6.938   9.375
20575WAT     H161967   0.279   6.902   9.336
20575WAT     H261968   0.217   7.007   9.445
20576WAT      O61969   9.274   5.876   3.659
20576WAT     H161970   9.216   5.881   3.741
20576WAT     H261971   9.240   5.941   3.591
20577WAT      O61972   2.955   9.563   5.775
20577WAT     H161973   3.031   9.583   5.837
20577WAT     H261974   2.989   9.514   5.695
20578WAT      O61975   6.370   4.118   7.840
20578WAT     H161976   6.278   4.156   7.850
20578WAT     H261977   6.436   4.177   7.886
20579WAT      O61978   6.954   8.219   7.168
20579WAT     H161979   6.906   8.232   7.255
20579WAT     H261980   7.049   8.194   7.186
20580WAT      O61981   3.263   4.037   0.739
20580WAT     H161982   3.240   4.128   0.704
20580WAT     H261983   3.182   3.979   0.739
20581WAT      O61984   3.568   8.570   3.573
20581WAT     H161985   3.504   8.502   3.610
20581WAT     H261986   3.541   8.661   3.603
20582WAT      O61987   4.473   9.771   0.853
20582WAT     H161988   4.517   9.682   0.841
20582WAT     H261989   4.521   9.822   0.924
20583WAT      O61990   3.684   9.046   6.442
20583WAT     H161991   3.741   8.994   6.379
20583WAT     H261992   3.731   9.131   6.467
20584WAT      O61993   7.363   9.411   7.296
20584WAT     H161994   7.458   9.440   7.280
20584WAT     H261995   7.310   9.426   7.212
20585WAT      O61996   3.420   8.710   4.788
20585WAT     H161997   3.378   8.662   4.865
20585WAT     H261998   3.350   8.738   4.723
20586WAT      O61999   2.073   4.209   2.416
20586WAT     H162000   2.165   4.236   2.386
20586WAT     H262001   2.080   4.152   2.498
20587WAT      O62002   7.850   3.634   1.875
20587WAT     H162003   7.846   3.727   1.911
20587WAT     H262004   7.765   3.614   1.825
20588WAT      O62005   0.120   4.150   7.838
20588WAT     H162006   0.191   4.199   7.889
20588WAT     H262007   0.047   4.123   7.902
20589WAT      O62008   2.012   8.661   8.960
20589WAT     H162009   2.051   8.658   8.868
20589WAT     H262010   1.997   8.756   8.986
20590WAT      O62011   2.980   9.651   0.902
20590WAT     H162012   3.005   9.573   0.845
20590WAT     H262013   2.909   9.624   0.967
20591WAT      O62014   1.946   1.276   6.199
20591WAT     H162015   2.005   1.354   6.221
20591WAT     H262016   1.876   1.305   6.134
20592WAT      O62017   9.404   1.986   8.449
20592WAT     H162018   9.417   1.998   8.547
20592WAT     H262019   9.475   1.926   8.413
20593WAT      O62020   9.143   9.089   9.412
20593WAT     H162021   9.138   9.138   9.325
20593WAT     H262022   9.194   9.144   9.478
20594WAT      O62023   6.588   0.762   9.608
20594WAT     H162024   6.599   0.674   9.655
20594WAT     H262025   6.546   0.828   9.670
20595WAT      O62026   3.950   7.414   6.874
20595WAT     H162027   4.004   7.455   6.801
20595WAT     H262028   3.972   7.458   6.961
20596WAT      O62029   0.850   9.446   2.491
20596WAT     H162030   0.830   9.527   2.546
20596WAT     H262031   0.867   9.368   2.551
20597WAT      O62032   8.406   6.473   2.631
20597WAT     H162033   8.386   6.556   2.579
20597WAT     H262034   8.409   6.395   2.569
20598WAT      O62035   4.596   4.053   9.834
20598WAT     H162036   4.628   3.967   9.794
20598WAT     H262037   4.565   4.037   9.927
20599WAT      O62038   3.327   7.827   2.850
20599WAT     H162039   3.271   7.757   2.894
20599WAT     H262040   3.400   7.856   2.911
20600WAT      O62041   7.061   1.959   0.507
20600WAT     H162042   7.087   1.873   0.550
20600WAT     H262043   6.961   1.963   0.499
20601WAT      O62044   6.852   0.086   8.706
20601WAT     H162045   6.818   0.042   8.789
20601WAT     H262046   6.896   0.172   8.730
20602WAT      O62047   9.233   4.600   5.579
20602WAT     H162048   9.280   4.523   5.621
20602WAT     H262049   9.298   4.654   5.525
20603WAT      O62050   5.130   9.813   8.978
20603WAT     H162051   5.107   9.910   8.990
20603WAT     H262052   5.180   9.801   8.892
20604WAT      O62053   6.285   1.289   6.908
20604WAT     H162054   6.248   1.377   6.878
20604WAT     H262055   6.370   1.304   6.960
20605WAT      O62056   5.297   1.713   3.325
20605WAT     H162057   5.343   1.802   3.324
20605WAT     H262058   5.263   1.694   3.417
20606WAT      O62059   5.444   7.200   9.596
20606WAT     H162060   5.402   7.202   9.687
20606WAT     H262061   5.528   7.255   9.596
20607WAT      O62062   9.488   5.523   8.193
20607WAT     H162063   9.580   5.538   8.230
20607WAT     H262064   9.487   5.550   8.096
20608WAT      O62065   9.649   8.225   4.117
20608WAT     H162066   9.675   8.134   4.087
20608WAT     H262067   9.731   8.281   4.129
20609WAT      O62068   7.767   6.221   5.459
20609WAT     H162069   7.746   6.269   5.374
20609WAT     H262070   7.705   6.252   5.531
20610WAT      O62071   0.185   3.895   2.365
20610WAT     H162072   0.282   3.873   2.374
20610WAT     H262073   0.153   3.866   2.274
20611WAT      O62074   8.261   0.262   3.756
20611WAT     H162075   8.253   0.214   3.843
20611WAT     H262076   8.183   0.323   3.744
20612WAT      O62077   4.008   1.058   5.057
20612WAT     H162078   4.048   1.141   5.018
20612WAT     H262079   3.945   1.084   5.130
20613WAT      O62080   0.100   4.452   5.417
20613WAT     H162081   0.131   4.373   5.366
20613WAT     H262082   0.074   4.525   5.354
20614WAT      O62083   4.972   3.027   7.901
20614WAT     H162084   4.999   3.100   7.838
20614WAT     H262085   4.873   3.031   7.916
20615WAT      O62086   7.504   0.773   0.905
20615WAT     H162087   7.590   0.810   0.870
20615WAT     H262088   7.517   0.744   1.000
20616WAT      O62089   1.797   3.428   7.485
20616WAT     H162090   1.877   3.458   7.434
20616WAT     H262091   1.771   3.336   7.456
20617WAT      O62092   3.164   3.716   1.613
20617WAT     H162093   3.086   3.766   1.575
20617WAT     H262094   3.246   3.736   1.559
20618WAT      O62095   2.536   2.744   7.313
20618WAT     H162096   2.465   2.680   7.283
20618WAT     H262097   2.614   2.692   7.348
20619WAT      O62098   9.276   7.364   7.223
20619WAT     H162099   9.226   7.333   7.304
20619WAT     H262100   9.218   7.427   7.171
20620WAT      O62101   6.827   0.160   5.307
20620WAT     H162102   6.769   0.113   5.241
20620WAT     H262103   6.772   0.188   5.386
20621WAT      O62104   0.169   5.540   2.390
20621WAT     H162105   0.262   5.570   2.368
20621WAT     H262106   0.126   5.606   2.451
20622WAT      O62107   3.914   5.124   3.157
20622WAT     H162108   4.005   5.131   3.198
20622WAT     H262109   3.871   5.039   3.185
20623WAT      O62110   6.906   5.475   3.054
20623WAT     H162111   6.973   5.441   3.120
20623WAT     H262112   6.943   5.557   3.009
20624WAT      O62113   7.259   7.628   5.363
20624WAT     H162114   7.351   7.604   5.333
20624WAT     H262115   7.256   7.726   5.383
20625WAT      O62116   6.390   2.721   0.756
20625WAT     H162117   6.355   2.657   0.688
20625WAT     H262118   6.465   2.678   0.806
20626WAT      O62119   6.782   5.546   9.674
20626WAT     H162120   6.810   5.467   9.621
20626WAT     H262121   6.698   5.524   9.724
20627WAT      O62122   9.600   2.607   6.384
20627WAT     H162123   9.681   2.622   6.327
20627WAT     H262124   9.562   2.695   6.412
20628WAT      O62125   1.408   4.455   8.861
20628WAT     H162126   1.354   4.432   8.943
20628WAT     H262127   1.347   4.485   8.788
20629WAT      O62128   2.718   5.730   6.101
20629WAT     H162129   2.745   5.812   6.151
20629WAT     H262130   2.629   5.699   6.135
20630WAT      O62131   9.379   7.501   2.345
20630WAT     H162132   9.475   7.517   2.322
20630WAT     H262133   9.329   7.477   2.262
20631WAT      O62134   7.431   7.414   1.425
20631WAT     H162135   7.372   7.478   1.375
20631WAT     H262136   7.378   7.333   1.449
20632WAT      O62137   0.725   2.713   9.811
20632WAT     H162138   0.749   2.808   9.831
20632WAT     H262139   0.676   2.674   9.889
20633WAT      O62140   2.939   1.236   4.468
20633WAT     H162141   2.876   1.304   4.506
20633WAT     H262142   3.027   1.279   4.451
20634WAT      O62143   8.296   1.858   7.429
20634WAT     H162144   8.281   1.934   7.365
20634WAT     H262145   8.213   1.841   7.481
20635WAT      O62146   8.874   2.673   3.185
20635WAT     H162147   8.840   2.756   3.142
20635WAT     H262148   8.966   2.688   3.220
20636WAT      O62149   8.080   4.963   7.114
20636WAT     H162150   8.041   4.915   7.193
20636WAT     H262151   8.149   4.905   7.071
20637WAT      O62152   9.202   5.623   0.579
20637WAT     H162153   9.148   5.603   0.661
20637WAT     H262154   9.297   5.596   0.594
20638WAT      O62155   3.604   2.455   6.738
20638WAT     H162156   3.541   2.533   6.739
20638WAT     H262157   3.690   2.482   6.782
20639WAT      O62158   7.066   5.848   7.287
20639WAT     H162159   7.102   5.836   7.195
20639WAT     H262160   7.141   5.845   7.353
20640WAT      O62161   8.911   9.676   3.772
20640WAT     H162162   8.833   9.644   3.827
20640WAT     H262163   8.991   9.688   3.832
20641WAT      O62164   7.615   6.645   4.670
20641WAT     H162165   7.614   6.695   4.756
20641WAT     H262166   7.697   6.671   4.618
20642WAT      O62167   6.324   5.437   8.757
20642WAT     H162168   6.391   5.499   8.798
20642WAT     H262169   6.271   5.392   8.829
20643WAT      O62170   8.886   6.210   2.012
20643WAT     H162171   8.868   6.258   1.926
20643WAT     H262172   8.802   6.167   2.043
20644WAT      O62173   9.145   0.589   2.186
20644WAT     H162174   9.137   0.657   2.259
20644WAT     H262175   9.237   0.550   2.186
20645WAT      O62176   1.896   1.518   2.934
20645WAT     H162177   1.984   1.486   2.900
20645WAT     H262178   1.902   1.614   2.959
20646WAT      O62179   7.112   8.178   0.809
20646WAT     H162180   7.077   8.242   0.878
20646WAT     H262181   7.036   8.145   0.754
20647WAT      O62182   6.110   4.619   1.626
20647WAT     H162183   6.176   4.663   1.687
20647WAT     H262184   6.045   4.567   1.681
20648WAT      O62185   3.163   5.809   2.980
20648WAT     H162186   3.201   5.875   3.044
20648WAT     H262187   3.236   5.748   2.949
20649WAT      O62188   4.739   9.548   1.374
20649WAT     H162189   4.674   9.577   1.304
20649WAT     H262190   4.753   9.624   1.439
20650WAT      O62191   2.237   0.343   8.255
20650WAT     H162192   2.176   0.366   8.179
20650WAT     H262193   2.251   0.425   8.312
20651WAT      O62194   2.715   0.715   6.309
20651WAT     H162195   2.629   0.720   6.259
20651WAT     H262196   2.744   0.807   6.336
20652WAT      O62197   2.340   4.096   4.700
20652WAT     H162198   2.435   4.097   4.733
20652WAT     H262199   2.313   4.189   4.676
20653WAT      O62200   4.901   0.396   0.482
20653WAT     H162201   4.830   0.334   0.516
20653WAT     H262202   4.985   0.345   0.465
20654WAT      O62203   3.737   1.843   4.561
20654WAT     H162204   3.708   1.938   4.555
20654WAT     H262205   3.663   1.788   4.599
20655WAT      O62206   2.791   0.153   4.845
20655WAT     H162207   2.769   0.095   4.924
20655WAT     H262208   2.890   0.166   4.839
20656WAT      O62209   0.547   5.187   5.171
20656WAT     H162210   0.527   5.264   5.232
20656WAT     H262211   0.533   5.101   5.221
20657WAT      O62212   2.059   7.945   5.041
20657WAT     H162213   2.130   7.902   5.097
20657WAT     H262214   1.973   7.947   5.091
20658WAT      O62215   4.891   4.798   2.570
20658WAT     H162216   4.888   4.764   2.664
20658WAT     H262217   4.963   4.867   2.562
20659WAT      O62218   6.403   4.315   3.364
20659WAT     H162219   6.383   4.318   3.266
20659WAT     H262220   6.466   4.388   3.387
20660WAT      O62221   3.537   0.677   1.055
20660WAT     H162222   3.562   0.764   1.012
20660WAT     H262223   3.565   0.678   1.151
20661WAT      O62224   0.731   1.774   2.037
20661WAT     H162225   0.739   1.872   2.057
20661WAT     H262226   0.766   1.721   2.115
20662WAT      O62227   2.460   3.386   2.284
20662WAT     H162228   2.528   3.442   2.331
20662WAT     H262229   2.479   3.384   2.186
20663WAT      O62230   5.298   6.818   2.144
20663WAT     H162231   5.198   6.811   2.142
20663WAT     H262232   5.323   6.907   2.183
20664WAT      O62233   9.657   0.214   1.233
20664WAT     H162234   9.685   0.134   1.286
20664WAT     H262235   9.575   0.193   1.181
20665WAT      O62236   6.438   9.182   8.503
20665WAT     H162237   6.438   9.181   8.603
20665WAT     H262238   6.405   9.095   8.469
20666WAT      O62239   7.392   7.645   1.779
20666WAT     H162240   7.450   7.635   1.860
20666WAT     H262241   7.448   7.630   1.697
20667WAT      O62242   0.172   7.883   2.449
20667WAT     H162243   0.192   7.823   2.372
20667WAT     H262244   0.249   7.881   2.513
20668WAT      O62245   2.733   2.056   5.480
20668WAT     H162246   2.658   2.003   5.519
20668WAT     H262247   2.807   1.994   5.454
20669WAT      O62248   2.203   3.841   9.625
20669WAT     H162249   2.106   3.829   9.647
20669WAT     H262250   2.257   3.833   9.709
20670WAT      O62251   7.507   0.391   6.451
20670WAT     H162252   7.547   0.420   6.364
20670WAT     H262253   7.573   0.334   6.500
20671WAT      O62254   3.541   0.455   1.477
20671WAT     H162255   3.515   0.468   1.573
20671WAT     H262256   3.479   0.390   1.433
20672WAT      O62257   9.278   5.889   2.622
20672WAT     H162258   9.233   5.800   2.632
20672WAT     H262259   9.307   5.902   2.527
20673WAT      O62260   4.949   8.034   4.338
20673WAT     H162261   5.005   7.967   4.387
20673WAT     H262262   5.007   8.086   4.274
20674WAT      O62263   6.183   2.468   4.953
20674WAT     H162264   6.167   2.489   5.050
20674WAT     H262265   6.213   2.550   4.905
20675WAT      O62266   8.619   6.410   6.299
20675WAT     H162267   8.610   6.310   6.294
20675WAT     H262268   8.701   6.438   6.250
20676WAT      O62269   9.209   8.253   4.641
20676WAT     H162270   9.110   8.243   4.641
20676WAT     H262271   9.235   8.316   4.715
20677WAT      O62272   9.144   2.899   7.796
20677WAT     H162273   9.110   2.993   7.794
20677WAT     H262274   9.097   2.848   7.868
20678WAT      O62275   3.148   3.865   2.354
20678WAT     H162276   3.168   3.918   2.272
20678WAT     H262277   3.050   3.847   2.359
20679WAT      O62278   5.685   1.579   5.243
20679WAT     H162279   5.667   1.656   5.183
20679WAT     H262280   5.784   1.567   5.253
20680WAT      O62281   2.847   6.194   9.672
20680WAT     H162282   2.817   6.208   9.578
20680WAT     H262283   2.777   6.143   9.722
20681WAT      O62284   2.473   5.177   6.830
20681WAT     H162285   2.392   5.232   6.849
20681WAT     H262286   2.461   5.129   6.743
20682WAT      O62287   8.965   1.918   2.023
20682WAT     H162288   8.865   1.921   2.024
20682WAT     H262289   8.998   1.866   2.101
20683WAT      O62290   4.813   7.330   1.050
20683WAT     H162291   4.878   7.306   0.977
20683WAT     H262292   4.748   7.255   1.062
20684WAT      O62293   2.791   8.016   2.386
20684WAT     H162294   2.820   7.936   2.437
20684WAT     H262295   2.868   8.080   2.378
20685WAT      O62296   3.818   4.776   5.431
20685WAT     H162297   3.855   4.702   5.488
20685WAT     H262298   3.809   4.859   5.487
20686WAT      O62299   1.818   0.439   8.481
20686WAT     H162300   1.777   0.529   8.498
20686WAT     H262301   1.891   0.424   8.547
20687WAT      O62302   8.502   3.003   4.232
20687WAT     H162303   8.419   3.033   4.280
20687WAT     H262304   8.560   3.082   4.214
20688WAT      O62305   2.362   7.697   3.637
20688WAT     H162306   2.339   7.603   3.661
20688WAT     H262307   2.285   7.757   3.656
20689WAT      O62308   4.232   0.321   1.697
20689WAT     H162309   4.322   0.279   1.705
20689WAT     H262310   4.190   0.326   1.787
20690WAT      O62311   6.072   7.942   4.502
20690WAT     H162312   6.124   7.903   4.578
20690WAT     H262313   6.028   8.027   4.532
20691WAT      O62314   9.125   6.216   5.617
20691WAT     H162315   9.058   6.146   5.592
20691WAT     H262316   9.118   6.234   5.715
20692WAT      O62317   1.619   0.932   6.393
20692WAT     H162318   1.651   0.877   6.316
20692WAT     H262319   1.521   0.915   6.408
20693WAT      O62320   5.123   8.433   6.157
20693WAT     H162321   5.135   8.334   6.148
20693WAT     H262322   5.078   8.468   6.075
20694WAT      O62323   8.125   5.903   7.588
20694WAT     H162324   8.118   5.972   7.660
20694WAT     H262325   8.073   5.821   7.614
20695WAT      O62326   8.776   2.072   8.727
20695WAT     H162327   8.759   2.125   8.643
20695WAT     H262328   8.819   2.131   8.795
20696WAT      O62329   6.959   6.511   6.581
20696WAT     H162330   7.020   6.589   6.584
20696WAT     H262331   6.896   6.515   6.659
20697WAT      O62332   2.512   5.774   0.139
20697WAT     H162333   2.578   5.698   0.134
20697WAT     H262334   2.422   5.742   0.112
20698WAT      O62335   4.776   9.241   4.331
20698WAT     H162336   4.717   9.220   4.409
20698WAT     H262337   4.723   9.232   4.246
20699WAT      O62338   3.239   4.412   0.424
20699WAT     H162339   3.321   4.466   0.442
20699WAT     H262340   3.190   4.451   0.346
20700WAT      O62341   8.782   7.136   8.464
20700WAT     H162342   8.761   7.040   8.444
20700WAT     H262343   8.697   7.187   8.474
20701WAT      O62344   9.100   2.016   0.440
20701WAT     H162345   9.176   2.061   0.487
20701WAT     H262346   9.050   1.958   0.504
20702WAT      O62347   7.034   6.053   9.171
20702WAT     H162348   7.061   6.025   9.264
20702WAT     H262349   7.027   6.153   9.168
20703WAT      O62350   9.362   3.364   7.972
20703WAT     H162351   9.365   3.442   8.034
20703WAT     H262352   9.267   3.344   7.949
20704WAT      O62353   7.289   2.754   5.413
20704WAT     H162354   7.225   2.710   5.477
20704WAT     H262355   7.244   2.765   5.324
20705WAT      O62356   5.992   9.467   7.720
20705WAT     H162357   6.049   9.386   7.724
20705WAT     H262358   5.946   9.480   7.808
20706WAT      O62359   0.018   0.147   6.887
20706WAT     H162360  -0.046   0.110   6.819
20706WAT     H262361  -0.029   0.159   6.974
20707WAT      O62362   5.823   2.949   1.525
20707WAT     H162363   5.857   2.943   1.432
20707WAT     H262364   5.724   2.960   1.524
20708WAT      O62365   9.489   7.173   9.519
20708WAT     H162366   9.565   7.116   9.487
20708WAT     H262367   9.475   7.157   9.617
20709WAT      O62368   7.414   7.831   7.017
20709WAT     H162369   7.479   7.876   6.955
20709WAT     H262370   7.331   7.807   6.966
20710WAT      O62371   7.822   8.238   5.367
20710WAT     H162372   7.760   8.160   5.362
20710WAT     H262373   7.837   8.275   5.276
20711WAT      O62374   2.009   1.566   0.421
20711WAT     H162375   2.012   1.628   0.342
20711WAT     H262376   1.994   1.472   0.390
20712WAT      O62377   6.420   9.188   1.485
20712WAT     H162378   6.457   9.096   1.494
20712WAT     H262379   6.347   9.189   1.417
20713WAT      O62380   7.127   1.588   8.855
20713WAT     H162381   7.136   1.632   8.765
20713WAT     H262382   7.216   1.590   8.901
20714WAT      O62383   7.265   9.803   1.870
20714WAT     H162384   7.264   9.704   1.858
20714WAT     H262385   7.209   9.846   1.799
20715WAT      O62386   6.877   1.190   3.550
20715WAT     H162387   6.907   1.163   3.642
20715WAT     H262388   6.841   1.110   3.502
20716WAT      O62389   4.845   9.107   1.798
20716WAT     H162390   4.747   9.095   1.781
20716WAT     H262391   4.873   9.198   1.768
20717WAT      O62392   8.972   7.361   3.274
20717WAT     H162393   8.956   7.382   3.370
20717WAT     H262394   8.964   7.262   3.259
20718WAT      O62395   5.088   5.971   9.484
20718WAT     H162396   5.121   5.997   9.393
20718WAT     H262397   5.162   5.932   9.537
20719WAT      O62398   0.387   5.183   7.883
20719WAT     H162399   0.487   5.183   7.881
20719WAT     H262400   0.352   5.142   7.799
20720WAT      O62401   6.945   9.354   9.304
20720WAT     H162402   6.890   9.367   9.221
20720WAT     H262403   7.005   9.433   9.316
20721WAT      O62404   5.718   3.754   5.568
20721WAT     H162405   5.713   3.851   5.592
20721WAT     H262406   5.687   3.741   5.474
20722WAT      O62407   5.614   2.146   2.717
20722WAT     H162408   5.555   2.123   2.639
20722WAT     H262409   5.646   2.062   2.760
20723WAT      O62410   4.622   4.642   6.760
20723WAT     H162411   4.657   4.549   6.746
20723WAT     H262412   4.543   4.639   6.822
20724WAT      O62413   1.669   7.864   4.951
20724WAT     H162414   1.714   7.925   5.016
20724WAT     H262415   1.717   7.868   4.863
20725WAT      O62416   6.074   8.003   0.012
20725WAT     H162417   6.114   8.079  -0.039
20725WAT     H262418   5.989   7.975  -0.032
20726WAT      O62419   7.911   2.799   9.828
20726WAT     H162420   7.911   2.702   9.805
20726WAT     H262421   7.843   2.816   9.899
20727WAT      O62422   2.827   7.372   8.925
20727WAT     H162423   2.824   7.463   8.967
20727WAT     H262424   2.747   7.319   8.954
20728WAT      O62425   1.344   4.267   3.921
20728WAT     H162426   1.344   4.269   4.021
20728WAT     H262427   1.256   4.235   3.889
20729WAT      O62428   2.075   1.218   8.799
20729WAT     H162429   2.032   1.302   8.830
20729WAT     H262430   2.140   1.186   8.868
20730WAT      O62431   6.600   5.901   4.454
20730WAT     H162432   6.636   5.963   4.523
20730WAT     H262433   6.653   5.817   4.453
20731WAT      O62434   4.839   8.666   8.701
20731WAT     H162435   4.874   8.751   8.662
20731WAT     H262436   4.896   8.589   8.672
20732WAT      O62437   9.190   1.302   3.709
20732WAT     H162438   9.224   1.230   3.770
20732WAT     H262439   9.266   1.340   3.657
20733WAT      O62440   4.549   3.045   7.306
20733WAT     H162441   4.497   3.026   7.390
20733WAT     H262442   4.542   2.967   7.244
20734WAT      O62443   3.797   7.802   7.347
20734WAT     H162444   3.720   7.737   7.353
20734WAT     H262445   3.882   7.754   7.367
20735WAT      O62446   3.399   6.785   6.958
20735WAT     H162447   3.365   6.878   6.948
20735WAT     H262448   3.459   6.763   6.881
20736WAT      O62449   6.469   2.902   3.670
20736WAT     H162450   6.420   2.960   3.605
20736WAT     H262451   6.540   2.851   3.622
20737WAT      O62452   3.218   8.140   7.977
20737WAT     H162453   3.201   8.117   7.881
20737WAT     H262454   3.280   8.072   8.017
20738WAT      O62455   8.308   8.884   4.343
20738WAT     H162456   8.272   8.949   4.410
20738WAT     H262457   8.366   8.817   4.390
20739WAT      O62458   5.824   1.872   5.108
20739WAT     H162459   5.873   1.803   5.055
20739WAT     H262460   5.883   1.908   5.180
20740WAT      O62461   0.492   2.369   7.789
20740WAT     H162462   0.431   2.314   7.732
20740WAT     H262463   0.557   2.309   7.837
20741WAT      O62464   6.117   9.076   2.804
20741WAT     H162465   6.073   9.128   2.732
20741WAT     H262466   6.066   9.086   2.889
20742WAT      O62467   2.859   9.145   0.150
20742WAT     H162468   2.907   9.059   0.167
20742WAT     H262469   2.801   9.135   0.069
20743WAT      O62470   1.796   6.968   7.087
20743WAT     H162471   1.722   6.910   7.054
20743WAT     H262472   1.859   6.988   7.011
20744WAT      O62473   6.247   2.248   2.106
20744WAT     H162474   6.274   2.202   2.191
20744WAT     H262475   6.308   2.219   2.033
20745WAT      O62476   8.477   0.598   1.408
20745WAT     H162477   8.477   0.609   1.507
20745WAT     H262478   8.479   0.500   1.386
20746WAT      O62479   4.604   6.259   0.514
20746WAT     H162480   4.536   6.241   0.444
20746WAT     H262481   4.668   6.329   0.482
20747WAT      O62482   0.749   3.297   4.143
20747WAT     H162483   0.830   3.282   4.086
20747WAT     H262484   0.679   3.345   4.091
20748WAT      O62485   5.880   5.598   1.505
20748WAT     H162486   5.914   5.512   1.467
20748WAT     H262487   5.833   5.580   1.591
20749WAT      O62488   9.020   6.587   3.434
20749WAT     H162489   9.078   6.514   3.471
20749WAT     H262490   9.050   6.610   3.341
20750WAT      O62491   9.128   1.067   9.435
20750WAT     H162492   9.142   1.067   9.534
20750WAT     H262493   9.044   1.016   9.413
20751WAT      O62494   3.741   8.961   7.132
20751WAT     H162495   3.720   8.867   7.159
20751WAT     H262496   3.839   8.977   7.141
20752WAT      O62497   9.888   3.235   0.809
20752WAT     H162498   9.799   3.189   0.814
20752WAT     H262499   9.961   3.169   0.824
20753WAT      O62500   2.492   7.162   8.721
20753WAT     H162501   2.505   7.225   8.644
20753WAT     H262502   2.496   7.214   8.807
20754WAT      O62503   1.562   5.216   8.931
20754WAT     H162504   1.571   5.118   8.948
20754WAT     H262505   1.562   5.233   8.833
20755WAT      O62506   7.870   6.661   6.550
20755WAT     H162507   7.833   6.703   6.633
20755WAT     H262508   7.804   6.595   6.514
20756WAT      O62509   8.424   0.246   5.676
20756WAT     H162510   8.444   0.274   5.770
20756WAT     H262511   8.450   0.151   5.664
20757WAT      O62512   8.798   1.211   0.982
20757WAT     H162513   8.706   1.240   0.958
20757WAT     H262514   8.812   1.116   0.955
20758WAT      O62515   5.947   1.846   3.521
20758WAT     H162516   5.872   1.781   3.536
20758WAT     H262517   6.006   1.848   3.602
20759WAT      O62518   6.564   2.221   5.044
20759WAT     H162519   6.485   2.203   4.985
20759WAT     H262520   6.615   2.299   5.010
20760WAT      O62521   5.038   3.417   8.865
20760WAT     H162522   5.092   3.475   8.803
20760WAT     H262523   5.073   3.324   8.861
20761WAT      O62524   8.623   9.461   0.439
20761WAT     H162525   8.527   9.443   0.461
20761WAT     H262526   8.682   9.412   0.503
20762WAT      O62527   3.818   1.158   2.176
20762WAT     H162528   3.827   1.229   2.246
20762WAT     H262529   3.722   1.131   2.169
20763WAT      O62530   2.805   9.245   8.451
20763WAT     H162531   2.713   9.230   8.485
20763WAT     H262532   2.859   9.161   8.460
20764WAT      O62533   3.332   1.954   3.081
20764WAT     H162534   3.320   1.990   3.174
20764WAT     H262535   3.275   2.005   3.017
20765WAT      O62536   8.485   7.117   9.030
20765WAT     H162537   8.480   7.213   9.055
20765WAT     H262538   8.570   7.100   8.979
20766WAT      O62539   7.784   0.675   8.466
20766WAT     H162540   7.831   0.640   8.385
20766WAT     H262541   7.782   0.775   8.463
20767WAT      O62542   3.424   0.825   1.499
20767WAT     H162543   3.441   0.923   1.498
20767WAT     H262544   3.337   0.806   1.543
20768WAT      O62545   6.709   9.815   1.976
20768WAT     H162546   6.804   9.843   1.990
20768WAT     H262547   6.654   9.895   1.950
20769WAT      O62548   7.822   7.431   4.522
20769WAT     H162549   7.899   7.413   4.461
20769WAT     H262550   7.738   7.441   4.468
20770WAT      O62551   3.739   0.040   7.718
20770WAT     H162552   3.803  -0.036   7.706
20770WAT     H262553   3.690   0.028   7.805
20771WAT      O62554   6.804   4.391   0.476
20771WAT     H162555   6.886   4.447   0.489
20771WAT     H262556   6.826   4.313   0.416
20772WAT      O62557   5.596   3.252   4.793
20772WAT     H162558   5.583   3.216   4.885
20772WAT     H262559   5.624   3.179   4.731
20773WAT      O62560   0.804   1.225   3.576
20773WAT     H162561   0.769   1.319   3.569
20773WAT     H262562   0.731   1.161   3.553
20774WAT      O62563   9.517   9.476   0.363
20774WAT     H162564   9.474   9.413   0.427
20774WAT     H262565   9.523   9.567   0.404
20775WAT      O62566   6.218   4.577   8.598
20775WAT     H162567   6.121   4.599   8.585
20775WAT     H262568   6.256   4.543   8.512
20776WAT      O62569   2.488   3.173   1.034
20776WAT     H162570   2.453   3.264   1.014
20776WAT     H262571   2.420   3.104   1.009
20777WAT      O62572   1.090   8.696   7.638
20777WAT     H162573   1.057   8.773   7.585
20777WAT     H262574   1.189   8.687   7.625
20778WAT      O62575   2.241   5.064   1.022
20778WAT     H162576   2.210   5.159   1.036
20778WAT     H262577   2.176   5.002   1.066
20779WAT      O62578   3.402   5.965   1.834
20779WAT     H162579   3.482   6.025   1.840
20779WAT     H262580   3.404   5.915   1.748
20780WAT      O62581   3.987   9.520   9.216
20780WAT     H162582   3.954   9.431   9.245
20780WAT     H262583   4.018   9.572   9.297
20781WAT      O62584   5.752   7.325   8.342
20781WAT     H162585   5.787   7.378   8.264
20781WAT     H262586   5.801   7.351   8.425
20782WAT      O62587   0.089   4.938   6.174
20782WAT     H162588   0.032   4.955   6.094
20782WAT     H262589   0.179   4.979   6.161
20783WAT      O62590   3.680   5.520   6.131
20783WAT     H162591   3.768   5.498   6.171
20783WAT     H262592   3.668   5.469   6.045
20784WAT      O62593   9.583   4.373   4.610
20784WAT     H162594   9.656   4.396   4.545
20784WAT     H262595   9.514   4.318   4.564
20785WAT      O62596   9.439   8.547   8.390
20785WAT     H162597   9.505   8.621   8.405
20785WAT     H262598   9.473   8.485   8.320
20786WAT      O62599   8.246   8.410   3.532
20786WAT     H162600   8.271   8.504   3.553
20786WAT     H262601   8.325   8.362   3.494
20787WAT      O62602   2.460   3.203   9.454
20787WAT     H162603   2.368   3.228   9.425
20787WAT     H262604   2.460   3.109   9.489
20788WAT      O62605   7.906   1.437   0.487
20788WAT     H162606   7.894   1.338   0.488
20788WAT     H262607   7.983   1.461   0.547
20789WAT      O62608   7.090   1.468   8.541
20789WAT     H162609   7.030   1.486   8.619
20789WAT     H262610   7.064   1.526   8.465
20790WAT      O62611   0.400   7.631   7.293
20790WAT     H162612   0.317   7.577   7.283
20790WAT     H262613   0.405   7.668   7.386
20791WAT      O62614   3.763   3.787   3.504
20791WAT     H162615   3.664   3.796   3.514
20791WAT     H262616   3.803   3.876   3.484
20792WAT      O62617   2.052   2.884   5.661
20792WAT     H162618   1.980   2.939   5.702
20792WAT     H262619   2.083   2.816   5.726
20793WAT      O62620   3.489   2.877   3.730
20793WAT     H162621   3.443   2.813   3.668
20793WAT     H262622   3.567   2.917   3.682
20794WAT      O62623   0.250   8.136   6.112
20794WAT     H162624   0.309   8.190   6.173
20794WAT     H262625   0.192   8.198   6.058
20795WAT      O62626   0.668   1.161   6.525
20795WAT     H162627   0.668   1.221   6.445
20795WAT     H262628   0.727   1.200   6.596
20796WAT      O62629   0.891   8.639   6.866
20796WAT     H162630   0.865   8.734   6.848
20796WAT     H262631   0.942   8.635   6.952
20797WAT      O62632   8.527   7.189   0.704
20797WAT     H162633   8.455   7.119   0.700
20797WAT     H262634   8.554   7.203   0.799
20798WAT      O62635   9.484   4.823   8.178
20798WAT     H162636   9.556   4.889   8.158
20798WAT     H262637   9.399   4.872   8.196
20799WAT      O62638   3.551   9.173   5.177
20799WAT     H162639   3.647   9.171   5.206
20799WAT     H262640   3.529   9.263   5.139
20800WAT      O62641   7.343   8.268   8.618
20800WAT     H162642   7.419   8.203   8.612
20800WAT     H262643   7.356   8.342   8.552
20801WAT      O62644   7.358   8.059   1.417
20801WAT     H162645   7.425   8.066   1.343
20801WAT     H262646   7.393   8.108   1.498
20802WAT      O62647   4.862   2.657   3.282
20802WAT     H162648   4.791   2.588   3.297
20802WAT     H262649   4.820   2.745   3.262
20803WAT      O62650   2.412   6.729   9.327
20803WAT     H162651   2.451   6.784   9.253
20803WAT     H262652   2.405   6.634   9.298
20804WAT      O62653   7.588   8.835   8.480
20804WAT     H162654   7.565   8.742   8.450
20804WAT     H262655   7.687   8.848   8.471
20805WAT      O62656   3.041   4.637   9.304
20805WAT     H162657   2.983   4.700   9.355
20805WAT     H262658   3.035   4.546   9.345
20806WAT      O62659   2.953   4.085   3.720
20806WAT     H162660   2.991   4.176   3.734
20806WAT     H262661   3.028   4.019   3.709
20807WAT      O62662   6.076   0.108   8.003
20807WAT     H162663   6.002   0.091   7.937
20807WAT     H262664   6.153   0.151   7.956
20808WAT      O62665   8.784   6.363   3.238
20808WAT     H162666   8.703   6.309   3.214
20808WAT     H262667   8.759   6.431   3.306
20809WAT      O62668   4.659   5.990   7.997
20809WAT     H162669   4.731   5.999   7.927
20809WAT     H262670   4.576   5.956   7.955
20810WAT      O62671   3.720   3.490   7.070
20810WAT     H162672   3.757   3.544   6.994
20810WAT     H262673   3.775   3.408   7.083
20811WAT      O62674   3.213   7.306   9.145
20811WAT     H162675   3.176   7.227   9.194
20811WAT     H262676   3.184   7.390   9.191
20812WAT      O62677   5.374   3.840   2.294
20812WAT     H162678   5.283   3.814   2.261
20812WAT     H262679   5.370   3.930   2.337
20813WAT      O62680   5.478   5.116   7.476
20813WAT     H162681   5.449   5.113   7.572
20813WAT     H262682   5.521   5.204   7.457
20814WAT      O62683   4.936   5.798   8.226
20814WAT     H162684   4.936   5.700   8.202
20814WAT     H262685   4.965   5.851   8.147
20815WAT      O62686   0.918   8.427   2.597
20815WAT     H162687   0.868   8.514   2.596
20815WAT     H262688   0.997   8.434   2.658
20816WAT      O62689   4.293   3.064   6.227
20816WAT     H162690   4.205   3.016   6.232
20816WAT     H262691   4.363   3.002   6.191
20817WAT      O62692   0.103   1.029   0.170
20817WAT     H162693   0.047   1.112   0.173
20817WAT     H262694   0.055   0.959   0.117
20818WAT      O62695   4.481   4.521   3.267
20818WAT     H162696   4.463   4.517   3.168
20818WAT     H262697   4.574   4.488   3.285
20819WAT      O62698   2.450   8.902   1.388
20819WAT     H162699   2.413   8.836   1.453
20819WAT     H262700   2.452   8.861   1.297
20820WAT      O62701   8.141   8.514   5.930
20820WAT     H162702   8.085   8.558   5.999
20820WAT     H262703   8.238   8.522   5.955
20821WAT      O62704   8.626   4.184   3.373
20821WAT     H162705   8.689   4.146   3.305
20821WAT     H262706   8.626   4.126   3.455
20822WAT      O62707   7.999   4.687   6.854
20822WAT     H162708   7.945   4.616   6.898
20822WAT     H262709   8.097   4.668   6.866
20823WAT      O62710   8.094   0.754   3.985
20823WAT     H162711   8.117   0.694   3.908
20823WAT     H262712   8.058   0.840   3.950
20824WAT      O62713   0.631   0.386   2.054
20824WAT     H162714   0.548   0.430   2.089
20824WAT     H262715   0.711   0.437   2.083
20825WAT      O62716   7.107   4.650   3.280
20825WAT     H162717   7.103   4.742   3.319
20825WAT     H262718   7.091   4.583   3.351
20826WAT      O62719   0.602   4.214   1.642
20826WAT     H162720   0.676   4.265   1.686
20826WAT     H262721   0.638   4.128   1.606
20827WAT      O62722   3.929   4.219   3.797
20827WAT     H162723   3.912   4.255   3.888
20827WAT     H262724   3.842   4.199   3.752
20828WAT      O62725   9.212   9.583   0.526
20828WAT     H162726   9.286   9.582   0.593
20828WAT     H262727   9.131   9.538   0.565
20829WAT      O62728   0.686   0.646   9.028
20829WAT     H162729   0.743   0.565   9.013
20829WAT     H262730   0.706   0.685   9.118
20830WAT      O62731   7.082   3.463   8.651
20830WAT     H162732   7.106   3.377   8.605
20830WAT     H262733   7.023   3.442   8.729
20831WAT      O62734   7.216   8.893   1.548
20831WAT     H162735   7.224   8.888   1.648
20831WAT     H262736   7.271   8.969   1.515
20832WAT      O62737   9.761   8.226   3.752
20832WAT     H162738   9.853   8.220   3.712
20832WAT     H262739   9.749   8.315   3.795
20833WAT      O62740   1.746   7.775   7.204
20833WAT     H162741   1.810   7.824   7.264
20833WAT     H262742   1.736   7.681   7.237
20834WAT      O62743   7.072   0.223   4.817
20834WAT     H162744   6.984   0.267   4.833
20834WAT     H262745   7.100   0.174   4.900
20835WAT      O62746   2.081   3.543   8.828
20835WAT     H162747   2.080   3.635   8.867
20835WAT     H262748   2.136   3.483   8.886
20836WAT      O62749   3.001   0.536   8.982
20836WAT     H162750   2.917   0.561   9.029
20836WAT     H262751   3.078   0.540   9.046
20837WAT      O62752   0.032   0.929   0.531
20837WAT     H162753   0.086   1.014   0.530
20837WAT     H262754   0.086   0.854   0.493
20838WAT      O62755   2.322   6.152   5.633
20838WAT     H162756   2.348   6.221   5.565
20838WAT     H262757   2.405   6.112   5.673
20839WAT      O62758   2.977   1.299   3.128
20839WAT     H162759   2.926   1.239   3.066
20839WAT     H262760   2.949   1.394   3.115
20840WAT      O62761   3.902   2.784   2.494
20840WAT     H162762   3.920   2.870   2.542
20840WAT     H262763   3.822   2.795   2.435
20841WAT      O62764   6.044   1.399   7.621
20841WAT     H162765   6.052   1.387   7.522
20841WAT     H262766   5.950   1.383   7.649
20842WAT      O62767   3.424   0.021   9.461
20842WAT     H162768   3.380  -0.056   9.414
20842WAT     H262769   3.372   0.044   9.543
20843WAT      O62770   4.076   9.163   5.307
20843WAT     H162771   4.102   9.255   5.279
20843WAT     H262772   4.056   9.163   5.405
20844WAT      O62773   0.795   0.691   9.265
20844WAT     H162774   0.822   0.788   9.260
20844WAT     H262775   0.853   0.644   9.332
20845WAT      O62776   4.398   1.608   6.546
20845WAT     H162777   4.467   1.572   6.482
20845WAT     H262778   4.307   1.584   6.513
20846WAT      O62779   6.212   7.975   7.800
20846WAT     H162780   6.267   7.935   7.726
20846WAT     H262781   6.119   7.940   7.793
20847WAT      O62782   6.197   3.854   0.584
20847WAT     H162783   6.112   3.901   0.557
20847WAT     H262784   6.273   3.918   0.577
20848WAT      O62785   3.082   9.355   8.998
20848WAT     H162786   3.061   9.445   9.036
20848WAT     H262787   3.056   9.352   8.902
20849WAT      O62788   1.670   0.810   7.632
20849WAT     H162789   1.585   0.773   7.594
20849WAT     H262790   1.748   0.772   7.582
20850WAT      O62791   6.213   5.270   4.306
20850WAT     H162792   6.116   5.257   4.287
20850WAT     H262793   6.243   5.357   4.267
20851WAT      O62794   3.090   2.757   7.723
20851WAT     H162795   3.047   2.743   7.634
20851WAT     H262796   3.024   2.798   7.787
20852WAT      O62797   7.083   5.919   3.945
20852WAT     H162798   7.069   5.954   3.853
20852WAT     H262799   7.033   5.976   4.011
20853WAT      O62800   0.210   0.641   2.112
20853WAT     H162801   0.144   0.566   2.112
20853WAT     H262802   0.197   0.697   2.194
20854WAT      O62803   1.726   1.071   7.479
20854WAT     H162804   1.816   1.079   7.523
20854WAT     H262805   1.692   0.977   7.489
20855WAT      O62806   1.763   9.184   3.887
20855WAT     H162807   1.679   9.209   3.935
20855WAT     H262808   1.808   9.267   3.854
20856WAT      O62809   2.145   0.684   4.112
20856WAT     H162810   2.101   0.662   4.200
20856WAT     H262811   2.223   0.744   4.129
20857WAT      O62812   6.371   7.874   5.884
20857WAT     H162813   6.305   7.837   5.949
20857WAT     H262814   6.434   7.935   5.931
20858WAT      O62815   3.414   7.355   8.940
20858WAT     H162816   3.356   7.354   9.021
20858WAT     H262817   3.423   7.263   8.904
20859WAT      O62818   6.622   9.780   4.977
20859WAT     H162819   6.682   9.706   4.947
20859WAT     H262820   6.558   9.803   4.903
20860WAT      O62821   8.080   7.449   9.516
20860WAT     H162822   8.126   7.449   9.604
20860WAT     H262823   7.981   7.447   9.529
20861WAT      O62824   2.802   9.276   0.801
20861WAT     H162825   2.820   9.222   0.883
20861WAT     H262826   2.724   9.337   0.819
20862WAT      O62827   6.486   3.314   0.517
20862WAT     H162828   6.470   3.390   0.581
20862WAT     H262829   6.411   3.249   0.524
20863WAT      O62830   3.527   5.079   8.340
20863WAT     H162831   3.614   5.113   8.375
20863WAT     H262832   3.456   5.091   8.409
20864WAT      O62833   0.578   2.025   3.805
20864WAT     H162834   0.641   1.987   3.738
20864WAT     H262835   0.613   2.009   3.897
20865WAT      O62836   6.377   6.852   1.801
20865WAT     H162837   6.280   6.852   1.824
20865WAT     H262838   6.425   6.917   1.860
20866WAT      O62839   7.688   4.230   2.807
20866WAT     H162840   7.634   4.157   2.849
20866WAT     H262841   7.708   4.206   2.712
20867WAT      O62842   2.433   9.809   6.718
20867WAT     H162843   2.456   9.845   6.627
20867WAT     H262844   2.348   9.757   6.712
20868WAT      O62845   0.533   6.257   6.652
20868WAT     H162846   0.490   6.337   6.695
20868WAT     H262847   0.509   6.175   6.702
20869WAT      O62848   2.556   6.328   1.448
20869WAT     H162849   2.490   6.402   1.432
20869WAT     H262850   2.632   6.338   1.384
20870WAT      O62851   6.810   2.904   0.269
20870WAT     H162852   6.776   2.825   0.218
20870WAT     H262853   6.736   2.970   0.281
20871WAT      O62854   4.711   6.259   6.533
20871WAT     H162855   4.675   6.313   6.608
20871WAT     H262856   4.666   6.287   6.448
20872WAT      O62857   4.789   9.843   9.139
20872WAT     H162858   4.783   9.828   9.040
20872WAT     H262859   4.720   9.787   9.186
20873WAT      O62860   8.690   1.887   2.054
20873WAT     H162861   8.684   1.920   2.149
20873WAT     H262862   8.682   1.788   2.052
20874WAT      O62863   9.603   1.894   2.595
20874WAT     H162864   9.516   1.852   2.621
20874WAT     H262865   9.637   1.949   2.671
20875WAT      O62866   8.195   8.741   3.539
20875WAT     H162867   8.098   8.714   3.543
20875WAT     H262868   8.221   8.784   3.626
20876WAT      O62869   4.145   4.603   3.959
20876WAT     H162870   4.137   4.690   4.008
20876WAT     H262871   4.129   4.527   4.023
20877WAT      O62872   1.921   3.289   9.400
20877WAT     H162873   1.882   3.353   9.333
20877WAT     H262874   1.848   3.243   9.450
20878WAT      O62875   9.644   3.815   4.542
20878WAT     H162876   9.645   3.813   4.442
20878WAT     H262877   9.626   3.723   4.577
20879WAT      O62878   9.358   0.030   7.100
20879WAT     H162879   9.409   0.113   7.078
20879WAT     H262880   9.417  -0.049   7.088
20880WAT      O62881   5.924   3.930   2.638
20880WAT     H162882   5.937   3.987   2.557
20880WAT     H262883   5.832   3.944   2.675
20881WAT      O62884   7.277   8.415   2.089
20881WAT     H162885   7.339   8.469   2.146
20881WAT     H262886   7.327   8.372   2.015
20882WAT      O62887   4.541   3.811   4.128
20882WAT     H162888   4.639   3.819   4.109
20882WAT     H262889   4.498   3.902   4.121
20883WAT      O62890   3.758   3.686   0.494
20883WAT     H162891   3.778   3.663   0.590
20883WAT     H262892   3.675   3.742   0.490
20884WAT      O62893   3.814   4.364   8.803
20884WAT     H162894   3.907   4.328   8.810
20884WAT     H262895   3.761   4.307   8.740
20885WAT      O62896   0.476   7.222   6.285
20885WAT     H162897   0.471   7.300   6.347
20885WAT     H262898   0.521   7.146   6.331
20886WAT      O62899   7.375   3.739   0.232
20886WAT     H162900   7.377   3.775   0.325
20886WAT     H262901   7.442   3.665   0.223
20887WAT      O62902   4.196   1.369   1.044
20887WAT     H162903   4.287   1.405   1.065
20887WAT     H262904   4.193   1.271   1.065
20888WAT      O62905   4.777   9.124   4.796
20888WAT     H162906   4.852   9.166   4.746
20888WAT     H262907   4.788   9.025   4.796
20889WAT      O62908   8.872   5.499   7.503
20889WAT     H162909   8.935   5.432   7.543
20889WAT     H262910   8.857   5.477   7.407
20890WAT      O62911   6.906   7.970   7.883
20890WAT     H162912   6.962   8.045   7.849
20890WAT     H262913   6.906   7.895   7.817
20891WAT      O62914   8.386   6.018   0.670
20891WAT     H162915   8.457   6.070   0.622
20891WAT     H262916   8.410   6.009   0.767
20892WAT      O62917   0.315   8.545   4.051
20892WAT     H162918   0.377   8.607   4.099
20892WAT     H262919   0.309   8.458   4.101
20893WAT      O62920   6.113   7.981   3.242
20893WAT     H162921   6.071   7.910   3.185
20893WAT     H262922   6.046   8.017   3.307
20894WAT      O62923   3.005   5.213   6.916
20894WAT     H162924   2.995   5.300   6.869
20894WAT     H262925   2.989   5.225   7.014
20895WAT      O62926   5.074   7.385   6.862
20895WAT     H162927   5.027   7.412   6.946
20895WAT     H262928   5.040   7.295   6.833
20896WAT      O62929   4.703   1.400   5.721
20896WAT     H162930   4.635   1.349   5.773
20896WAT     H262931   4.780   1.341   5.698
20897WAT      O62932   8.957   4.542   0.564
20897WAT     H162933   8.887   4.565   0.497
20897WAT     H262934   9.038   4.599   0.548
20898WAT      O62935   8.361   2.721   8.305
20898WAT     H162936   8.309   2.797   8.342
20898WAT     H262937   8.359   2.723   8.205
20899WAT      O62938   0.534   0.438   3.319
20899WAT     H162939   0.467   0.371   3.351
20899WAT     H262940   0.486   0.518   3.283
20900WAT      O62941   0.367   8.492   9.260
20900WAT     H162942   0.465   8.503   9.274
20900WAT     H262943   0.317   8.545   9.328
20901WAT      O62944   4.163   0.515   0.975
20901WAT     H162945   4.133   0.503   1.070
20901WAT     H262946   4.190   0.610   0.961
20902WAT      O62947   3.596   6.168   5.437
20902WAT     H162948   3.652   6.178   5.356
20902WAT     H262949   3.645   6.114   5.505
20903WAT      O62950   9.484   6.660   6.338
20903WAT     H162951   9.530   6.664   6.427
20903WAT     H262952   9.532   6.596   6.279
20904WAT      O62953   8.241   1.363   9.113
20904WAT     H162954   8.145   1.376   9.139
20904WAT     H262955   8.250   1.372   9.014
20905WAT      O62956   7.559   1.154   1.207
20905WAT     H162957   7.659   1.145   1.207
20905WAT     H262958   7.526   1.147   1.113
20906WAT      O62959   4.308   4.365   6.885
20906WAT     H162960   4.321   4.454   6.840
20906WAT     H262961   4.385   4.305   6.864
20907WAT      O62962   8.285   1.012   3.151
20907WAT     H162963   8.353   1.028   3.222
20907WAT     H262964   8.328   0.963   3.075
20908WAT      O62965   6.558   1.195   0.338
20908WAT     H162966   6.542   1.176   0.434
20908WAT     H262967   6.641   1.251   0.328
20909WAT      O62968   9.633   6.080   7.146
20909WAT     H162969   9.672   5.988   7.143
20909WAT     H262970   9.682   6.135   7.212
20910WAT      O62971   8.685   7.299   3.015
20910WAT     H162972   8.752   7.373   3.007
20910WAT     H262973   8.594   7.338   3.028
20911WAT      O62974   4.115   4.187   2.047
20911WAT     H162975   4.096   4.207   1.951
20911WAT     H262976   4.214   4.177   2.060
20912WAT      O62977   0.065   4.227   8.272
20912WAT     H162978   0.140   4.161   8.281
20912WAT     H262979   0.097   4.308   8.224
20913WAT      O62980   1.034   2.277   3.229
20913WAT     H162981   1.104   2.346   3.210
20913WAT     H262982   1.077   2.189   3.246
20914WAT      O62983   3.427   1.217   8.838
20914WAT     H162984   3.522   1.231   8.811
20914WAT     H262985   3.373   1.297   8.812
20915WAT      O62986   9.871   2.345   6.033
20915WAT     H162987   9.933   2.373   6.107
20915WAT     H262988   9.899   2.389   5.948
20916WAT      O62989   6.146   9.710   5.360
20916WAT     H162990   6.088   9.631   5.380
20916WAT     H262991   6.139   9.776   5.435
20917WAT      O62992   0.168   8.876   6.726
20917WAT     H162993   0.161   8.813   6.648
20917WAT     H262994   0.095   8.856   6.791
20918WAT      O62995   4.764   0.525   5.495
20918WAT     H162996   4.669   0.528   5.463
20918WAT     H262997   4.780   0.600   5.559
20919WAT      O62998   7.433   4.615   1.847
20919WAT     H162999   7.496   4.537   1.856
20919WAT     H263000   7.469   4.679   1.779
20920WAT      O63001   1.274   1.785   9.525
20920WAT     H163002   1.258   1.876   9.486
20920WAT     H263003   1.326   1.729   9.460
20921WAT      O63004   7.813   0.457   8.612
20921WAT     H163005   7.893   0.469   8.671
20921WAT     H263006   7.810   0.529   8.544
20922WAT      O63007   6.224   1.979   5.039
20922WAT     H163008   6.227   1.889   4.995
20922WAT     H263009   6.305   1.990   5.097
20923WAT      O63010   7.461   9.324   0.186
20923WAT     H163011   7.403   9.401   0.161
20923WAT     H263012   7.429   9.284   0.272
20924WAT      O63013   6.776   4.513   1.885
20924WAT     H163014   6.791   4.543   1.979
20924WAT     H263015   6.854   4.458   1.855
20925WAT      O63016   7.661   2.908   5.629
20925WAT     H163017   7.709   2.995   5.637
20925WAT     H263018   7.636   2.875   5.721
20926WAT      O63019   3.581   5.253   2.771
20926WAT     H163020   3.582   5.155   2.751
20926WAT     H263021   3.666   5.278   2.818
20927WAT      O63022   6.411   6.502   6.991
20927WAT     H163023   6.362   6.572   6.939
20927WAT     H263024   6.443   6.430   6.929
20928WAT      O63025   5.307   3.687   7.096
20928WAT     H163026   5.274   3.595   7.076
20928WAT     H263027   5.337   3.692   7.192
20929WAT      O63028   5.514   7.630   1.118
20929WAT     H163029   5.442   7.572   1.081
20929WAT     H263030   5.566   7.672   1.043
20930WAT      O63031   6.042   2.627   4.690
20930WAT     H163032   6.053   2.545   4.634
20930WAT     H263033   6.089   2.614   4.778
20931WAT      O63034   1.918   6.897   2.167
20931WAT     H163035   1.828   6.912   2.126
20931WAT     H263036   1.987   6.948   2.116
20932WAT      O63037   7.005   4.523   1.672
20932WAT     H163038   6.942   4.453   1.638
20932WAT     H263039   6.987   4.609   1.625
20933WAT      O63040   5.453   2.055   6.044
20933WAT     H163041   5.481   2.049   5.948
20933WAT     H263042   5.416   1.967   6.074
20934WAT      O63043   8.819   1.572   8.710
20934WAT     H163044   8.815   1.581   8.810
20934WAT     H263045   8.911   1.596   8.679
20935WAT      O63046   5.305   7.081   2.277
20935WAT     H163047   5.381   7.141   2.250
20935WAT     H263048   5.280   7.100   2.372
20936WAT      O63049   8.512   6.649   1.655
20936WAT     H163050   8.604   6.622   1.684
20936WAT     H263051   8.494   6.743   1.683
20937WAT      O63052   2.165   8.933   6.684
20937WAT     H163053   2.209   8.854   6.641
20937WAT     H263054   2.154   8.915   6.782
20938WAT      O63055   5.069   5.463   1.881
20938WAT     H163056   5.055   5.470   1.980
20938WAT     H263057   4.998   5.514   1.833
20939WAT      O63058   1.163   9.141   6.100
20939WAT     H163059   1.149   9.088   6.016
20939WAT     H263060   1.259   9.168   6.107
20940WAT      O63061   4.097   5.175   9.010
20940WAT     H163062   4.025   5.228   9.054
20940WAT     H263063   4.079   5.170   8.911
20941WAT      O63064   1.004   3.542   7.018
20941WAT     H163065   0.918   3.553   7.069
20941WAT     H263066   0.986   3.497   6.931
20942WAT      O63067   2.263   3.975   4.925
20942WAT     H163068   2.318   4.007   5.002
20942WAT     H263069   2.292   4.021   4.842
20943WAT      O63070   1.785   9.501   7.532
20943WAT     H163071   1.692   9.467   7.542
20943WAT     H263072   1.809   9.557   7.611
20944WAT      O63073   2.419   3.561   2.827
20944WAT     H163074   2.350   3.628   2.798
20944WAT     H263075   2.404   3.538   2.924
20945WAT      O63076   6.889   8.091   6.787
20945WAT     H163077   6.836   8.049   6.713
20945WAT     H263078   6.827   8.118   6.861
20946WAT      O63079   7.939   6.392   2.795
20946WAT     H163080   7.957   6.300   2.831
20946WAT     H263081   7.842   6.414   2.805
20947WAT      O63082   8.901   2.470   1.672
20947WAT     H163083   8.895   2.448   1.575
20947WAT     H263084   8.985   2.431   1.710
20948WAT      O63085   0.539   5.853   6.630
20948WAT     H163086   0.624   5.805   6.648
20948WAT     H263087   0.492   5.810   6.553
20949WAT      O63088   6.865   8.181   8.485
20949WAT     H163089   6.923   8.257   8.457
20949WAT     H263090   6.819   8.202   8.571
20950WAT      O63091   4.970   4.052   7.203
20950WAT     H163092   4.986   3.988   7.278
20950WAT     H263093   4.992   4.145   7.232
20951WAT      O63094   1.065   6.879   4.662
20951WAT     H163095   1.091   6.920   4.574
20951WAT     H263096   1.102   6.934   4.737
20952WAT      O63097   4.006   1.269   4.523
20952WAT     H163098   4.099   1.235   4.509
20952WAT     H263099   3.945   1.231   4.453
20953WAT      O63100   8.812   4.825   2.299
20953WAT     H163101   8.884   4.864   2.241
20953WAT     H263102   8.843   4.737   2.335
20954WAT      O63103   5.439   7.788   0.652
20954WAT     H163104   5.377   7.863   0.675
20954WAT     H263105   5.452   7.785   0.552
20955WAT      O63106   3.487   5.296   6.738
20955WAT     H163107   3.423   5.339   6.800
20955WAT     H263108   3.563   5.359   6.719
20956WAT      O63109   7.867   0.346   8.991
20956WAT     H163110   7.876   0.378   9.085
20956WAT     H263111   7.777   0.303   8.979
20957WAT      O63112   7.982   6.178   8.197
20957WAT     H163113   7.986   6.264   8.148
20957WAT     H263114   8.019   6.190   8.289
20958WAT      O63115   7.573   0.909   0.459
20958WAT     H163116   7.534   0.830   0.506
20958WAT     H263117   7.589   0.885   0.363
20959WAT      O63118   1.508   5.105   4.190
20959WAT     H163119   1.417   5.067   4.180
20959WAT     H263120   1.503   5.205   4.193
20960WAT      O63121   0.464   4.607   5.850
20960WAT     H163122   0.552   4.651   5.835
20960WAT     H263123   0.470   4.511   5.825
20961WAT      O63124   3.664   9.072   8.782
20961WAT     H163125   3.627   9.125   8.705
20961WAT     H263126   3.592   9.012   8.817
20962WAT      O63127   2.689   5.598   3.608
20962WAT     H163128   2.628   5.659   3.658
20962WAT     H263129   2.775   5.645   3.589
20963WAT      O63130   0.681   4.867   6.847
20963WAT     H163131   0.758   4.928   6.864
20963WAT     H263132   0.696   4.781   6.895
20964WAT      O63133   7.511   4.804   0.094
20964WAT     H163134   7.428   4.755   0.122
20964WAT     H263135   7.490   4.858   0.012
20965WAT      O63136   2.094   4.344   9.267
20965WAT     H163137   2.040   4.427   9.251
20965WAT     H263138   2.191   4.363   9.250
20966WAT      O63139   9.799   1.984   7.645
20966WAT     H163140   9.740   2.063   7.662
20966WAT     H263141   9.851   1.962   7.728
20967WAT      O63142   3.822   6.522   5.938
20967WAT     H163143   3.906   6.476   5.969
20967WAT     H263144   3.816   6.612   5.981
20968WAT      O63145   9.801   2.386   9.638
20968WAT     H163146   9.829   2.400   9.543
20968WAT     H263147   9.729   2.452   9.661
20969WAT      O63148   1.828   3.825   4.980
20969WAT     H163149   1.790   3.780   4.899
20969WAT     H263150   1.835   3.759   5.054
20970WAT      O63151   3.404   3.367   8.548
20970WAT     H163152   3.454   3.281   8.559
20970WAT     H263153   3.399   3.391   8.451
20971WAT      O63154   1.296   6.523   7.953
20971WAT     H163155   1.211   6.471   7.956
20971WAT     H263156   1.361   6.482   8.018
20972WAT      O63157   5.523   4.452   5.947
20972WAT     H163158   5.484   4.470   6.037
20972WAT     H263159   5.562   4.361   5.945
20973WAT      O63160   1.493   4.087   0.475
20973WAT     H163161   1.537   4.028   0.407
20973WAT     H263162   1.461   4.031   0.552
20974WAT      O63163   8.478   2.418   3.299
20974WAT     H163164   8.548   2.350   3.275
20974WAT     H263165   8.468   2.421   3.399
20975WAT      O63166   9.152   3.810   3.631
20975WAT     H163167   9.238   3.826   3.680
20975WAT     H263168   9.163   3.732   3.570
20976WAT      O63169   1.581   3.744   5.437
20976WAT     H163170   1.678   3.768   5.448
20976WAT     H263171   1.525   3.816   5.477
20977WAT      O63172   8.455   2.234   8.357
20977WAT     H163173   8.486   2.140   8.349
20977WAT     H263174   8.366   2.244   8.313
20978WAT      O63175   6.619   6.247   9.645
20978WAT     H163176   6.590   6.165   9.694
20978WAT     H263177   6.608   6.327   9.705
20979WAT      O63178   3.210   2.744   2.410
20979WAT     H163179   3.113   2.768   2.414
20979WAT     H263180   3.245   2.731   2.503
20980WAT      O63181   1.299   7.910   2.330
20980WAT     H163182   1.389   7.913   2.371
20980WAT     H263183   1.273   7.814   2.314
20981WAT      O63184   6.237   8.962   5.953
20981WAT     H163185   6.334   8.986   5.949
20981WAT     H263186   6.222   8.896   6.027
20982WAT      O63187   5.727   6.758   7.253
20982WAT     H163188   5.826   6.771   7.259
20982WAT     H263189   5.681   6.830   7.305
20983WAT      O63190   2.564   3.630   5.878
20983WAT     H163191   2.466   3.614   5.889
20983WAT     H263192   2.580   3.726   5.853
20984WAT      O63193   7.199   2.497   8.741
20984WAT     H163194   7.198   2.575   8.678
20984WAT     H263195   7.243   2.419   8.697
20985WAT      O63196   1.938   2.239   3.384
20985WAT     H163197   1.990   2.202   3.461
20985WAT     H263198   1.864   2.298   3.418
20986WAT      O63199   8.712   4.373   3.523
20986WAT     H163200   8.651   4.369   3.602
20986WAT     H263201   8.699   4.291   3.467
20987WAT      O63202   2.260   9.679   1.944
20987WAT     H163203   2.216   9.623   1.874
20987WAT     H263204   2.240   9.775   1.926
20988WAT      O63205   4.039   6.199   2.522
20988WAT     H163206   4.134   6.218   2.549
20988WAT     H263207   3.979   6.270   2.558
20989WAT      O63208   0.951   1.023   2.649
20989WAT     H163209   0.955   1.091   2.722
20989WAT     H263210   0.856   1.011   2.620
20990WAT      O63211   0.628   8.296   9.508
20990WAT     H163212   0.539   8.341   9.518
20990WAT     H263213   0.620   8.223   9.439
20991WAT      O63214   8.779   8.925   6.726
20991WAT     H163215   8.684   8.896   6.717
20991WAT     H263216   8.840   8.850   6.699
20992WAT      O63217   7.079   1.376   1.296
20992WAT     H163218   6.986   1.402   1.323
20992WAT     H263219   7.130   1.459   1.269
20993WAT      O63220   6.770   7.173   8.076
20993WAT     H163221   6.856   7.183   8.027
20993WAT     H263222   6.787   7.144   8.170
20994WAT      O63223   1.149   6.065   6.024
20994WAT     H163224   1.239   6.047   5.985
20994WAT     H263225   1.141   6.020   6.113
20995WAT      O63226   6.591   8.758   0.859
20995WAT     H163227   6.499   8.792   0.877
20995WAT     H263228   6.614   8.686   0.924
20996WAT      O63229   8.918   0.930   1.093
20996WAT     H163230   8.977   0.851   1.074
20996WAT     H263231   8.825   0.911   1.063
20997WAT      O63232   2.197   4.838   3.641
20997WAT     H163233   2.196   4.795   3.551
20997WAT     H263234   2.109   4.881   3.659
20998WAT      O63235   9.438   3.440   3.118
20998WAT     H163236   9.452   3.419   3.021
20998WAT     H263237   9.523   3.424   3.168
20999WAT      O63238   4.280   8.415   4.361
20999WAT     H163239   4.343   8.488   4.335
20999WAT     H263240   4.294   8.337   4.299
21000WAT      O63241   2.026   0.980   9.076
21000WAT     H163242   1.956   1.017   9.139
21000WAT     H263243   2.117   0.995   9.116
21001WAT      O63244   4.807   4.345   8.082
21001WAT     H163245   4.784   4.268   8.021
21001WAT     H263246   4.902   4.337   8.112
21002WAT      O63247   3.320   7.934   7.485
21002WAT     H163248   3.330   7.913   7.388
21002WAT     H263249   3.410   7.947   7.527
21003WAT      O63250   7.090   0.511   5.135
21003WAT     H163251   7.072   0.604   5.168
21003WAT     H263252   7.106   0.451   5.213
21004WAT      O63253   1.327   4.230   9.320
21004WAT     H163254   1.427   4.229   9.323
21004WAT     H263255   1.296   4.232   9.225
21005WAT      O63256   9.357   9.679   0.082
21005WAT     H163257   9.349   9.777   0.068
21005WAT     H263258   9.284   9.647   0.143
21006WAT      O63259   5.378   5.229   9.789
21006WAT     H163260   5.476   5.246   9.800
21006WAT     H263261   5.364   5.134   9.762
21007WAT      O63262   8.624   5.312   1.014
21007WAT     H163263   8.673   5.225   1.024
21007WAT     H263264   8.622   5.338   0.918
21008WAT      O63265   1.393   2.811   6.451
21008WAT     H163266   1.398   2.772   6.359
21008WAT     H263267   1.332   2.755   6.508
21009WAT      O63268   7.925   2.072   5.194
21009WAT     H163269   7.873   2.149   5.232
21009WAT     H263270   7.897   1.988   5.239
21010WAT      O63271   7.513   3.894   4.266
21010WAT     H163272   7.442   3.960   4.292
21010WAT     H263273   7.525   3.828   4.341
21011WAT      O63274   2.198   9.405   0.822
21011WAT     H163275   2.219   9.307   0.827
21011WAT     H263276   2.142   9.432   0.900
21012WAT      O63277   0.772   5.753   7.180
21012WAT     H163278   0.869   5.733   7.165
21012WAT     H263279   0.739   5.701   7.259
21013WAT      O63280   0.299   7.015   0.392
21013WAT     H163281   0.267   7.020   0.298
21013WAT     H263282   0.382   6.959   0.397
21014WAT      O63283   7.006   6.604   2.744
21014WAT     H163284   7.046   6.564   2.827
21014WAT     H263285   7.069   6.595   2.668
21015WAT      O63286   4.286   3.413   2.024
21015WAT     H163287   4.223   3.477   2.069
21015WAT     H263288   4.282   3.428   1.925
21016WAT      O63289   5.116   6.220   7.412
21016WAT     H163290   5.154   6.243   7.502
21016WAT     H263291   5.174   6.258   7.340
21017WAT      O63292   3.961   3.696   1.343
21017WAT     H163293   4.032   3.658   1.402
21017WAT     H263294   3.897   3.624   1.317
21018WAT      O63295   9.427   8.121   4.505
21018WAT     H163296   9.333   8.144   4.531
21018WAT     H263297   9.491   8.168   4.566
21019WAT      O63298   1.852   0.151   5.063
21019WAT     H163299   1.895   0.238   5.037
21019WAT     H263300   1.897   0.076   5.015
21020WAT      O63301   6.427   3.776   8.467
21020WAT     H163302   6.421   3.873   8.488
21020WAT     H263303   6.357   3.726   8.517
21021WAT      O63304   6.871   9.273   1.992
21021WAT     H163305   6.802   9.334   2.032
21021WAT     H263306   6.840   9.178   1.999
21022WAT      O63307   6.121   2.880   4.632
21022WAT     H163308   6.112   2.789   4.671
21022WAT     H263309   6.116   2.948   4.704
21023WAT      O63310   7.167   9.309   2.496
21023WAT     H163311   7.240   9.356   2.545
21023WAT     H263312   7.141   9.363   2.416
21024WAT      O63313   4.659   5.524   2.339
21024WAT     H163314   4.573   5.481   2.364
21024WAT     H263315   4.731   5.495   2.403
21025WAT      O63316   4.948   0.125   9.515
21025WAT     H163317   4.955   0.030   9.485
21025WAT     H263318   4.929   0.184   9.437
21026WAT      O63319   1.820   9.152   1.929
21026WAT     H163320   1.825   9.132   1.831
21026WAT     H263321   1.731   9.192   1.949
21027WAT      O63322   1.629   7.297   6.899
21027WAT     H163323   1.578   7.381   6.883
21027WAT     H263324   1.582   7.242   6.968
21028WAT      O63325   8.788   1.833   0.386
21028WAT     H163326   8.813   1.890   0.307
21028WAT     H263327   8.845   1.859   0.464
21029WAT      O63328   3.350   4.207   4.975
21029WAT     H163329   3.342   4.306   4.988
21029WAT     H263330   3.337   4.185   4.878
21030WAT      O63331   0.479   9.770   4.225
21030WAT     H163332   0.475   9.749   4.128
21030WAT     H263333   0.386   9.780   4.261
21031WAT      O63334   3.981   3.314   2.747
21031WAT     H163335   3.958   3.335   2.652
21031WAT     H263336   4.076   3.339   2.765
21032WAT      O63337   0.214   3.396   5.092
21032WAT     H163338   0.274   3.444   5.156
21032WAT     H263339   0.199   3.302   5.124
21033WAT      O63340   2.754   6.978   4.033
21033WAT     H163341   2.727   6.965   3.938
21033WAT     H263342   2.824   7.050   4.038
21034WAT      O63343   4.227   6.929   6.707
21034WAT     H163344   4.289   6.885   6.771
21034WAT     H263345   4.255   6.909   6.613
21035WAT      O63346   1.406   8.686   1.342
21035WAT     H163347   1.443   8.669   1.433
21035WAT     H263348   1.306   8.681   1.344
21036WAT      O63349   9.279   9.222   6.202
21036WAT     H163350   9.260   9.177   6.114
21036WAT     H263351   9.234   9.311   6.203
21037WAT      O63352   1.588   9.412   3.970
21037WAT     H163353   1.627   9.499   3.998
21037WAT     H263354   1.519   9.382   4.036
21038WAT      O63355   8.950   8.694   6.963
21038WAT     H163356   8.978   8.789   6.949
21038WAT     H263357   8.966   8.669   7.058
21039WAT      O63358   7.181   9.766   2.200
21039WAT     H163359   7.194   9.703   2.276
21039WAT     H263360   7.267   9.813   2.179
21040WAT      O63361   1.515   5.931   3.969
21040WAT     H163362   1.571   6.013   3.970
21040WAT     H263363   1.573   5.850   3.978
21041WAT      O63364   7.958   6.614   1.071
21041WAT     H163365   7.895   6.570   1.135
21041WAT     H263366   7.996   6.545   1.009
21042WAT      O63367   2.679   8.817   1.716
21042WAT     H163368   2.582   8.840   1.712
21042WAT     H263369   2.732   8.890   1.671
21043WAT      O63370   4.167   2.167   2.626
21043WAT     H163371   4.117   2.081   2.613
21043WAT     H263372   4.218   2.163   2.712
21044WAT      O63373   8.307   1.751   2.722
21044WAT     H163374   8.246   1.672   2.729
21044WAT     H263375   8.259   1.826   2.675
21045WAT      O63376   6.434   7.190   3.991
21045WAT     H163377   6.411   7.093   3.985
21045WAT     H263378   6.497   7.205   4.066
21046WAT      O63379   9.090   5.228   3.723
21046WAT     H163380   9.054   5.286   3.650
21046WAT     H263381   9.017   5.170   3.759
21047WAT      O63382   1.498   2.870   1.398
21047WAT     H163383   1.502   2.771   1.404
21047WAT     H263384   1.491   2.898   1.303
21048WAT      O63385   9.355   5.464   3.122
21048WAT     H163386   9.260   5.459   3.093
21048WAT     H263387   9.381   5.560   3.138
21049WAT      O63388   8.451   7.082   2.522
21049WAT     H163389   8.399   7.152   2.472
21049WAT     H263390   8.423   7.082   2.618
21050WAT      O63391   3.147   6.893   2.276
21050WAT     H163392   3.177   6.811   2.325
21050WAT     H263393   3.206   6.907   2.197
21051WAT      O63394   2.113   2.849   5.198
21051WAT     H163395   2.077   2.840   5.291
21051WAT     H263396   2.051   2.906   5.144
21052WAT      O63397   3.965   4.949   2.665
21052WAT     H163398   3.872   4.912   2.661
21052WAT     H263399   3.991   4.966   2.760
21053WAT      O63400   6.860   6.574   4.188
21053WAT     H163401   6.885   6.581   4.092
21053WAT     H263402   6.840   6.479   4.211
21054WAT      O63403   0.839   1.865   3.087
21054WAT     H163404   0.868   1.772   3.065
21054WAT     H263405   0.905   1.907   3.150
21055WAT      O63406   4.984   6.403   4.568
21055WAT     H163407   5.047   6.433   4.639
21055WAT     H263408   4.897   6.378   4.609
21056WAT      O63409   6.488   6.833   9.168
21056WAT     H163410   6.526   6.885   9.092
21056WAT     H263411   6.561   6.781   9.213
21057WAT      O63412   0.340   5.181   5.440
21057WAT     H163413   0.386   5.237   5.370
21057WAT     H263414   0.318   5.091   5.402
21058WAT      O63415   8.579   3.009   6.805
21058WAT     H163416   8.501   3.015   6.866
21058WAT     H263417   8.654   3.064   6.842
21059WAT      O63418   5.119   8.759   2.634
21059WAT     H163419   5.089   8.854   2.641
21059WAT     H263420   5.210   8.749   2.673
21060WAT      O63421   6.791   5.363   2.275
21060WAT     H163422   6.838   5.320   2.198
21060WAT     H263423   6.718   5.423   2.241
21061WAT      O63424   4.782   9.553   4.618
21061WAT     H163425   4.741   9.601   4.695
21061WAT     H263426   4.875   9.524   4.643
21062WAT      O63427   9.588   4.939   2.223
21062WAT     H163428   9.591   4.960   2.321
21062WAT     H263429   9.680   4.913   2.192
21063WAT      O63430   7.774   2.861   8.718
21063WAT     H163431   7.755   2.763   8.710
21063WAT     H263432   7.870   2.875   8.741
21064WAT      O63433   6.729   0.246   3.411
21064WAT     H163434   6.659   0.303   3.370
21064WAT     H263435   6.709   0.150   3.393
21065WAT      O63436   9.755   2.542   0.491
21065WAT     H163437   9.692   2.498   0.555
21065WAT     H263438   9.838   2.487   0.483
21066WAT      O63439   6.101   2.369   7.248
21066WAT     H163440   6.120   2.399   7.341
21066WAT     H263441   6.028   2.426   7.209
21067WAT      O63442   5.756   4.062   8.330
21067WAT     H163443   5.820   4.091   8.258
21067WAT     H263444   5.788   4.095   8.419
21068WAT      O63445   1.087   7.809   0.364
21068WAT     H163446   1.072   7.878   0.293
21068WAT     H263447   1.093   7.854   0.453
21069WAT      O63448   9.755   7.322   7.297
21069WAT     H163449   9.670   7.353   7.254
21069WAT     H263450   9.800   7.398   7.343
21070WAT      O63451   4.479   5.592   1.303
21070WAT     H163452   4.482   5.597   1.403
21070WAT     H263453   4.544   5.524   1.271
21071WAT      O63454   0.816   6.266   2.907
21071WAT     H163455   0.846   6.172   2.924
21071WAT     H263456   0.890   6.317   2.863
21072WAT      O63457   2.924   5.723   4.867
21072WAT     H163458   2.974   5.696   4.784
21072WAT     H263459   2.898   5.819   4.859
21073WAT      O63460   4.375   6.940   9.770
21073WAT     H163461   4.362   6.848   9.806
21073WAT     H263462   4.310   7.002   9.813
21074WAT      O63463   6.540   1.554   6.034
21074WAT     H163464   6.530   1.569   6.132
21074WAT     H263465   6.629   1.589   6.004
21075WAT      O63466   3.413   8.800   2.243
21075WAT     H163467   3.375   8.815   2.334
21075WAT     H263468   3.348   8.750   2.187
21076WAT      O63469   8.672   0.419   6.227
21076WAT     H163470   8.718   0.499   6.191
21076WAT     H263471   8.578   0.443   6.251
21077WAT      O63472   7.802   4.974   0.754
21077WAT     H163473   7.885   5.018   0.721
21077WAT     H263474   7.790   4.886   0.709
21078WAT      O63475   2.417   8.098   3.441
21078WAT     H163476   2.383   8.190   3.464
21078WAT     H263477   2.501   8.080   3.491
21079WAT      O63478   9.531   4.000   4.697
21079WAT     H163479   9.552   3.915   4.649
21079WAT     H263480   9.532   3.983   4.796
21080WAT      O63481   8.188   7.511   8.415
21080WAT     H163482   8.252   7.437   8.395
21080WAT     H263483   8.225   7.568   8.488
21081WAT      O63484   2.917   0.675   6.683
21081WAT     H163485   2.913   0.642   6.777
21081WAT     H263486   2.837   0.642   6.633
21082WAT      O63487   6.329   1.002   3.539
21082WAT     H163488   6.253   0.976   3.479
21082WAT     H263489   6.310   1.091   3.580
21083WAT      O63490   9.409   5.716   3.484
21083WAT     H163491   9.372   5.779   3.552
21083WAT     H263492   9.400   5.622   3.517
21084WAT      O63493   8.949   0.808   4.618
21084WAT     H163494   8.942   0.708   4.620
21084WAT     H263495   8.864   0.848   4.652
21085WAT      O63496   4.911   9.118   7.110
21085WAT     H163497   4.994   9.159   7.147
21085WAT     H263498   4.932   9.029   7.071
21086WAT      O63499   3.630   8.314   0.022
21086WAT     H163500   3.684   8.384  -0.025
21086WAT     H263501   3.539   8.350   0.041
21087WAT      O63502   1.487   8.897   3.528
21087WAT     H163503   1.452   8.981   3.487
21087WAT     H263504   1.457   8.892   3.624
21088WAT      O63505   0.655   3.996   6.504
21088WAT     H163506   0.638   4.071   6.441
21088WAT     H263507   0.567   3.963   6.540
21089WAT      O63508   1.260   3.615   5.531
21089WAT     H163509   1.318   3.548   5.485
21089WAT     H263510   1.237   3.688   5.467
21090WAT      O63511   2.981   0.405   6.325
21090WAT     H163512   2.931   0.468   6.266
21090WAT     H263513   2.919   0.369   6.395
21091WAT      O63514   4.685   0.804   8.530
21091WAT     H163515   4.603   0.793   8.473
21091WAT     H263516   4.759   0.749   8.493
21092WAT      O63517   9.809   1.873   1.607
21092WAT     H163518   9.829   1.963   1.645
21092WAT     H263519   9.847   1.803   1.668
21093WAT      O63520   4.723   3.840   9.683
21093WAT     H163521   4.703   3.743   9.673
21093WAT     H263522   4.783   3.870   9.609
21094WAT      O63523   7.778   4.621   4.762
21094WAT     H163524   7.688   4.580   4.752
21094WAT     H263525   7.770   4.708   4.811
21095WAT      O63526   4.928   9.342   1.729
21095WAT     H163527   4.939   9.380   1.637
21095WAT     H263528   5.018   9.319   1.766
21096WAT      O63529   7.004   3.101   2.745
21096WAT     H163530   6.956   3.142   2.668
21096WAT     H263531   6.944   3.100   2.825
21097WAT      O63532   5.600   2.640   6.844
21097WAT     H163533   5.674   2.683   6.896
21097WAT     H263534   5.579   2.551   6.883
21098WAT      O63535   5.811   7.369   3.330
21098WAT     H163536   5.877   7.345   3.402
21098WAT     H263537   5.855   7.358   3.240
21099WAT      O63538   2.906   4.539   3.379
21099WAT     H163539   2.905   4.514   3.282
21099WAT     H263540   2.829   4.601   3.398
21100WAT      O63541   6.840   5.114   2.452
21100WAT     H163542   6.780   5.189   2.423
21100WAT     H263543   6.928   5.122   2.405
21101WAT      O63544   9.399   8.237   9.474
21101WAT     H163545   9.395   8.155   9.532
21101WAT     H263546   9.316   8.291   9.488
21102WAT      O63547   1.773   1.158   0.285
21102WAT     H163548   1.839   1.233   0.294
21102WAT     H263549   1.783   1.116   0.194
21103WAT      O63550   6.790   5.814   3.700
21103WAT     H163551   6.690   5.821   3.692
21103WAT     H263552   6.823   5.740   3.642
21104WAT      O63553   7.210   3.140   2.521
21104WAT     H163554   7.161   3.127   2.607
21104WAT     H263555   7.154   3.194   2.459
21105WAT      O63556   8.663   1.017   3.545
21105WAT     H163557   8.656   0.939   3.606
21105WAT     H263558   8.744   1.071   3.568
21106WAT      O63559   1.796   5.280   9.038
21106WAT     H163560   1.711   5.250   8.995
21106WAT     H263561   1.779   5.360   9.094
21107WAT      O63562   1.689   3.676   8.516
21107WAT     H163563   1.768   3.622   8.547
21107WAT     H263564   1.720   3.768   8.490
21108WAT      O63565   7.407   0.898   9.227
21108WAT     H163566   7.369   0.963   9.293
21108WAT     H263567   7.474   0.944   9.170
21109WAT      O63568   0.277   7.281   0.467
21109WAT     H163569   0.267   7.333   0.382
21109WAT     H263570   0.275   7.183   0.447
21110WAT      O63571   8.076   1.111   1.300
21110WAT     H163572   8.124   1.192   1.334
21110WAT     H263573   8.078   1.039   1.369
21111WAT      O63574   6.315   3.445   4.192
21111WAT     H163575   6.341   3.452   4.095
21111WAT     H263576   6.249   3.371   4.203
21112WAT      O63577   7.361   3.450   4.888
21112WAT     H163578   7.362   3.352   4.866
21112WAT     H263579   7.282   3.493   4.843
21113WAT      O63580   5.489   0.294   2.949
21113WAT     H163581   5.520   0.201   2.970
21113WAT     H263582   5.421   0.290   2.875
21114WAT      O63583   7.442   5.211   8.518
21114WAT     H163584   7.506   5.286   8.535
21114WAT     H263585   7.376   5.207   8.593
21115WAT      O63586   8.819   2.869   9.792
21115WAT     H163587   8.779   2.915   9.872
21115WAT     H263588   8.747   2.852   9.725
21116WAT      O63589   7.931   6.483   5.104
21116WAT     H163590   7.963   6.478   5.009
21116WAT     H263591   7.972   6.561   5.149
21117WAT      O63592   1.513   1.981   2.046
21117WAT     H163593   1.447   2.041   2.093
21117WAT     H263594   1.477   1.888   2.043
21118WAT      O63595   7.191   1.376   0.240
21118WAT     H163596   7.198   1.475   0.246
21118WAT     H263597   7.109   1.345   0.288
21119WAT      O63598   5.409   0.704   1.154
21119WAT     H163599   5.465   0.784   1.174
21119WAT     H263600   5.410   0.641   1.231
21120WAT      O63601   2.978   2.612   0.504
21120WAT     H163602   2.982   2.512   0.495
21120WAT     H263603   3.055   2.644   0.561
21121WAT      O63604   2.426   2.263   1.543
21121WAT     H163605   2.392   2.207   1.618
21121WAT     H263606   2.477   2.206   1.479
21122WAT      O63607   8.161   1.110   4.096
21122WAT     H163608   8.075   1.104   4.147
21122WAT     H263609   8.154   1.182   4.026
21123WAT      O63610   3.824   6.285   1.390
21123WAT     H163611   3.851   6.377   1.361
21123WAT     H263612   3.886   6.218   1.349
21124WAT      O63613   0.750   7.979   7.933
21124WAT     H163614   0.820   8.050   7.925
21124WAT     H263615   0.708   7.985   8.024
21125WAT      O63616   9.735   2.074   0.838
21125WAT     H163617   9.832   2.075   0.865
21125WAT     H263618   9.711   1.982   0.806
21126WAT      O63619   5.975   4.409   4.067
21126WAT     H163620   5.901   4.421   4.132
21126WAT     H263621   6.019   4.320   4.083
21127WAT      O63622   8.909   7.104   2.708
21127WAT     H163623   8.923   7.006   2.696
21127WAT     H263624   8.821   7.130   2.669
21128WAT      O63625   2.050   3.863   1.466
21128WAT     H163626   1.953   3.853   1.486
21128WAT     H263627   2.073   3.811   1.383
21129WAT      O63628   1.309   3.778   2.273
21129WAT     H163629   1.384   3.731   2.318
21129WAT     H263630   1.319   3.769   2.173
21130WAT      O63631   7.823   8.853   8.757
21130WAT     H163632   7.848   8.904   8.675
21130WAT     H263633   7.780   8.915   8.823
21131WAT      O63634   9.552   2.498   5.640
21131WAT     H163635   9.490   2.435   5.593
21131WAT     H263636   9.500   2.549   5.710
21132WAT      O63637   0.142   5.212   2.560
21132WAT     H163638   0.136   5.114   2.540
21132WAT     H263639   0.051   5.251   2.564
21133WAT      O63640   6.933   9.340   2.701
21133WAT     H163641   6.964   9.435   2.707
21133WAT     H263642   6.992   9.291   2.637
21134WAT      O63643   9.259   8.148   7.990
21134WAT     H163644   9.289   8.243   7.999
21134WAT     H263645   9.293   8.110   7.904
21135WAT      O63646   5.440   2.811   6.344
21135WAT     H163647   5.470   2.876   6.274
21135WAT     H263648   5.420   2.860   6.429
21136WAT      O63649   7.164   8.034   3.506
21136WAT     H163650   7.233   7.973   3.466
21136WAT     H263651   7.118   8.084   3.434
21137WAT      O63652   2.674   0.221   3.844
21137WAT     H163653   2.629   0.134   3.865
21137WAT     H263654   2.643   0.290   3.909
21138WAT      O63655   7.920   8.091   0.994
21138WAT     H163656   7.989   8.119   1.060
21138WAT     H263657   7.965   8.060   0.910
21139WAT      O63658   6.383   2.376   0.271
21139WAT     H163659   6.285   2.370   0.288
21139WAT     H263660   6.415   2.468   0.295
21140WAT      O63661   7.254   4.490   9.008
21140WAT     H163662   7.336   4.539   9.038
21140WAT     H263663   7.183   4.556   8.984
21141WAT      O63664   3.790   8.917   0.434
21141WAT     H163665   3.798   9.014   0.457
21141WAT     H263666   3.865   8.866   0.476
21142WAT      O63667   0.929   5.774   1.438
21142WAT     H163668   0.836   5.737   1.435
21142WAT     H263669   0.994   5.702   1.414
21143WAT      O63670   4.323   1.733   7.886
21143WAT     H163671   4.267   1.764   7.962
21143WAT     H263672   4.397   1.799   7.870
21144WAT      O63673   5.364   1.145   9.571
21144WAT     H163674   5.436   1.152   9.640
21144WAT     H263675   5.352   1.233   9.526
21145WAT      O63676   8.577   8.295   9.497
21145WAT     H163677   8.618   8.382   9.469
21145WAT     H263678   8.529   8.254   9.420
21146WAT      O63679   8.739   2.585   8.198
21146WAT     H163680   8.685   2.557   8.278
21146WAT     H263681   8.833   2.603   8.227
21147WAT      O63682   7.631   1.930   8.639
21147WAT     H163683   7.585   1.855   8.687
21147WAT     H263684   7.612   1.923   8.541
21148WAT      O63685   7.951   9.463   2.052
21148WAT     H163686   7.908   9.552   2.034
21148WAT     H263687   8.043   9.478   2.090
21149WAT      O63688   5.992   3.690   0.735
21149WAT     H163689   6.018   3.770   0.682
21149WAT     H263690   5.982   3.611   0.675
21150WAT      O63691   3.388   6.388   8.955
21150WAT     H163692   3.415   6.330   9.032
21150WAT     H263693   3.424   6.480   8.968
21151WAT      O63694   3.843   6.079   2.994
21151WAT     H163695   3.871   5.997   2.945
21151WAT     H263696   3.747   6.098   2.975
21152WAT      O63697   3.334   7.495   0.234
21152WAT     H163698   3.271   7.507   0.158
21152WAT     H263699   3.428   7.512   0.203
21153WAT      O63700   8.311   1.525   2.538
21153WAT     H163701   8.276   1.488   2.452
21153WAT     H263702   8.356   1.613   2.520
21154WAT      O63703   5.236   1.043   2.372
21154WAT     H163704   5.172   1.096   2.427
21154WAT     H263705   5.188   1.001   2.295
21155WAT      O63706   7.473   8.112   2.968
21155WAT     H163707   7.559   8.163   2.957
21155WAT     H263708   7.487   8.017   2.941
21156WAT      O63709   6.224   0.568   6.175
21156WAT     H163710   6.316   0.596   6.201
21156WAT     H263711   6.178   0.525   6.252
21157WAT      O63712   9.224   1.629   3.287
21157WAT     H163713   9.203   1.538   3.252
21157WAT     H263714   9.160   1.651   3.361
21158WAT      O63715   3.616   7.005   6.504
21158WAT     H163716   3.705   6.973   6.536
21158WAT     H263717   3.610   7.104   6.515
21159WAT      O63718   4.207   6.677   9.595
21159WAT     H163719   4.260   6.683   9.679
21159WAT     H263720   4.255   6.724   9.521
21160WAT      O63721   6.020   7.929   8.436
21160WAT     H163722   6.117   7.950   8.429
21160WAT     H263723   5.968   7.991   8.378
21161WAT      O63724   2.966   8.539   8.327
21161WAT     H163725   2.902   8.479   8.281
21161WAT     H263726   3.031   8.576   8.260
21162WAT      O63727   4.494   5.712   7.363
21162WAT     H163728   4.494   5.804   7.324
21162WAT     H263729   4.582   5.668   7.342
21163WAT      O63730   9.853   8.475   3.426
21163WAT     H163731   9.807   8.551   3.471
21163WAT     H263732   9.787   8.421   3.375
21164WAT      O63733   3.932   9.094   9.202
21164WAT     H163734   3.847   9.121   9.247
21164WAT     H263735   3.996   9.058   9.270
21165WAT      O63736   9.611   5.798   5.835
21165WAT     H163737   9.678   5.806   5.761
21165WAT     H263738   9.616   5.879   5.893
21166WAT      O63739   8.600   8.297   9.096
21166WAT     H163740   8.548   8.246   9.165
21166WAT     H263741   8.650   8.372   9.141
21167WAT      O63742   8.907   7.445   1.938
21167WAT     H163743   8.993   7.421   1.893
21167WAT     H263744   8.907   7.408   2.031
21168WAT      O63745   1.281   3.360   8.823
21168WAT     H163746   1.195   3.357   8.773
21168WAT     H263747   1.267   3.330   8.917
21169WAT      O63748   4.004   7.004   6.396
21169WAT     H163749   4.003   7.094   6.442
21169WAT     H263750   4.095   6.963   6.407
21170WAT      O63751   2.688   1.541   7.962
21170WAT     H163752   2.785   1.561   7.974
21170WAT     H263753   2.677   1.465   7.898
21171WAT      O63754   6.321   8.680   7.788
21171WAT     H163755   6.348   8.754   7.850
21171WAT     H263756   6.335   8.592   7.833
21172WAT      O63757   3.149   8.156   1.391
21172WAT     H163758   3.236   8.108   1.380
21172WAT     H263759   3.160   8.231   1.456
21173WAT      O63760   9.230   1.193   5.277
21173WAT     H163761   9.130   1.197   5.277
21173WAT     H263762   9.261   1.140   5.198
21174WAT      O63763   0.431   4.398   8.400
21174WAT     H163764   0.347   4.451   8.412
21174WAT     H263765   0.433   4.358   8.309
21175WAT      O63766   4.032   8.297   0.450
21175WAT     H163767   4.071   8.315   0.360
21175WAT     H263768   4.029   8.199   0.466
21176WAT      O63769   7.170   6.075   5.491
21176WAT     H163770   7.265   6.056   5.512
21176WAT     H263771   7.161   6.104   5.395
21177WAT      O63772   0.795   1.513   9.030
21177WAT     H163773   0.800   1.612   9.027
21177WAT     H263774   0.822   1.481   9.121
21178WAT      O63775   7.648   1.975   3.900
21178WAT     H163776   7.684   2.066   3.921
21178WAT     H263777   7.712   1.927   3.840
21179WAT      O63778   7.798   1.719   0.647
21179WAT     H163779   7.759   1.647   0.590
21179WAT     H263780   7.851   1.781   0.590
21180WAT      O63781   0.804   4.680   8.493
21180WAT     H163782   0.724   4.634   8.532
21180WAT     H263783   0.881   4.616   8.488
21181WAT      O63784   9.325   7.714   5.727
21181WAT     H163785   9.307   7.621   5.761
21181WAT     H263786   9.389   7.709   5.650
21182WAT      O63787   1.414   3.617   4.885
21182WAT     H163788   1.432   3.666   4.799
21182WAT     H263789   1.372   3.680   4.951
21183WAT      O63790   1.365   6.410   8.654
21183WAT     H163791   1.385   6.404   8.752
21183WAT     H263792   1.388   6.323   8.610
21184WAT      O63793   0.137   8.398   5.475
21184WAT     H163794   0.124   8.495   5.492
21184WAT     H263795   0.051   8.358   5.442
21185WAT      O63796   0.401   5.744   2.599
21185WAT     H163797   0.386   5.835   2.560
21185WAT     H263798   0.317   5.712   2.642
21186WAT      O63799   1.961   8.661   8.052
21186WAT     H163800   1.883   8.719   8.027
21186WAT     H263801   1.946   8.622   8.143
21187WAT      O63802   1.847   5.532   7.570
21187WAT     H163803   1.762   5.503   7.615
21187WAT     H263804   1.848   5.496   7.477
21188WAT      O63805   6.794   2.226   7.950
21188WAT     H163806   6.710   2.251   7.902
21188WAT     H263807   6.770   2.175   8.032
21189WAT      O63808   1.658   8.960   9.023
21189WAT     H163809   1.723   8.965   8.947
21189WAT     H263810   1.705   8.930   9.106
21190WAT      O63811   5.037   7.362   5.724
21190WAT     H163812   5.054   7.315   5.638
21190WAT     H263813   4.949   7.409   5.720
21191WAT      O63814   8.506   9.689   2.392
21191WAT     H163815   8.457   9.656   2.472
21191WAT     H263816   8.569   9.618   2.360
21192WAT      O63817   4.400   1.846   7.603
21192WAT     H163818   4.417   1.874   7.698
21192WAT     H263819   4.302   1.834   7.589
21193WAT      O63820   9.127   6.802   1.768
21193WAT     H163821   9.177   6.875   1.721
21193WAT     H263822   9.060   6.762   1.705
21194WAT      O63823   3.993   4.967   7.022
21194WAT     H163824   3.994   4.873   7.058
21194WAT     H263825   3.971   5.031   7.096
21195WAT      O63826   3.972   1.336   9.635
21195WAT     H163827   3.968   1.312   9.538
21195WAT     H263828   3.880   1.357   9.668
21196WAT      O63829   4.269   6.911   4.628
21196WAT     H163830   4.216   6.856   4.693
21196WAT     H263831   4.329   6.973   4.678
21197WAT      O63832   7.457   1.393   4.304
21197WAT     H163833   7.488   1.381   4.210
21197WAT     H263834   7.477   1.486   4.334
21198WAT      O63835   6.324   4.204   5.860
21198WAT     H163836   6.297   4.210   5.956
21198WAT     H263837   6.244   4.179   5.805
21199WAT      O63838   6.305   4.615   0.382
21199WAT     H163839   6.290   4.645   0.287
21199WAT     H263840   6.363   4.534   0.383
21200WAT      O63841   3.369   7.758   5.881
21200WAT     H163842   3.352   7.734   5.977
21200WAT     H263843   3.291   7.808   5.845
21201WAT      O63844   3.571   2.682   7.642
21201WAT     H163845   3.552   2.771   7.600
21201WAT     H263846   3.498   2.658   7.705
21202WAT      O63847   9.332   2.815   9.765
21202WAT     H163848   9.276   2.763   9.701
21202WAT     H263849   9.350   2.758   9.846
21203WAT      O63850   4.482   7.368   0.221
21203WAT     H163851   4.531   7.289   0.259
21203WAT     H263852   4.459   7.431   0.294
21204WAT      O63853   0.123   5.530   0.624
21204WAT     H163854   0.171   5.448   0.590
21204WAT     H263855   0.187   5.607   0.625
21205WAT      O63856   6.680   9.084   3.220
21205WAT     H163857   6.739   9.157   3.252
21205WAT     H263858   6.584   9.111   3.230
21206WAT      O63859   6.178   7.385   8.133
21206WAT     H163860   6.199   7.476   8.169
21206WAT     H263861   6.165   7.391   8.034
21207WAT      O63862   6.194   8.234   2.058
21207WAT     H163863   6.283   8.188   2.058
21207WAT     H263864   6.147   8.217   1.971
21208WAT      O63865   1.048   3.824   1.163
21208WAT     H163866   1.082   3.795   1.074
21208WAT     H263867   1.114   3.798   1.234
21209WAT      O63868   7.813   2.390   9.218
21209WAT     H163869   7.841   2.309   9.166
21209WAT     H263870   7.775   2.362   9.306
21210WAT      O63871   5.416   1.916   7.502
21210WAT     H163872   5.390   1.957   7.414
21210WAT     H263873   5.456   1.826   7.486
21211WAT      O63874   5.851   8.840   8.869
21211WAT     H163875   5.843   8.928   8.823
21211WAT     H263876   5.850   8.767   8.801
21212WAT      O63877   1.784   9.667   6.985
21212WAT     H163878   1.712   9.620   6.934
21212WAT     H263879   1.873   9.630   6.959
21213WAT      O63880   6.547   5.299   3.995
21213WAT     H163881   6.581   5.357   4.068
21213WAT     H263882   6.469   5.245   4.028
21214WAT      O63883   0.362   1.060   2.540
21214WAT     H163884   0.285   1.011   2.581
21214WAT     H263885   0.408   1.001   2.474
21215WAT      O63886   3.355   9.222   7.434
21215WAT     H163887   3.438   9.185   7.393
21215WAT     H263888   3.355   9.322   7.424
21216WAT      O63889   7.856   5.207   5.145
21216WAT     H163890   7.913   5.252   5.076
21216WAT     H263891   7.870   5.251   5.234
21217WAT      O63892   2.722   0.695   3.813
21217WAT     H163893   2.789   0.629   3.847
21217WAT     H263894   2.654   0.648   3.756
21218WAT      O63895   6.675   6.774   6.570
21218WAT     H163896   6.692   6.676   6.578
21218WAT     H263897   6.579   6.790   6.547
21219WAT      O63898   7.552   7.317   8.120
21219WAT     H163899   7.548   7.248   8.192
21219WAT     H263900   7.588   7.403   8.157
21220WAT      O63901   9.485   4.380   8.575
21220WAT     H163902   9.479   4.314   8.650
21220WAT     H263903   9.504   4.332   8.490
21221WAT      O63904   2.665   3.658   8.132
21221WAT     H163905   2.569   3.685   8.143
21221WAT     H263906   2.719   3.696   8.207
21222WAT      O63907   9.352   5.383   5.577
21222WAT     H163908   9.279   5.314   5.579
21222WAT     H263909   9.315   5.469   5.542
21223WAT      O63910   1.759   8.248   0.112
21223WAT     H163911   1.834   8.219   0.052
21223WAT     H263912   1.731   8.171   0.169
21224WAT      O63913   8.866   2.230   0.445
21224WAT     H163914   8.925   2.296   0.492
21224WAT     H263915   8.921   2.177   0.381
21225WAT      O63916   1.693   6.898   0.665
21225WAT     H163917   1.620   6.919   0.730
21225WAT     H263918   1.672   6.812   0.618
21226WAT      O63919   1.002   4.062   1.267
21226WAT     H163920   1.016   4.060   1.366
21226WAT     H263921   1.019   3.970   1.230
21227WAT      O63922   1.256   7.304   0.923
21227WAT     H163923   1.346   7.339   0.896
21227WAT     H263924   1.211   7.261   0.844
21228WAT      O63925   2.761   5.352   9.289
21228WAT     H163926   2.851   5.381   9.258
21228WAT     H263927   2.722   5.424   9.348
21229WAT      O63928   2.329   8.972   5.407
21229WAT     H163929   2.248   8.918   5.383
21229WAT     H263930   2.345   9.042   5.338
21230WAT      O63931   0.847   5.030   0.462
21230WAT     H163932   0.826   4.949   0.407
21230WAT     H263933   0.895   5.002   0.546
21231WAT      O63934   7.142   5.046   9.679
21231WAT     H163935   7.187   5.104   9.610
21231WAT     H263936   7.088   5.103   9.741
21232WAT      O63937   8.941   7.406   8.596
21232WAT     H163938   8.914   7.379   8.504
21232WAT     H263939   8.903   7.496   8.617
21233WAT      O63940   0.216   2.407   9.352
21233WAT     H163941   0.131   2.452   9.378
21233WAT     H263942   0.217   2.314   9.388
21234WAT      O63943   0.857   1.130   3.851
21234WAT     H163944   0.902   1.041   3.842
21234WAT     H263945   0.874   1.184   3.769
21235WAT      O63946   7.946   1.953   8.344
21235WAT     H163947   7.961   1.940   8.442
21235WAT     H263948   7.999   1.885   8.293
21236WAT      O63949   0.566   8.267   6.432
21236WAT     H163950   0.515   8.298   6.512
21236WAT     H263951   0.589   8.170   6.443
21237WAT      O63952   3.110   6.292   4.589
21237WAT     H163953   3.118   6.287   4.490
21237WAT     H263954   3.195   6.326   4.629
21238WAT      O63955   7.041   8.066   2.023
21238WAT     H163956   7.112   8.007   2.061
21238WAT     H263957   6.954   8.016   2.022
21239WAT      O63958   0.997   2.787   4.347
21239WAT     H163959   1.082   2.822   4.388
21239WAT     H263960   0.923   2.853   4.363
21240WAT      O63961   3.051   7.126   3.419
21240WAT     H163962   3.000   7.203   3.381
21240WAT     H263963   3.072   7.145   3.516
21241WAT      O63964   1.735   8.746   2.645
21241WAT     H163965   1.774   8.665   2.689
21241WAT     H263966   1.805   8.790   2.588
21242WAT      O63967   6.014   8.369   6.634
21242WAT     H163968   6.105   8.350   6.671
21242WAT     H263969   5.966   8.283   6.617
21243WAT      O63970   9.807   0.003   5.063
21243WAT     H163971   9.756   0.057   4.995
21243WAT     H263972   9.863  -0.065   5.016
21244WAT      O63973   8.991   3.714   3.202
21244WAT     H163974   9.073   3.657   3.214
21244WAT     H263975   8.939   3.715   3.287
21245WAT      O63976   0.528   3.701   7.547
21245WAT     H163977   0.462   3.685   7.474
21245WAT     H263978   0.481   3.706   7.635
21246WAT      O63979   7.732   3.167   5.681
21246WAT     H163980   7.756   3.228   5.756
21246WAT     H263981   7.667   3.213   5.620
21247WAT      O63982   9.866   6.897   4.460
21247WAT     H163983   9.942   6.961   4.446
21247WAT     H263984   9.888   6.808   4.421
21248WAT      O63985   8.224   0.700   0.155
21248WAT     H163986   8.324   0.705   0.158
21248WAT     H263987   8.197   0.627   0.092
21249WAT      O63988   6.242   1.137   4.934
21249WAT     H163989   6.297   1.173   5.009
21249WAT     H263990   6.271   1.178   4.848
21250WAT      O63991   6.162   6.142   5.058
21250WAT     H163992   6.175   6.198   4.976
21250WAT     H263993   6.222   6.174   5.131
21251WAT      O63994   7.821   5.436   0.996
21251WAT     H163995   7.817   5.508   1.065
21251WAT     H263996   7.728   5.418   0.962
21252WAT      O63997   9.620   5.801   0.197
21252WAT     H163998   9.565   5.722   0.224
21252WAT     H263999   9.624   5.866   0.273
21253WAT      O64000   9.714   9.386   6.037
21253WAT     H164001   9.748   9.293   6.019
21253WAT     H264002   9.647   9.383   6.111
21254WAT      O64003   4.431   7.639   6.205
21254WAT     H164004   4.530   7.630   6.208
21254WAT     H264005   4.389   7.550   6.222
21255WAT      O64006   3.631   9.262   1.017
21255WAT     H164007   3.557   9.220   0.963
21255WAT     H264008   3.593   9.298   1.102
21256WAT      O64009   4.251   3.895   8.352
21256WAT     H164010   4.257   3.979   8.407
21256WAT     H264011   4.302   3.908   8.266
21257WAT      O64012   1.889   7.207   4.860
21257WAT     H164013   1.941   7.143   4.803
21257WAT     H264014   1.921   7.200   4.954
21258WAT      O64015   0.900   8.286   5.992
21258WAT     H164016   0.965   8.260   6.064
21258WAT     H264017   0.844   8.362   6.024
21259WAT      O64018   1.731   4.656   9.260
21259WAT     H164019   1.821   4.626   9.227
21259WAT     H264020   1.662   4.632   9.192
21260WAT      O64021   8.374   0.894   7.538
21260WAT     H164022   8.367   0.796   7.517
21260WAT     H264023   8.458   0.912   7.588
21261WAT      O64024   9.392   8.147   8.395
21261WAT     H164025   9.417   8.137   8.299
21261WAT     H264026   9.328   8.224   8.405
21262WAT      O64027   4.533   9.639   2.359
21262WAT     H164028   4.456   9.586   2.323
21262WAT     H264029   4.557   9.712   2.295
21263WAT      O64030   7.202   7.889   2.845
21263WAT     H164031   7.174   7.936   2.929
21263WAT     H264032   7.227   7.956   2.776
21264WAT      O64033   7.582   3.285   5.166
21264WAT     H164034   7.616   3.271   5.073
21264WAT     H264035   7.511   3.355   5.164
21265WAT      O64036   1.302   8.666   0.904
21265WAT     H164037   1.373   8.599   0.926
21265WAT     H264038   1.250   8.688   0.987
21266WAT      O64039   9.476   7.760   3.701
21266WAT     H164040   9.407   7.832   3.704
21266WAT     H264041   9.432   7.671   3.686
21267WAT      O64042   4.918   6.425   0.205
21267WAT     H164043   4.884   6.434   0.111
21267WAT     H264044   4.907   6.331   0.235
21268WAT      O64045   6.507   4.840   4.272
21268WAT     H164046   6.543   4.753   4.237
21268WAT     H264047   6.496   4.904   4.195
21269WAT      O64048   3.110   4.637   6.947
21269WAT     H164049   3.128   4.558   7.005
21269WAT     H264050   3.180   4.642   6.875
21270WAT      O64051   7.091   4.995   6.848
21270WAT     H164052   7.139   5.079   6.870
21270WAT     H264053   7.062   4.997   6.752
21271WAT      O64054   0.708   7.351   7.048
21271WAT     H164055   0.671   7.290   6.977
21271WAT     H264056   0.805   7.369   7.030
21272WAT      O64057   9.603   1.808   4.041
21272WAT     H164058   9.616   1.884   4.105
21272WAT     H264059   9.564   1.843   3.955
21273WAT      O64060   6.240   5.650   5.843
21273WAT     H164061   6.184   5.584   5.792
21273WAT     H264062   6.205   5.657   5.937
21274WAT      O64063   0.031   1.304   8.034
21274WAT     H164064   0.023   1.327   8.131
21274WAT     H264065   0.094   1.227   8.023
21275WAT      O64066   2.094   2.905   4.634
21275WAT     H164067   2.114   2.809   4.653
21275WAT     H264068   2.124   2.961   4.711
21276WAT      O64069   2.725   5.718   1.441
21276WAT     H164070   2.743   5.623   1.469
21276WAT     H264071   2.808   5.772   1.452
21277WAT      O64072   0.816   8.011   5.168
21277WAT     H164073   0.726   7.994   5.126
21277WAT     H264074   0.875   8.056   5.102
21278WAT      O64075   8.930   5.195   5.976
21278WAT     H164076   8.939   5.193   6.076
21278WAT     H264077   8.848   5.145   5.949
21279WAT      O64078   3.415   5.429   5.330
21279WAT     H164079   3.415   5.335   5.365
21279WAT     H264080   3.386   5.428   5.234
21280WAT      O64081   3.290   6.071   0.585
21280WAT     H164082   3.247   6.135   0.521
21280WAT     H264083   3.389   6.081   0.580
21281WAT      O64084   2.725   0.620   1.453
21281WAT     H164085   2.736   0.687   1.527
21281WAT     H264086   2.785   0.542   1.470
21282WAT      O64087   6.896   4.774   3.980
21282WAT     H164088   6.910   4.858   4.032
21282WAT     H264089   6.976   4.756   3.923
21283WAT      O64090   7.006   0.626   9.761
21283WAT     H164091   7.080   0.560   9.748
21283WAT     H264092   7.029   0.711   9.715
21284WAT      O64093   4.425   6.154   8.417
21284WAT     H164094   4.399   6.172   8.323
21284WAT     H264095   4.523   6.134   8.421
21285WAT      O64096   1.288   4.614   8.349
21285WAT     H164097   1.222   4.648   8.282
21285WAT     H264098   1.336   4.534   8.311
21286WAT      O64099   8.861   6.211   2.395
21286WAT     H164100   8.852   6.298   2.444
21286WAT     H264101   8.803   6.142   2.439
21287WAT      O64102   5.695   7.374   4.938
21287WAT     H164103   5.768   7.306   4.944
21287WAT     H264104   5.734   7.465   4.922
21288WAT      O64105   9.498   7.524   1.115
21288WAT     H164106   9.403   7.530   1.145
21288WAT     H264107   9.556   7.497   1.192
21289WAT      O64108   9.225   8.299   5.590
21289WAT     H164109   9.182   8.382   5.554
21289WAT     H264110   9.197   8.284   5.685
21290WAT      O64111   5.797   2.276   8.440
21290WAT     H164112   5.837   2.257   8.530
21290WAT     H264113   5.781   2.190   8.392
21291WAT      O64114   7.964   7.657   8.204
21291WAT     H164115   7.914   7.571   8.196
21291WAT     H264116   7.949   7.696   8.295
21292WAT      O64117   4.471   9.370   5.700
21292WAT     H164118   4.514   9.406   5.617
21292WAT     H264119   4.410   9.295   5.676
21293WAT      O64120   7.202   4.158   5.072
21293WAT     H164121   7.150   4.204   5.000
21293WAT     H264122   7.174   4.062   5.077
21294WAT      O64123   2.899   5.205   6.606
21294WAT     H164124   2.884   5.159   6.694
21294WAT     H264125   2.818   5.257   6.582
21295WAT      O64126   1.845   8.697   3.813
21295WAT     H164127   1.854   8.633   3.736
21295WAT     H264128   1.853   8.791   3.779
21296WAT      O64129   6.469   7.344   6.697
21296WAT     H164130   6.446   7.247   6.696
21296WAT     H264131   6.385   7.398   6.697
21297WAT      O64132   4.232   8.008   4.184
21297WAT     H164133   4.294   7.988   4.260
21297WAT     H264134   4.249   7.944   4.109
21298WAT      O64135   4.968   1.080   8.108
21298WAT     H164136   4.934   1.026   8.185
21298WAT     H264137   5.009   1.018   8.040
21299WAT      O64138   5.893   5.999   0.085
21299WAT     H164139   5.957   5.932   0.048
21299WAT     H264140   5.940   6.054   0.155
21300WAT      O64141   4.132   3.263   3.833
21300WAT     H164142   4.053   3.213   3.871
21300WAT     H264143   4.124   3.268   3.734
21301WAT      O64144   9.104   7.449   2.773
21301WAT     H164145   9.106   7.363   2.823
21301WAT     H264146   9.149   7.438   2.685
21302WAT      O64147   0.933   0.453   0.094
21302WAT     H164148   1.017   0.400   0.095
21302WAT     H264149   0.943   0.533   0.154
21303WAT      O64150   0.201   4.817   8.175
21303WAT     H164151   0.241   4.763   8.249
21303WAT     H264152   0.251   4.903   8.165
21304WAT      O64153   0.153   8.447   4.379
21304WAT     H164154   0.087   8.402   4.440
21304WAT     H264155   0.197   8.378   4.321
21305WAT      O64156   2.102   7.325   7.861
21305WAT     H164157   2.088   7.313   7.959
21305WAT     H264158   2.189   7.285   7.834
21306WAT      O64159   3.007   7.744   8.885
21306WAT     H164160   3.061   7.745   8.969
21306WAT     H264161   2.914   7.714   8.905
21307WAT      O64162   7.932   7.238   7.506
21307WAT     H164163   7.836   7.224   7.531
21307WAT     H264164   7.937   7.274   7.413
21308WAT      O64165   0.537   1.213   9.074
21308WAT     H164166   0.470   1.202   9.148
21308WAT     H264167   0.493   1.255   8.995
21309WAT      O64168   4.200   1.971   9.329
21309WAT     H164169   4.179   1.875   9.343
21309WAT     H264170   4.119   2.027   9.350
21310WAT      O64171   5.404   1.856   0.352
21310WAT     H164172   5.368   1.949   0.360
21310WAT     H264173   5.499   1.855   0.383
21311WAT      O64174   4.737   9.201   2.707
21311WAT     H164175   4.680   9.280   2.682
21311WAT     H264176   4.727   9.130   2.638
21312WAT      O64177   4.199   4.268   5.632
21312WAT     H164178   4.178   4.176   5.599
21312WAT     H264179   4.126   4.299   5.693
21313WAT      O64180   6.648   7.112   3.166
21313WAT     H164181   6.636   7.048   3.091
21313WAT     H264182   6.731   7.089   3.217
21314WAT      O64183   9.124   6.361   4.880
21314WAT     H164184   9.146   6.371   4.977
21314WAT     H264185   9.208   6.348   4.828
21315WAT      O64186   8.910   0.465   2.378
21315WAT     H164187   8.821   0.492   2.413
21315WAT     H264188   8.900   0.381   2.324
21316WAT      O64189   1.914   4.397   7.382
21316WAT     H164190   1.879   4.311   7.345
21316WAT     H264191   1.989   4.431   7.325
21317WAT      O64192   9.700   1.031   7.011
21317WAT     H164193   9.727   1.121   7.045
21317WAT     H264194   9.780   0.983   6.976
21318WAT      O64195   4.868   3.499   6.161
21318WAT     H164196   4.814   3.434   6.215
21318WAT     H264197   4.951   3.453   6.128
21319WAT      O64198   9.655   5.925   7.840
21319WAT     H164199   9.628   5.921   7.936
21319WAT     H264200   9.595   5.865   7.786
21320WAT      O64201   4.818   9.300   9.540
21320WAT     H164202   4.874   9.345   9.610
21320WAT     H264203   4.776   9.370   9.482
21321WAT      O64204   3.773   4.996   5.587
21321WAT     H164205   3.723   5.059   5.528
21321WAT     H264206   3.852   5.043   5.627
21322WAT      O64207   0.023   9.763   2.790
21322WAT     H164208   0.072   9.743   2.705
21322WAT     H264209  -0.066   9.717   2.789
21323WAT      O64210   4.430   8.833   0.364
21323WAT     H164211   4.351   8.862   0.418
21323WAT     H264212   4.430   8.733   0.358
21324WAT      O64213   1.861   6.738   1.735
21324WAT     H164214   1.934   6.804   1.753
21324WAT     H264215   1.896   6.645   1.747
21325WAT      O64216   2.429   5.856   9.093
21325WAT     H164217   2.354   5.816   9.144
21325WAT     H264218   2.428   5.955   9.102
21326WAT      O64219   4.307   3.314   9.467
21326WAT     H164220   4.264   3.270   9.389
21326WAT     H264221   4.360   3.247   9.519
21327WAT      O64222   0.074   7.865   6.792
21327WAT     H164223   0.156   7.912   6.821
21327WAT     H264224   0.087   7.766   6.801
21328WAT      O64225   6.311   0.395   8.870
21328WAT     H164226   6.265   0.328   8.928
21328WAT     H264227   6.325   0.358   8.779
21329WAT      O64228   7.563   8.037   0.888
21329WAT     H164229   7.477   7.999   0.855
21329WAT     H264230   7.607   7.973   0.951
21330WAT      O64231   1.712   4.294   4.434
21330WAT     H164232   1.798   4.242   4.435
21330WAT     H264233   1.697   4.335   4.524
21331WAT      O64234   8.248   8.791   1.087
21331WAT     H164235   8.298   8.876   1.069
21331WAT     H264236   8.223   8.786   1.184
21332WAT      O64237   4.611   1.220   4.859
21332WAT     H164238   4.528   1.256   4.816
21332WAT     H264239   4.679   1.294   4.865
21333WAT      O64240   9.281   6.633   9.153
21333WAT     H164241   9.215   6.566   9.188
21333WAT     H264242   9.301   6.700   9.224
21334WAT      O64243   3.555   1.348   6.926
21334WAT     H164244   3.485   1.278   6.940
21334WAT     H264245   3.632   1.309   6.875
21335WAT      O64246   6.970   0.776   7.789
21335WAT     H164247   6.902   0.828   7.738
21335WAT     H264248   7.011   0.835   7.859
21336WAT      O64249   2.298   3.881   6.973
21336WAT     H164250   2.207   3.909   6.943
21336WAT     H264251   2.363   3.893   6.898
21337WAT      O64252   3.027   4.905   6.551
21337WAT     H164253   2.950   4.938   6.605
21337WAT     H264254   3.006   4.913   6.454
21338WAT      O64255   2.840   2.995   7.637
21338WAT     H164256   2.803   2.918   7.689
21338WAT     H264257   2.873   3.065   7.701
21339WAT      O64258   9.034   4.410   0.256
21339WAT     H164259   9.091   4.382   0.333
21339WAT     H264260   8.942   4.430   0.289
21340WAT      O64261   6.669   1.697   1.905
21340WAT     H164262   6.698   1.630   1.837
21340WAT     H264263   6.701   1.670   1.996
21341WAT      O64264   1.339   0.168   6.337
21341WAT     H164265   1.262   0.148   6.276
21341WAT     H264266   1.352   0.267   6.341
21342WAT      O64267   5.065   7.617   4.359
21342WAT     H164268   5.111   7.603   4.446
21342WAT     H264269   5.117   7.571   4.286
21343WAT      O64270   6.115   0.161   7.288
21343WAT     H164271   6.090   0.247   7.332
21343WAT     H264272   6.150   0.097   7.356
21344WAT      O64273   3.195   5.536   6.417
21344WAT     H164274   3.272   5.586   6.455
21344WAT     H264275   3.168   5.464   6.481
21345WAT      O64276   5.398   9.008   5.792
21345WAT     H164277   5.418   8.923   5.842
21345WAT     H264278   5.424   8.996   5.696
21346WAT      O64279   3.342   3.077   0.758
21346WAT     H164280   3.436   3.087   0.727
21346WAT     H264281   3.333   2.993   0.812
21347WAT      O64282   4.020   5.518   5.491
21347WAT     H164283   4.067   5.434   5.465
21347WAT     H264284   4.017   5.580   5.413
21348WAT      O64285   6.924   7.561   6.278
21348WAT     H164286   6.916   7.546   6.376
21348WAT     H264287   6.967   7.650   6.261
21349WAT      O64288   6.221   4.502   7.565
21349WAT     H164289   6.182   4.410   7.574
21349WAT     H264290   6.153   4.563   7.523
21350WAT      O64291   6.258   0.037   0.597
21350WAT     H164292   6.187   0.072   0.657
21350WAT     H264293   6.329   0.107   0.584
21351WAT      O64294   8.067   7.737   3.835
21351WAT     H164295   8.129   7.681   3.890
21351WAT     H264296   8.029   7.682   3.761
21352WAT      O64297   8.907   7.600   3.781
21352WAT     H164298   8.827   7.628   3.833
21352WAT     H264299   8.952   7.524   3.827
21353WAT      O64300   4.248   6.714   3.975
21353WAT     H164301   4.328   6.693   4.030
21353WAT     H264302   4.193   6.632   3.962
21354WAT      O64303   4.719   2.244   7.162
21354WAT     H164304   4.751   2.155   7.131
21354WAT     H264305   4.648   2.278   7.100
21355WAT      O64306   7.736   8.024   0.223
21355WAT     H164307   7.834   8.011   0.234
21355WAT     H264308   7.716   8.122   0.217
21356WAT      O64309   8.609   0.213   3.095
21356WAT     H164310   8.561   0.263   3.167
21356WAT     H264311   8.684   0.160   3.136
21357WAT      O64312   0.989   8.602   3.718
21357WAT     H164313   1.085   8.579   3.730
21357WAT     H264314   0.936   8.562   3.793
21358WAT      O64315   6.730   1.533   1.670
21358WAT     H164316   6.828   1.533   1.650
21358WAT     H264317   6.686   1.462   1.615
21359WAT      O64318   4.534   6.733   3.360
21359WAT     H164319   4.601   6.664   3.335
21359WAT     H264320   4.444   6.691   3.370
21360WAT      O64321   6.247   5.532   9.290
21360WAT     H164322   6.221   5.469   9.363
21360WAT     H264323   6.329   5.583   9.317
21361WAT      O64324   7.000   2.041   9.296
21361WAT     H164325   7.043   1.990   9.222
21361WAT     H264326   7.001   2.139   9.274
21362WAT      O64327   6.020   2.244   5.332
21362WAT     H164328   5.992   2.188   5.254
21362WAT     H264329   5.947   2.247   5.399
21363WAT      O64330   9.136   9.135   6.545
21363WAT     H164331   9.088   9.222   6.533
21363WAT     H264332   9.230   9.153   6.574
21364WAT      O64333   4.919   6.093   9.663
21364WAT     H164334   4.824   6.105   9.633
21364WAT     H264335   4.972   6.052   9.589
21365WAT      O64336   0.067   4.380   9.284
21365WAT     H164337   0.159   4.350   9.260
21365WAT     H264338  -0.000   4.320   9.240
21366WAT      O64339   6.824   7.238   0.150
21366WAT     H164340   6.752   7.245   0.219
21366WAT     H264341   6.808   7.306   0.078
21367WAT      O64342   8.834   2.631   1.168
21367WAT     H164343   8.881   2.719   1.165
21367WAT     H264344   8.738   2.645   1.193
21368WAT      O64345   2.878   1.114   5.853
21368WAT     H164346   2.961   1.087   5.902
21368WAT     H264347   2.837   1.034   5.809
21369WAT      O64348   2.662   9.716   0.118
21369WAT     H164349   2.621   9.660   0.191
21369WAT     H264350   2.750   9.677   0.092
21370WAT      O64351   1.598   2.004   6.736
21370WAT     H164352   1.661   2.073   6.772
21370WAT     H264353   1.643   1.915   6.733
21371WAT      O64354   4.638   0.376   2.038
21371WAT     H164355   4.689   0.313   1.978
21371WAT     H264356   4.643   0.342   2.132
21372WAT      O64357   9.767   9.273   4.363
21372WAT     H164358   9.755   9.358   4.414
21372WAT     H264359   9.817   9.292   4.278
21373WAT      O64360   3.385   5.904   3.603
21373WAT     H164361   3.308   5.958   3.571
21373WAT     H264362   3.468   5.932   3.554
21374WAT      O64363   5.886   2.619   3.050
21374WAT     H164364   5.907   2.717   3.039
21374WAT     H264365   5.968   2.571   3.080
21375WAT      O64366   9.636   3.385   3.402
21375WAT     H164367   9.634   3.285   3.398
21375WAT     H264368   9.724   3.415   3.438
21376WAT      O64369   1.029   4.863   3.491
21376WAT     H164370   1.058   4.802   3.565
21376WAT     H264371   0.956   4.923   3.524
21377WAT      O64372   5.378   0.902   5.153
21377WAT     H164373   5.456   0.908   5.215
21377WAT     H264374   5.319   0.826   5.180
21378WAT      O64375   6.297   9.358   6.170
21378WAT     H164376   6.211   9.377   6.122
21378WAT     H264377   6.293   9.267   6.211
21379WAT      O64378   6.953   2.470   5.475
21379WAT     H164379   6.884   2.541   5.489
21379WAT     H264380   6.938   2.426   5.386
21380WAT      O64381   6.472   4.161   8.196
21380WAT     H164382   6.399   4.202   8.251
21380WAT     H264383   6.475   4.205   8.107
21381WAT      O64384   7.451   7.111   6.572
21381WAT     H164385   7.364   7.114   6.525
21381WAT     H264386   7.520   7.068   6.513
21382WAT      O64387   7.120   1.195   8.638
21382WAT     H164388   7.020   1.197   8.634
21382WAT     H264389   7.156   1.279   8.597
21383WAT      O64390   0.501   7.902   0.501
21383WAT     H164391   0.451   7.820   0.532
21383WAT     H264392   0.464   7.933   0.414
21384WAT      O64393   3.161   5.340   6.604
21384WAT     H164394   3.075   5.290   6.614
21384WAT     H264395   3.206   5.348   6.693
21385WAT      O64396   5.252   3.061   0.952
21385WAT     H164397   5.168   3.093   0.909
21385WAT     H264398   5.239   2.967   0.983
21386WAT      O64399   4.937   2.113   2.808
21386WAT     H164400   4.849   2.157   2.826
21386WAT     H264401   4.977   2.082   2.895
21387WAT      O64402   6.609   6.131   5.914
21387WAT     H164403   6.606   6.193   5.836
21387WAT     H264404   6.704   6.124   5.947
21388WAT      O64405   5.419   3.450   0.880
21388WAT     H164406   5.437   3.443   0.782
21388WAT     H264407   5.475   3.524   0.919
21389WAT      O64408   3.832   4.928   4.847
21389WAT     H164409   3.920   4.917   4.800
21389WAT     H264410   3.758   4.927   4.780
21390WAT      O64411   2.502   1.487   3.185
21390WAT     H164412   2.519   1.581   3.156
21390WAT     H264413   2.432   1.487   3.257
21391WAT      O64414   7.245   7.633   3.520
21391WAT     H164415   7.252   7.534   3.510
21391WAT     H264416   7.149   7.660   3.518
21392WAT      O64417   2.664   2.309   0.671
21392WAT     H164418   2.622   2.394   0.702
21392WAT     H264419   2.761   2.308   0.696
21393WAT      O64420   5.851   3.719   3.576
21393WAT     H164421   5.783   3.647   3.590
21393WAT     H264422   5.842   3.754   3.482
21394WAT      O64423   7.378   0.406   8.208
21394WAT     H164424   7.325   0.467   8.149
21394WAT     H264425   7.476   0.418   8.189
21395WAT      O64426   8.008   6.310   7.074
21395WAT     H164427   7.954   6.318   7.158
21395WAT     H264428   8.006   6.397   7.025
21396WAT      O64429   9.547   5.173   5.911
21396WAT     H164430   9.636   5.138   5.941
21396WAT     H264431   9.496   5.207   5.990
21397WAT      O64432   8.776   8.755   3.740
21397WAT     H164433   8.805   8.844   3.705
21397WAT     H264434   8.825   8.735   3.825
21398WAT      O64435   7.450   7.514   3.321
21398WAT     H164436   7.457   7.596   3.264
21398WAT     H264437   7.354   7.488   3.331
21399WAT      O64438   7.690   7.488   1.305
21399WAT     H164439   7.684   7.511   1.208
21399WAT     H264440   7.600   7.465   1.340
21400WAT      O64441   3.744   8.107   3.073
21400WAT     H164442   3.838   8.087   3.048
21400WAT     H264443   3.732   8.098   3.172
21401WAT      O64444   6.203   7.304   3.858
21401WAT     H164445   6.283   7.265   3.905
21401WAT     H264446   6.229   7.329   3.764
21402WAT      O64447   2.128   2.616   3.378
21402WAT     H164448   2.207   2.610   3.316
21402WAT     H264449   2.044   2.626   3.324
21403WAT      O64450   6.474   8.409   2.829
21403WAT     H164451   6.426   8.495   2.813
21403WAT     H264452   6.567   8.428   2.862
21404WAT      O64453   5.652   3.166   1.312
21404WAT     H164454   5.585   3.241   1.310
21404WAT     H264455   5.725   3.185   1.247
21405WAT      O64456   6.856   3.470   1.148
21405WAT     H164457   6.939   3.488   1.202
21405WAT     H264458   6.878   3.411   1.071
21406WAT      O64459   7.862   1.632   8.763
21406WAT     H164460   7.897   1.720   8.732
21406WAT     H264461   7.930   1.587   8.820
21407WAT      O64462   5.127   0.566   8.028
21407WAT     H164463   5.051   0.501   8.040
21407WAT     H264464   5.207   0.534   8.079
21408WAT      O64465   3.115   0.738   3.273
21408WAT     H164466   3.080   0.809   3.212
21408WAT     H264467   3.102   0.648   3.232
21409WAT      O64468   7.901   1.906   4.381
21409WAT     H164469   7.851   1.974   4.327
21409WAT     H264470   7.835   1.852   4.435
21410WAT      O64471   6.045   4.127   5.808
21410WAT     H164472   5.993   4.043   5.819
21410WAT     H264473   6.026   4.188   5.885
21411WAT      O64474   0.624   7.990   6.286
21411WAT     H164475   0.724   7.990   6.288
21411WAT     H264476   0.592   8.026   6.199
21412WAT      O64477   9.841   2.637   1.824
21412WAT     H164478   9.918   2.700   1.818
21412WAT     H264479   9.794   2.649   1.911
21413WAT      O64480   7.947   8.905   6.295
21413WAT     H164481   7.992   8.863   6.374
21413WAT     H264482   7.933   9.002   6.311
21414WAT      O64483   5.667   2.525   8.440
21414WAT     H164484   5.687   2.430   8.464
21414WAT     H264485   5.726   2.586   8.493
21415WAT      O64486   5.362   1.567   5.523
21415WAT     H164487   5.286   1.505   5.505
21415WAT     H264488   5.384   1.618   5.440
21416WAT      O64489   3.178   8.305   5.247
21416WAT     H164490   3.146   8.244   5.320
21416WAT     H264491   3.101   8.355   5.209
21417WAT      O64492   4.800   4.241   5.257
21417WAT     H164493   4.776   4.149   5.226
21417WAT     H264494   4.842   4.292   5.182
21418WAT      O64495   7.538   2.842   1.878
21418WAT     H164496   7.468   2.896   1.832
21418WAT     H264497   7.495   2.774   1.937
21419WAT      O64498   9.539   4.736   7.396
21419WAT     H164499   9.446   4.769   7.412
21419WAT     H264500   9.539   4.636   7.397
21420WAT      O64501   2.943   8.474   5.269
21420WAT     H164502   2.954   8.571   5.290
21420WAT     H264503   2.850   8.458   5.236
21421WAT      O64504   5.317   6.181   1.115
21421WAT     H164505   5.357   6.155   1.203
21421WAT     H264506   5.290   6.099   1.065
21422WAT      O64507   9.282   6.696   4.618
21422WAT     H164508   9.207   6.713   4.555
21422WAT     H264509   9.257   6.729   4.709
21423WAT      O64510   0.001   0.587   0.856
21423WAT     H164511   0.017   0.685   0.869
21423WAT     H264512   0.085   0.537   0.872
21424WAT      O64513   6.645   1.742   5.084
21424WAT     H164514   6.675   1.735   5.180
21424WAT     H264515   6.621   1.651   5.050
21425WAT      O64516   5.103   8.870   5.607
21425WAT     H164517   5.152   8.935   5.666
21425WAT     H264518   5.007   8.865   5.637
21426WAT      O64519   8.199   9.646   8.445
21426WAT     H164520   8.263   9.711   8.404
21426WAT     H264521   8.244   9.598   8.520
21427WAT      O64522   9.545   6.911   6.222
21427WAT     H164523   9.498   6.833   6.263
21427WAT     H264524   9.477   6.977   6.189
21428WAT      O64525   3.372   1.265   1.921
21428WAT     H164526   3.370   1.365   1.911
21428WAT     H264527   3.328   1.223   1.842
21429WAT      O64528   7.332   5.914   2.940
21429WAT     H164529   7.420   5.867   2.930
21429WAT     H264530   7.293   5.893   3.030
21430WAT      O64531   1.710   5.584   2.574
21430WAT     H164532   1.619   5.616   2.601
21430WAT     H264533   1.711   5.484   2.572
21431WAT      O64534   3.380   3.542   8.771
21431WAT     H164535   3.287   3.533   8.808
21431WAT     H264536   3.386   3.494   8.684
21432WAT      O64537   7.759   1.890   0.850
21432WAT     H164538   7.757   1.816   0.782
21432WAT     H264539   7.791   1.974   0.806
21433WAT      O64540   7.593   5.347   4.347
21433WAT     H164541   7.683   5.381   4.374
21433WAT     H264542   7.541   5.420   4.304
21434WAT      O64543   2.903   8.021   5.992
21434WAT     H164544   2.925   7.925   5.971
21434WAT     H264545   2.855   8.025   6.080
21435WAT      O64546   5.506   0.761   9.573
21435WAT     H164547   5.498   0.709   9.658
21435WAT     H264548   5.474   0.855   9.589
21436WAT      O64549   7.206   2.263   1.330
21436WAT     H164550   7.230   2.171   1.298
21436WAT     H264551   7.109   2.280   1.314
21437WAT      O64552   7.769   8.000   7.866
21437WAT     H164553   7.675   8.019   7.892
21437WAT     H264554   7.772   7.916   7.811
21438WAT      O64555   0.769   0.505   0.816
21438WAT     H164556   0.768   0.463   0.725
21438WAT     H264557   0.682   0.552   0.833
21439WAT      O64558   2.000   5.183   4.075
21439WAT     H164559   1.913   5.139   4.095
21439WAT     H264560   1.990   5.245   3.998
21440WAT      O64561   2.884   4.961   5.898
21440WAT     H164562   2.858   5.036   5.838
21440WAT     H264563   2.919   4.997   5.984
21441WAT      O64564   3.424   1.929   2.729
21441WAT     H164565   3.519   1.896   2.731
21441WAT     H264566   3.371   1.884   2.800
21442WAT      O64567   2.921   5.135   3.562
21442WAT     H164568   2.878   5.216   3.601
21442WAT     H264569   3.017   5.154   3.542
21443WAT      O64570   8.338   5.706   5.463
21443WAT     H164571   8.283   5.789   5.472
21443WAT     H264572   8.348   5.683   5.367
21444WAT      O64573   5.497   8.708   4.068
21444WAT     H164574   5.572   8.696   4.133
21444WAT     H264575   5.411   8.679   4.109
21445WAT      O64576   1.782   1.953   2.174
21445WAT     H164577   1.749   1.876   2.119
21445WAT     H264578   1.720   1.968   2.251
21446WAT      O64579   0.351   0.136   6.621
21446WAT     H164580   0.264   0.123   6.572
21446WAT     H264581   0.338   0.113   6.718
21447WAT      O64582   8.272   1.777   1.751
21447WAT     H164583   8.178   1.790   1.783
21447WAT     H264584   8.325   1.727   1.820
21448WAT      O64585   7.797   1.049   8.795
21448WAT     H164586   7.830   1.015   8.707
21448WAT     H264587   7.701   1.024   8.807
21449WAT      O64588   2.025   6.921   4.136
21449WAT     H164589   1.990   6.921   4.042
21449WAT     H264590   2.024   7.015   4.172
21450WAT      O64591   9.857   5.089   2.774
21450WAT     H164592   9.936   5.083   2.835
21450WAT     H264593   9.880   5.049   2.685
21451WAT      O64594   6.324   9.282   1.994
21451WAT     H164595   6.386   9.204   2.008
21451WAT     H264596   6.231   9.248   1.980
21452WAT      O64597   3.064   8.332   1.174
21452WAT     H164598   3.099   8.262   1.236
21452WAT     H264599   3.131   8.351   1.104
21453WAT      O64600   9.350   0.442   0.465
21453WAT     H164601   9.439   0.432   0.509
21453WAT     H264602   9.296   0.359   0.479
21454WAT      O64603   9.074   0.450   6.344
21454WAT     H164604   9.123   0.435   6.430
21454WAT     H264605   9.020   0.533   6.351
21455WAT      O64606   8.441   7.081   4.644
21455WAT     H164607   8.397   7.002   4.685
21455WAT     H264608   8.469   7.059   4.550
21456WAT      O64609   6.684   5.445   2.595
21456WAT     H164610   6.737   5.516   2.549
21456WAT     H264611   6.612   5.412   2.534
21457WAT      O64612   1.060   1.561   9.392
21457WAT     H164613   1.018   1.475   9.364
21457WAT     H264614   0.989   1.631   9.401
21458WAT      O64615   5.227   2.372   8.020
21458WAT     H164616   5.252   2.387   7.924
21458WAT     H264617   5.293   2.310   8.062
21459WAT      O64618   9.194   1.861   1.473
21459WAT     H164619   9.217   1.764   1.477
21459WAT     H264620   9.274   1.915   1.500
21460WAT      O64621   8.625   3.234   1.939
21460WAT     H164622   8.700   3.287   1.900
21460WAT     H264623   8.641   3.223   2.037
21461WAT      O64624   3.111   9.100   7.134
21461WAT     H164625   3.149   9.074   7.222
21461WAT     H264626   3.077   9.019   7.087
21462WAT      O64627   6.553   2.302   0.886
21462WAT     H164628   6.648   2.320   0.910
21462WAT     H264629   6.549   2.260   0.796
21463WAT      O64630   5.189   7.199   0.628
21463WAT     H164631   5.146   7.283   0.594
21463WAT     H264632   5.207   7.138   0.551
21464WAT      O64633   2.321   1.010   1.340
21464WAT     H164634   2.277   0.926   1.373
21464WAT     H264635   2.257   1.060   1.282
21465WAT      O64636   7.327   4.669   6.187
21465WAT     H164637   7.306   4.657   6.284
21465WAT     H264638   7.242   4.675   6.135
21466WAT      O64639   8.660   3.039   2.456
21466WAT     H164640   8.652   3.115   2.520
21466WAT     H264641   8.647   2.953   2.504
21467WAT      O64642   7.399   8.859   5.994
21467WAT     H164643   7.412   8.943   6.047
21467WAT     H264644   7.480   8.801   6.003
21468WAT      O64645   5.711   9.449   1.699
21468WAT     H164646   5.682   9.500   1.618
21468WAT     H264647   5.740   9.357   1.672
21469WAT      O64648   9.222   9.576   4.178
21469WAT     H164649   9.253   9.495   4.127
21469WAT     H264650   9.126   9.594   4.156
21470WAT      O64651   0.092   0.738   0.070
21470WAT     H164652   0.112   0.720   0.167
21470WAT     H264653   0.005   0.695   0.046
21471WAT      O64654   2.278   8.437   8.020
21471WAT     H164655   2.229   8.352   8.002
21471WAT     H264656   2.262   8.501   7.945
21472WAT      O64657   7.858   7.935   1.310
21472WAT     H164658   7.878   7.844   1.347
21472WAT     H264659   7.760   7.942   1.291
21473WAT      O64660   6.490   2.195   0.627
21473WAT     H164661   6.399   2.164   0.654
21473WAT     H264662   6.509   2.167   0.533
21474WAT      O64663   9.222   5.636   8.028
21474WAT     H164664   9.249   5.724   8.066
21474WAT     H264665   9.125   5.620   8.048
21475WAT      O64666   6.837   7.047   9.413
21475WAT     H164667   6.881   7.105   9.344
21475WAT     H264668   6.845   6.951   9.385
21476WAT      O64669   4.491   5.910   8.219
21476WAT     H164670   4.522   5.847   8.290
21476WAT     H264671   4.570   5.946   8.171
21477WAT      O64672   9.290   9.464   4.793
21477WAT     H164673   9.211   9.407   4.769
21477WAT     H264674   9.267   9.560   4.777
21478WAT      O64675   3.423   6.518   0.907
21478WAT     H164676   3.349   6.508   0.840
21478WAT     H264677   3.449   6.614   0.914
21479WAT      O64678   4.662   6.125   0.215
21479WAT     H164679   4.736   6.077   0.261
21479WAT     H264680   4.577   6.109   0.264
21480WAT      O64681   5.599   4.254   0.837
21480WAT     H164682   5.677   4.233   0.895
21480WAT     H264683   5.536   4.314   0.885
21481WAT      O64684   5.301   2.847   8.908
21481WAT     H164685   5.319   2.752   8.880
21481WAT     H264686   5.378   2.904   8.880
21482WAT      O64687   7.598   0.765   8.658
21482WAT     H164688   7.678   0.742   8.602
21482WAT     H264689   7.515   0.735   8.611
21483WAT      O64690   6.861   0.738   5.494
21483WAT     H164691   6.950   0.716   5.454
21483WAT     H264692   6.835   0.667   5.559
21484WAT      O64693   1.103   1.784   0.856
21484WAT     H164694   1.186   1.835   0.835
21484WAT     H264695   1.108   1.693   0.815
21485WAT      O64696   3.754   7.833   8.369
21485WAT     H164697   3.706   7.771   8.306
21485WAT     H264698   3.751   7.795   8.462
21486WAT      O64699   4.758   4.122   5.886
21486WAT     H164700   4.745   4.220   5.906
21486WAT     H264701   4.761   4.071   5.972
21487WAT      O64702   6.283   4.693   0.084
21487WAT     H164703   6.192   4.661   0.056
21487WAT     H264704   6.347   4.683   0.007
21488WAT      O64705   8.804   8.553   5.666
21488WAT     H164706   8.882   8.616   5.662
21488WAT     H264707   8.758   8.562   5.754
21489WAT      O64708   7.745   9.219   4.532
21489WAT     H164709   7.747   9.309   4.576
21489WAT     H264710   7.660   9.172   4.557
21490WAT      O64711   3.133   1.005   4.920
21490WAT     H164712   3.153   0.909   4.903
21490WAT     H264713   3.082   1.043   4.843
21491WAT      O64714   1.964   6.744   3.056
21491WAT     H164715   1.998   6.726   2.964
21491WAT     H264716   1.942   6.841   3.065
21492WAT      O64717   2.380   9.636   8.996
21492WAT     H164718   2.302   9.664   8.939
21492WAT     H264719   2.358   9.652   9.092
21493WAT      O64720   3.139   2.462   1.884
21493WAT     H164721   3.106   2.376   1.845
21493WAT     H264722   3.069   2.501   1.944
21494WAT      O64723   0.685   0.765   2.753
21494WAT     H164724   0.699   0.810   2.842
21494WAT     H264725   0.746   0.686   2.746
21495WAT      O64726   4.180   9.555   3.225
21495WAT     H164727   4.223   9.541   3.314
21495WAT     H264728   4.150   9.467   3.189
21496WAT      O64729   7.261   0.482   4.166
21496WAT     H164730   7.304   0.569   4.186
21496WAT     H264731   7.287   0.451   4.074
21497WAT      O64732   0.533   9.420   2.070
21497WAT     H164733   0.619   9.404   2.021
21497WAT     H264734   0.538   9.378   2.161
21498WAT      O64735   5.313   6.462   1.314
21498WAT     H164736   5.278   6.372   1.340
21498WAT     H264737   5.238   6.521   1.287
21499WAT      O64738   6.603   3.035   7.531
21499WAT     H164739   6.652   3.028   7.444
21499WAT     H264740   6.545   3.116   7.530
21500WAT      O64741   7.487   7.901   5.384
21500WAT     H164742   7.462   7.923   5.290
21500WAT     H264743   7.405   7.876   5.435
21501WAT      O64744   0.954   6.918   5.260
21501WAT     H164745   0.986   7.008   5.290
21501WAT     H264746   0.867   6.897   5.304
21502WAT      O64747   4.949   1.021   5.513
21502WAT     H164748   5.047   1.039   5.521
21502WAT     H264749   4.921   1.028   5.417
21503WAT      O64750   0.490   8.333   3.005
21503WAT     H164751   0.472   8.254   3.064
21503WAT     H264752   0.588   8.349   3.000
21504WAT      O64753   2.814   7.279   8.141
21504WAT     H164754   2.817   7.351   8.211
21504WAT     H264755   2.779   7.194   8.182
21505WAT      O64756   7.340   5.979   3.905
21505WAT     H164757   7.248   5.955   3.934
21505WAT     H264758   7.405   5.955   3.978
21506WAT      O64759   3.942   6.340   8.210
21506WAT     H164760   3.949   6.295   8.299
21506WAT     H264761   3.847   6.370   8.196
21507WAT      O64762   6.030   0.074   0.768
21507WAT     H164763   6.066   0.078   0.861
21507WAT     H264764   5.973  -0.008   0.758
21508WAT      O64765   9.862   0.418   3.524
21508WAT     H164766   9.908   0.484   3.583
21508WAT     H264767   9.763   0.429   3.533
21509WAT      O64768   8.301   3.524   7.584
21509WAT     H164769   8.212   3.506   7.542
21509WAT     H264770   8.373   3.498   7.519
21510WAT      O64771   4.445   0.103   3.910
21510WAT     H164772   4.501   0.092   3.828
21510WAT     H264773   4.419   0.013   3.945
21511WAT      O64774   0.919   0.609   2.686
21511WAT     H164775   0.986   0.536   2.699
21511WAT     H264776   0.959   0.697   2.713
21512WAT      O64777   4.869   7.241   7.176
21512WAT     H164778   4.899   7.317   7.119
21512WAT     H264779   4.821   7.277   7.256
21513WAT      O64780   5.470   8.152   7.361
21513WAT     H164781   5.417   8.076   7.326
21513WAT     H264782   5.551   8.165   7.304
21514WAT      O64783   2.587   7.751   4.484
21514WAT     H164784   2.589   7.653   4.464
21514WAT     H264785   2.512   7.770   4.547
21515WAT      O64786   1.405   5.348   3.877
21515WAT     H164787   1.440   5.373   3.967
21515WAT     H264788   1.396   5.249   3.872
21516WAT      O64789   6.710   8.299   1.248
21516WAT     H164790   6.669   8.331   1.333
21516WAT     H264791   6.809   8.295   1.259
21517WAT      O64792   0.824   7.233   7.859
21517WAT     H164793   0.877   7.163   7.907
21517WAT     H264794   0.832   7.217   7.760
21518WAT      O64795   3.018   8.623   7.394
21518WAT     H164796   2.988   8.659   7.483
21518WAT     H264797   3.111   8.588   7.401
21519WAT      O64798   7.930   6.175   0.617
21519WAT     H164799   7.869   6.178   0.696
21519WAT     H264800   8.014   6.223   0.638
21520WAT      O64801   9.782   0.055   2.386
21520WAT     H164802   9.739   0.125   2.444
21520WAT     H264803   9.729   0.044   2.302
21521WAT      O64804   2.634   8.353   9.796
21521WAT     H164805   2.671   8.419   9.862
21521WAT     H264806   2.535   8.362   9.792
21522WAT      O64807   1.852   3.100   6.847
21522WAT     H164808   1.828   3.052   6.931
21522WAT     H264809   1.804   3.188   6.844
21523WAT      O64810   6.164   9.694   3.594
21523WAT     H164811   6.206   9.700   3.503
21523WAT     H264812   6.119   9.605   3.604
21524WAT      O64813   4.977   8.316   1.613
21524WAT     H164814   4.884   8.353   1.609
21524WAT     H264815   5.035   8.379   1.664
21525WAT      O64816   7.483   7.733   2.646
21525WAT     H164817   7.407   7.685   2.601
21525WAT     H264818   7.566   7.678   2.638
21526WAT      O64819   0.517   3.173   7.475
21526WAT     H164820   0.564   3.092   7.439
21526WAT     H264821   0.451   3.145   7.545
21527WAT      O64822   0.551   3.011   5.537
21527WAT     H164823   0.464   3.037   5.493
21527WAT     H264824   0.576   2.918   5.509
21528WAT      O64825   8.062   6.195   4.163
21528WAT     H164826   8.030   6.104   4.137
21528WAT     H264827   8.113   6.189   4.248
21529WAT      O64828   8.000   6.607   3.702
21529WAT     H164829   8.070   6.560   3.648
21529WAT     H264830   7.947   6.540   3.753
21530WAT      O64831   6.476   3.797   9.122
21530WAT     H164832   6.488   3.880   9.176
21530WAT     H264833   6.551   3.733   9.142
21531WAT      O64834   0.735   4.081   3.752
21531WAT     H164835   0.719   4.154   3.686
21531WAT     H264836   0.668   4.088   3.826
21532WAT      O64837   8.955   5.947   1.390
21532WAT     H164838   8.998   5.919   1.476
21532WAT     H264839   8.915   6.038   1.400
21533WAT      O64840   1.715   1.829   3.823
21533WAT     H164841   1.633   1.869   3.865
21533WAT     H264842   1.692   1.793   3.733
21534WAT      O64843   2.878   3.355   9.838
21534WAT     H164844   2.865   3.268   9.790
21534WAT     H264845   2.904   3.338   9.933
21535WAT      O64846   4.989   9.063   3.508
21535WAT     H164847   4.991   9.002   3.429
21535WAT     H264848   5.020   9.012   3.589
21536WAT      O64849   5.961   5.642   6.530
21536WAT     H164850   6.054   5.676   6.517
21536WAT     H264851   5.895   5.707   6.492
21537WAT      O64852   1.758   2.791   8.831
21537WAT     H164853   1.721   2.817   8.920
21537WAT     H264854   1.848   2.832   8.819
21538WAT      O64855   8.843   0.855   8.810
21538WAT     H164856   8.904   0.831   8.735
21538WAT     H264857   8.896   0.890   8.887
21539WAT      O64858   0.197   4.743   8.778
21539WAT     H164859   0.172   4.835   8.808
21539WAT     H264860   0.154   4.724   8.690
21540WAT      O64861   8.495   9.017   6.597
21540WAT     H164862   8.579   9.058   6.563
21540WAT     H264863   8.516   8.944   6.661
21541WAT      O64864   8.944   1.118   3.825
21541WAT     H164865   9.036   1.116   3.865
21541WAT     H264866   8.914   1.213   3.816
21542WAT      O64867   0.682   0.407   7.011
21542WAT     H164868   0.709   0.327   7.064
21542WAT     H264869   0.683   0.488   7.069
21543WAT      O64870   8.584   0.369   9.407
21543WAT     H164871   8.562   0.456   9.364
21543WAT     H264872   8.507   0.306   9.395
21544WAT      O64873   8.043   9.020   1.119
21544WAT     H164874   8.057   9.071   1.203
21544WAT     H264875   8.130   8.981   1.088
21545WAT      O64876   7.939   5.694   9.621
21545WAT     H164877   7.849   5.686   9.666
21545WAT     H264878   7.989   5.771   9.660
21546WAT      O64879   1.198   7.714   3.436
21546WAT     H164880   1.101   7.699   3.415
21546WAT     H264881   1.205   7.782   3.509
21547WAT      O64882   4.061   8.120   9.768
21547WAT     H164883   4.020   8.188   9.829
21547WAT     H264884   3.997   8.044   9.755
21548WAT      O64885   1.261   0.001   4.254
21548WAT     H164886   1.316  -0.067   4.206
21548WAT     H264887   1.306   0.090   4.249
21549WAT      O64888   5.797   3.527   3.198
21549WAT     H164889   5.807   3.464   3.122
21549WAT     H264890   5.716   3.584   3.184
21550WAT      O64891   7.669   3.053   5.284
21550WAT     H164892   7.594   3.001   5.325
21550WAT     H264893   7.637   3.146   5.264
21551WAT      O64894   3.586   4.737   7.229
21551WAT     H164895   3.511   4.797   7.255
21551WAT     H264896   3.616   4.759   7.136
21552WAT      O64897   7.756   1.706   4.549
21552WAT     H164898   7.837   1.657   4.580
21552WAT     H264899   7.705   1.739   4.628
21553WAT      O64900   2.563   7.997   7.128
21553WAT     H164901   2.622   7.974   7.051
21553WAT     H264902   2.614   8.056   7.192
21554WAT      O64903   5.470   6.248   1.741
21554WAT     H164904   5.418   6.164   1.760
21554WAT     H264905   5.536   6.263   1.815
21555WAT      O64906   8.155   0.919   7.698
21555WAT     H164907   8.088   0.930   7.624
21555WAT     H264908   8.245   0.900   7.658
21556WAT      O64909   9.314   6.399   4.097
21556WAT     H164910   9.290   6.312   4.055
21556WAT     H264911   9.381   6.446   4.040
21557WAT      O64912   8.797   3.207   7.153
21557WAT     H164913   8.805   3.179   7.057
21557WAT     H264914   8.888   3.213   7.193
21558WAT      O64915   6.496   9.116   8.091
21558WAT     H164916   6.455   9.178   8.025
21558WAT     H264917   6.581   9.156   8.126
21559WAT      O64918   7.449   2.985   2.512
21559WAT     H164919   7.408   2.964   2.423
21559WAT     H264920   7.382   3.034   2.569
21560WAT      O64921   5.795   5.966   6.889
21560WAT     H164922   5.854   6.035   6.932
21560WAT     H264923   5.777   5.893   6.954
21561WAT      O64924   4.400   0.024   9.085
21561WAT     H164925   4.479   0.024   9.025
21561WAT     H264926   4.379  -0.070   9.114
21562WAT      O64927   3.541   3.410   7.882
21562WAT     H164928   3.557   3.334   7.945
21562WAT     H264929   3.450   3.402   7.841
21563WAT      O64930   5.214   3.981   8.352
21563WAT     H164931   5.209   3.881   8.354
21563WAT     H264932   5.207   4.016   8.445
21564WAT      O64933   4.967   6.399   9.181
21564WAT     H164934   4.989   6.435   9.091
21564WAT     H264935   4.972   6.472   9.249
21565WAT      O64936   9.884   0.355   1.182
21565WAT     H164937   9.792   0.321   1.199
21565WAT     H264938   9.946   0.279   1.166
21566WAT      O64939   4.659   1.314   2.164
21566WAT     H164940   4.661   1.364   2.251
21566WAT     H264941   4.700   1.371   2.093
21567WAT      O64942   0.495   5.547   8.401
21567WAT     H164943   0.404   5.535   8.361
21567WAT     H264944   0.503   5.639   8.438
21568WAT      O64945   9.661   3.136   9.080
21568WAT     H164946   9.607   3.139   9.164
21568WAT     H264947   9.702   3.226   9.064
21569WAT      O64948   2.404   8.511   8.987
21569WAT     H164949   2.313   8.471   8.996
21569WAT     H264950   2.399   8.609   9.007
21570WAT      O64951   9.889   1.114   8.369
21570WAT     H164952   9.895   1.055   8.289
21570WAT     H264953   9.880   1.209   8.340
21571WAT      O64954   8.538   5.470   1.222
21571WAT     H164955   8.555   5.432   1.313
21571WAT     H264956   8.577   5.409   1.153
21572WAT      O64957   6.555   6.856   4.182
21572WAT     H164958   6.523   6.936   4.232
21572WAT     H264959   6.594   6.790   4.247
21573WAT      O64960   9.263   2.645   4.831
21573WAT     H164961   9.266   2.745   4.841
21573WAT     H264962   9.225   2.622   4.741
21574WAT      O64963   0.394   4.101   5.749
21574WAT     H164964   0.311   4.078   5.699
21574WAT     H264965   0.467   4.038   5.723
21575WAT      O64966   3.418   1.846   9.329
21575WAT     H164967   3.338   1.798   9.292
21575WAT     H264968   3.478   1.874   9.255
21576WAT      O64969   2.212   0.001   9.170
21576WAT     H164970   2.150  -0.002   9.249
21576WAT     H264971   2.207   0.092   9.128
21577WAT      O64972   8.792   3.076   4.733
21577WAT     H164973   8.861   3.085   4.805
21577WAT     H264974   8.836   3.077   4.644
21578WAT      O64975   9.450   1.145   8.218
21578WAT     H164976   9.384   1.075   8.245
21578WAT     H264977   9.514   1.107   8.152
21579WAT      O64978   5.718   8.890   6.092
21579WAT     H164979   5.628   8.884   6.135
21579WAT     H264980   5.773   8.960   6.139
21580WAT      O64981   2.138   7.967   7.065
21580WAT     H164982   2.201   7.979   7.141
21580WAT     H264983   2.128   8.053   7.014
21581WAT      O64984   6.518   0.429   5.530
21581WAT     H164985   6.535   0.421   5.432
21581WAT     H264986   6.499   0.524   5.554
21582WAT      O64987   8.649   9.031   7.814
21582WAT     H164988   8.711   9.014   7.891
21582WAT     H264989   8.570   9.083   7.846
21583WAT      O64990   2.658   2.670   3.640
21583WAT     H164991   2.707   2.738   3.585
21583WAT     H264992   2.717   2.636   3.713
21584WAT      O64993   5.507   5.843   3.019
21584WAT     H164994   5.595   5.801   3.038
21584WAT     H264995   5.434   5.775   3.031
21585WAT      O64996   9.540   2.142   5.759
21585WAT     H164997   9.468   2.091   5.711
21585WAT     H264998   9.617   2.081   5.778
21586WAT      O64999   1.328   9.786   1.107
21586WAT     H165000   1.367   9.830   1.188
21586WAT     H265001   1.297   9.694   1.131
21587WAT      O65002   5.876   0.700   0.392
21587WAT     H165003   5.810   0.742   0.454
21587WAT     H265004   5.836   0.619   0.350
21588WAT      O65005   1.178   8.863   3.317
21588WAT     H165006   1.156   8.922   3.395
21588WAT     H265007   1.094   8.838   3.270
21589WAT      O65008   7.800   3.915   1.886
21589WAT     H165009   7.889   3.960   1.894
21589WAT     H265010   7.760   3.936   1.797
21590WAT      O65011   6.544   0.699   8.860
21590WAT     H165012   6.551   0.773   8.793
21590WAT     H265013   6.576   0.614   8.818
21591WAT      O65014   6.615   5.111   4.675
21591WAT     H165015   6.521   5.084   4.696
21591WAT     H265016   6.634   5.092   4.579
21592WAT      O65017   7.741   3.435   9.860
21592WAT     H165018   7.817   3.372   9.844
21592WAT     H265019   7.690   3.406   9.941
21593WAT      O65020   9.295   6.751   4.038
21593WAT     H165021   9.261   6.738   4.131
21593WAT     H265022   9.355   6.675   4.013
21594WAT      O65023   1.083   0.858   3.204
21594WAT     H165024   1.058   0.792   3.275
21594WAT     H265025   1.111   0.944   3.245
21595WAT      O65026   1.882   3.932   0.782
21595WAT     H165027   1.794   3.966   0.815
21595WAT     H265028   1.869   3.879   0.698
21596WAT      O65029   0.545   4.451   9.862
21596WAT     H165030   0.447   4.466   9.846
21596WAT     H265031   0.567   4.474   9.956
21597WAT      O65032   9.276   3.300   1.165
21597WAT     H165033   9.356   3.240   1.170
21597WAT     H265034   9.298   3.389   1.204
21598WAT      O65035   0.192   2.382   3.197
21598WAT     H165036   0.259   2.454   3.177
21598WAT     H265037   0.127   2.375   3.121
21599WAT      O65038   7.119   8.123   8.293
21599WAT     H165039   7.087   8.186   8.364
21599WAT     H265040   7.042   8.073   8.255
21600WAT      O65041   1.820   7.590   0.764
21600WAT     H165042   1.760   7.624   0.691
21600WAT     H265043   1.809   7.647   0.845
21601WAT      O65044   5.357   9.549   4.180
21601WAT     H165045   5.292   9.487   4.223
21601WAT     H265046   5.447   9.506   4.178
21602WAT      O65047   1.398   6.320   1.537
21602WAT     H165048   1.391   6.309   1.438
21602WAT     H265049   1.485   6.362   1.560
21603WAT      O65050   8.746   4.106   8.416
21603WAT     H165051   8.720   4.188   8.366
21603WAT     H265052   8.711   4.025   8.368
21604WAT      O65053   1.756   4.620   8.372
21604WAT     H165054   1.724   4.554   8.440
21604WAT     H265055   1.842   4.589   8.333
21605WAT      O65056   3.046   0.814   2.266
21605WAT     H165057   3.088   0.875   2.200
21605WAT     H265058   3.046   0.858   2.356
21606WAT      O65059   2.368   4.815   5.705
21606WAT     H165060   2.275   4.840   5.678
21606WAT     H265061   2.365   4.738   5.769
21607WAT      O65062   6.528   0.945   6.042
21607WAT     H165063   6.584   0.972   5.964
21607WAT     H265064   6.582   0.953   6.126
21608WAT      O65065   7.558   2.149   8.770
21608WAT     H165066   7.544   2.132   8.867
21608WAT     H265067   7.584   2.063   8.724
21609WAT      O65068   1.609   8.026   4.099
21609WAT     H165069   1.627   8.120   4.071
21609WAT     H265070   1.510   8.008   4.094
21610WAT      O65071   2.477   3.506   7.241
21610WAT     H165072   2.407   3.577   7.238
21610WAT     H265073   2.441   3.426   7.289
21611WAT      O65074   0.224   4.391   4.038
21611WAT     H165075   0.125   4.397   4.028
21611WAT     H265076   0.246   4.363   4.132
21612WAT      O65077   2.265   6.264   2.388
21612WAT     H165078   2.328   6.272   2.311
21612WAT     H265079   2.206   6.344   2.392
21613WAT      O65080   2.768   6.253   4.031
21613WAT     H165081   2.813   6.171   4.066
21613WAT     H265082   2.676   6.230   4.001
21614WAT      O65083   4.577   9.406   2.629
21614WAT     H165084   4.546   9.354   2.550
21614WAT     H265085   4.514   9.481   2.647
21615WAT      O65086   8.695   5.870   5.444
21615WAT     H165087   8.634   5.808   5.492
21615WAT     H265088   8.751   5.818   5.379
21616WAT      O65089   2.149   2.052   2.741
21616WAT     H165090   2.216   2.119   2.772
21616WAT     H265091   2.060   2.073   2.782
21617WAT      O65092   3.001   6.412   0.248
21617WAT     H165093   3.084   6.455   0.283
21617WAT     H265094   3.001   6.416   0.148
21618WAT      O65095   9.566   6.674   3.530
21618WAT     H165096   9.564   6.750   3.465
21618WAT     H265097   9.551   6.588   3.481
21619WAT      O65098   2.019   9.277   1.799
21619WAT     H165099   2.056   9.184   1.801
21619WAT     H265100   2.020   9.316   1.891
21620WAT      O65101   1.367   7.357   1.955
21620WAT     H165102   1.458   7.315   1.956
21620WAT     H265103   1.327   7.353   2.046
21621WAT      O65104   1.841   2.714   6.313
21621WAT     H165105   1.827   2.808   6.282
21621WAT     H265106   1.931   2.705   6.355
21622WAT      O65107   0.215   5.567   8.326
21622WAT     H165108   0.186   5.588   8.233
21622WAT     H265109   0.161   5.619   8.391
21623WAT      O65110   0.508   3.896   8.897
21623WAT     H165111   0.548   3.907   8.988
21623WAT     H265112   0.553   3.958   8.833
21624WAT      O65113   0.057   1.231   1.802
21624WAT     H165114   0.040   1.312   1.859
21624WAT     H265115   0.152   1.202   1.812
21625WAT      O65116   3.854   2.573   0.978
21625WAT     H165117   3.922   2.635   0.939
21625WAT     H265118   3.901   2.498   1.026
21626WAT      O65119   2.444   5.990   7.406
21626WAT     H165120   2.493   5.922   7.352
21626WAT     H265121   2.347   5.967   7.409
21627WAT      O65122   9.599   1.632   9.026
21627WAT     H165123   9.601   1.717   9.078
21627WAT     H265124   9.541   1.642   8.946
21628WAT      O65125   7.962   1.595   7.749
21628WAT     H165126   7.947   1.499   7.769
21628WAT     H265127   8.050   1.624   7.785
21629WAT      O65128   9.281   6.347   6.770
21629WAT     H165129   9.226   6.278   6.817
21629WAT     H265130   9.221   6.410   6.721
21630WAT      O65131   4.978   0.602   1.539
21630WAT     H165132   5.039   0.681   1.530
21630WAT     H265133   4.914   0.617   1.614
21631WAT      O65134   1.308   3.712   0.587
21631WAT     H165135   1.214   3.701   0.619
21631WAT     H265136   1.357   3.625   0.598
21632WAT      O65137   5.132   9.081   5.835
21632WAT     H165138   5.231   9.077   5.845
21632WAT     H265139   5.104   9.174   5.813
21633WAT      O65140   5.553   2.752   9.842
21633WAT     H165141   5.649   2.724   9.848
21633WAT     H265142   5.498   2.674   9.812
21634WAT      O65143   6.095   1.054   4.327
21634WAT     H165144   6.087   1.137   4.271
21634WAT     H265145   6.075   0.974   4.271
21635WAT      O65146   1.380   4.450   3.539
21635WAT     H165147   1.455   4.515   3.551
21635WAT     H265148   1.407   4.379   3.474
21636WAT      O65149   6.910   8.055   2.969
21636WAT     H165150   6.849   8.127   3.002
21636WAT     H265151   6.991   8.050   3.028
21637WAT      O65152   5.429   7.132   7.826
21637WAT     H165153   5.492   7.095   7.894
21637WAT     H265154   5.358   7.185   7.872
21638WAT      O65155   3.371   6.976   1.057
21638WAT     H165156   3.392   6.891   1.106
21638WAT     H265157   3.273   6.992   1.058
21639WAT      O65158   0.386   6.048   0.740
21639WAT     H165159   0.408   6.001   0.825
21639WAT     H265160   0.435   6.004   0.664
21640WAT      O65161   7.974   1.487   4.494
21640WAT     H165162   8.019   1.575   4.509
21640WAT     H265163   8.034   1.426   4.444
21641WAT      O65164   2.943   7.592   7.789
21641WAT     H165165   2.915   7.567   7.696
21641WAT     H265166   2.866   7.578   7.851
21642WAT      O65167   4.189   3.735   7.547
21642WAT     H165168   4.128   3.732   7.468
21642WAT     H265169   4.137   3.720   7.631
21643WAT      O65170   4.316   9.660   6.927
21643WAT     H165171   4.397   9.628   6.878
21643WAT     H265172   4.310   9.759   6.922
21644WAT      O65173   9.467   8.021   9.663
21644WAT     H165174   9.499   7.926   9.660
21644WAT     H265175   9.371   8.023   9.692
21645WAT      O65176   4.504   3.536   8.539
21645WAT     H165177   4.455   3.474   8.601
21645WAT     H265178   4.449   3.617   8.523
21646WAT      O65179   3.727   0.764   6.000
21646WAT     H165180   3.651   0.824   5.978
21646WAT     H265181   3.718   0.732   6.095
21647WAT      O65182   0.643   3.672   2.797
21647WAT     H165183   0.708   3.642   2.867
21647WAT     H265184   0.694   3.697   2.714
21648WAT      O65185   5.938   5.168   4.237
21648WAT     H165186   5.923   5.080   4.192
21648WAT     H265187   5.852   5.218   4.243
21649WAT      O65188   5.863   8.353   3.755
21649WAT     H165189   5.962   8.360   3.750
21649WAT     H265190   5.826   8.344   3.662
21650WAT      O65191   6.745   3.633   4.113
21650WAT     H165192   6.772   3.610   4.206
21650WAT     H265193   6.645   3.642   4.108
21651WAT      O65194   0.903   9.046   2.479
21651WAT     H165195   0.895   9.127   2.537
21651WAT     H265196   0.947   9.072   2.393
21652WAT      O65197   7.474   0.474   7.588
21652WAT     H165198   7.556   0.421   7.567
21652WAT     H265199   7.405   0.413   7.628
21653WAT      O65200   3.685   0.370   7.591
21653WAT     H165201   3.595   0.412   7.583
21653WAT     H265202   3.696   0.301   7.520
21654WAT      O65203   4.178   8.512   5.541
21654WAT     H165204   4.149   8.589   5.484
21654WAT     H265205   4.275   8.523   5.563
21655WAT      O65206   9.376   3.721   1.627
21655WAT     H165207   9.296   3.748   1.681
21655WAT     H265208   9.459   3.743   1.678
21656WAT      O65209   9.474   2.512   7.470
21656WAT     H165210   9.572   2.506   7.454
21656WAT     H265211   9.430   2.428   7.438
21657WAT      O65212   3.813   0.106   8.363
21657WAT     H165213   3.743   0.039   8.391
21657WAT     H265214   3.816   0.110   8.263
21658WAT      O65215   9.771   6.188   5.904
21658WAT     H165216   9.834   6.208   5.829
21658WAT     H265217   9.819   6.136   5.975
21659WAT      O65218   1.771   6.293   5.469
21659WAT     H165219   1.863   6.277   5.433
21659WAT     H265220   1.716   6.210   5.458
21660WAT      O65221   7.269   6.895   6.693
21660WAT     H165222   7.185   6.842   6.683
21660WAT     H265223   7.270   6.940   6.782
21661WAT      O65224   7.854   6.461   3.864
21661WAT     H165225   7.803   6.515   3.931
21661WAT     H265226   7.933   6.418   3.909
21662WAT      O65227   4.266   5.271   0.828
21662WAT     H165228   4.217   5.358   0.830
21662WAT     H265229   4.326   5.269   0.748
21663WAT      O65230   6.438   6.737   3.517
21663WAT     H165231   6.445   6.648   3.564
21663WAT     H265232   6.351   6.780   3.540
21664WAT      O65233   3.742   7.707   4.587
21664WAT     H165234   3.788   7.698   4.499
21664WAT     H265235   3.739   7.803   4.614
21665WAT      O65236   0.218   6.142   8.731
21665WAT     H165237   0.173   6.205   8.666
21665WAT     H265238   0.317   6.146   8.718
21666WAT      O65239   1.011   0.867   0.613
21666WAT     H165240   1.003   0.941   0.545
21666WAT     H265241   0.996   0.904   0.704
21667WAT      O65242   9.782   1.782   0.254
21667WAT     H165243   9.849   1.843   0.212
21667WAT     H265244   9.773   1.699   0.199
21668WAT      O65245   5.074   5.400   0.371
21668WAT     H165246   5.113   5.322   0.419
21668WAT     H265247   4.989   5.372   0.325
21669WAT      O65248   6.758   1.701   5.924
21669WAT     H165249   6.831   1.725   5.988
21669WAT     H265250   6.795   1.694   5.831
21670WAT      O65251   5.758   8.591   7.956
21670WAT     H165252   5.669   8.546   7.959
21670WAT     H265253   5.807   8.572   8.041
21671WAT      O65254   2.951   5.468   5.328
21671WAT     H165255   2.986   5.538   5.266
21671WAT     H265256   2.853   5.481   5.342
21672WAT      O65257   9.410   2.975   1.079
21672WAT     H165258   9.471   2.897   1.075
21672WAT     H265259   9.443   3.040   1.147
21673WAT      O65260   0.166   9.797   7.861
21673WAT     H165261   0.072   9.822   7.882
21673WAT     H265262   0.216   9.782   7.946
21674WAT      O65263   4.171   4.927   3.416
21674WAT     H165264   4.103   4.999   3.410
21674WAT     H265265   4.172   4.889   3.509
21675WAT      O65266   7.990   6.726   8.905
21675WAT     H165267   7.950   6.696   8.819
21675WAT     H265268   7.929   6.791   8.950
21676WAT      O65269   9.306   6.846   3.189
21676WAT     H165270   9.377   6.831   3.258
21676WAT     H265271   9.265   6.936   3.201
21677WAT      O65272   4.328   7.700   9.586
21677WAT     H165273   4.330   7.638   9.509
21677WAT     H265274   4.391   7.776   9.570
21678WAT      O65275   5.810   6.973   7.939
21678WAT     H165276   5.880   6.922   7.889
21678WAT     H265277   5.843   7.065   7.959
21679WAT      O65278   9.503   8.208   7.714
21679WAT     H165279   9.581   8.146   7.726
21679WAT     H265280   9.471   8.204   7.619
21680WAT      O65281   3.879   2.957   3.718
21680WAT     H165282   3.901   2.870   3.762
21680WAT     H265283   3.944   2.974   3.644
21681WAT      O65284   1.758   6.923   4.946
21681WAT     H165285   1.747   6.844   4.886
21681WAT     H265286   1.833   6.980   4.912
21682WAT      O65287   3.475   7.692   4.304
21682WAT     H165288   3.557   7.639   4.327
21682WAT     H265289   3.484   7.784   4.342
21683WAT      O65290   7.379   4.306   2.664
21683WAT     H165291   7.335   4.340   2.747
21683WAT     H265292   7.320   4.326   2.585
21684WAT      O65293   2.296   8.476   6.968
21684WAT     H165294   2.252   8.565   6.956
21684WAT     H265295   2.360   8.460   6.892
21685WAT      O65296   0.761   2.753   3.796
21685WAT     H165297   0.684   2.708   3.842
21685WAT     H265298   0.747   2.749   3.697
21686WAT      O65299   8.525   9.253   6.907
21686WAT     H165300   8.431   9.252   6.874
21686WAT     H265301   8.570   9.338   6.879
21687WAT      O65302   7.566   3.362   5.549
21687WAT     H165303   7.608   3.402   5.468
21687WAT     H265304   7.592   3.416   5.629
21688WAT      O65305   7.535   1.747   7.091
21688WAT     H165306   7.572   1.661   7.055
21688WAT     H265307   7.609   1.814   7.099
21689WAT      O65308   8.183   9.766   6.665
21689WAT     H165309   8.153   9.825   6.740
21689WAT     H265310   8.136   9.793   6.581
21690WAT      O65311   7.827   1.231   1.815
21690WAT     H165312   7.899   1.255   1.749
21690WAT     H265313   7.771   1.312   1.833
21691WAT      O65314   3.548   5.770   5.088
21691WAT     H165315   3.581   5.813   5.005
21691WAT     H265316   3.613   5.700   5.117
21692WAT      O65317   8.974   1.791   1.340
21692WAT     H165318   8.929   1.875   1.310
21692WAT     H265319   9.063   1.814   1.381
21693WAT      O65320   5.536   8.253   5.469
21693WAT     H165321   5.439   8.272   5.485
21693WAT     H265322   5.568   8.307   5.391
21694WAT      O65323   6.564   9.566   0.866
21694WAT     H165324   6.474   9.552   0.907
21694WAT     H265325   6.607   9.646   0.909
21695WAT      O65326   8.240   3.072   3.916
21695WAT     H165327   8.272   2.977   3.904
21695WAT     H265328   8.225   3.090   4.013
21696WAT      O65329   6.031   2.764   0.616
21696WAT     H165330   5.957   2.819   0.576
21696WAT     H265331   6.017   2.755   0.714
21697WAT      O65332   4.150   1.066   6.117
21697WAT     H165333   4.222   1.020   6.066
21697WAT     H265334   4.108   1.001   6.182
21698WAT      O65335   3.040   4.156   1.591
21698WAT     H165336   2.971   4.224   1.565
21698WAT     H265337   3.059   4.164   1.689
21699WAT      O65338   6.762   7.834   6.357
21699WAT     H165339   6.680   7.888   6.380
21699WAT     H265340   6.768   7.824   6.258
21700WAT      O65341   7.741   2.692   1.137
21700WAT     H165342   7.787   2.733   1.215
21700WAT     H265343   7.716   2.763   1.071
21701WAT      O65344   4.543   3.505   2.587
21701WAT     H165345   4.518   3.426   2.644
21701WAT     H265346   4.472   3.521   2.519
21702WAT      O65347   2.904   7.774   9.838
21702WAT     H165348   2.834   7.787   9.909
21702WAT     H265349   2.874   7.703   9.775
21703WAT      O65350   1.775   8.997   7.528
21703WAT     H165351   1.812   8.965   7.440
21703WAT     H265352   1.816   9.085   7.551
21704WAT      O65353   7.159   3.685   3.577
21704WAT     H165354   7.088   3.627   3.536
21704WAT     H265355   7.162   3.669   3.676
21705WAT      O65356   7.116   1.016   1.785
21705WAT     H165357   7.050   1.020   1.710
21705WAT     H265358   7.100   1.092   1.848
21706WAT      O65359   3.018   3.886   3.348
21706WAT     H165360   2.974   3.889   3.258
21706WAT     H265361   2.956   3.923   3.417
21707WAT      O65362   7.487   5.936   9.250
21707WAT     H165363   7.450   5.970   9.164
21707WAT     H265364   7.577   5.895   9.234
21708WAT      O65365   0.954   5.036   6.612
21708WAT     H165366   0.943   4.950   6.561
21708WAT     H265367   1.016   5.097   6.562
21709WAT      O65368   9.714   7.601   8.681
21709WAT     H165369   9.623   7.607   8.640
21709WAT     H265370   9.706   7.600   8.781
21710WAT      O65371   7.411   8.288   0.329
21710WAT     H165372   7.333   8.226   0.323
21710WAT     H265373   7.382   8.381   0.308
21711WAT      O65374   6.084   0.291   1.608
21711WAT     H165375   6.104   0.210   1.664
21711WAT     H265376   6.143   0.291   1.527
21712WAT      O65377   5.211   4.643   2.369
21712WAT     H165378   5.297   4.619   2.324
21712WAT     H265379   5.155   4.699   2.307
21713WAT      O65380   1.434   6.587   6.150
21713WAT     H165381   1.365   6.599   6.078
21713WAT     H265382   1.510   6.649   6.134
21714WAT      O65383   8.614   3.323   6.585
21714WAT     H165384   8.630   3.226   6.603
21714WAT     H265385   8.539   3.356   6.643
21715WAT      O65386   1.297   9.832   7.365
21715WAT     H165387   1.355   9.826   7.284
21715WAT     H265388   1.227   9.761   7.362
21716WAT      O65389   0.727   3.927   2.900
21716WAT     H165390   0.654   3.863   2.878
21716WAT     H265391   0.815   3.890   2.869
21717WAT      O65392   4.157   2.453   5.657
21717WAT     H165393   4.187   2.470   5.563
21717WAT     H265394   4.236   2.451   5.718
21718WAT      O65395   2.384   1.150   3.598
21718WAT     H165396   2.340   1.102   3.523
21718WAT     H265397   2.423   1.084   3.662
21719WAT      O65398   8.088   6.619   0.090
21719WAT     H165399   8.028   6.568   0.028
21719WAT     H265400   8.154   6.672   0.037
21720WAT      O65401   2.370   8.146   8.275
21720WAT     H165402   2.437   8.153   8.348
21720WAT     H265403   2.407   8.190   8.192
21721WAT      O65404   8.875   0.472   6.778
21721WAT     H165405   8.839   0.460   6.686
21721WAT     H265406   8.819   0.421   6.843
21722WAT      O65407   4.175   4.923   6.200
21722WAT     H165408   4.215   4.998   6.252
21722WAT     H265409   4.183   4.838   6.252
21723WAT      O65410   5.003   8.784   5.053
21723WAT     H165411   4.905   8.771   5.038
21723WAT     H265412   5.053   8.704   5.020
21724WAT      O65413   8.637   3.237   9.806
21724WAT     H165414   8.702   3.308   9.779
21724WAT     H265415   8.594   3.198   9.725
21725WAT      O65416   6.427   0.720   5.906
21725WAT     H165417   6.445   0.747   5.811
21725WAT     H265418   6.437   0.799   5.966
21726WAT      O65419   5.180   9.267   2.311
21726WAT     H165420   5.125   9.203   2.257
21726WAT     H265421   5.122   9.309   2.381
21727WAT      O65422   0.994   0.970   6.174
21727WAT     H165423   0.968   0.882   6.214
21727WAT     H265424   0.975   0.969   6.076
21728WAT      O65425   8.644   4.604   5.107
21728WAT     H165426   8.654   4.696   5.070
21728WAT     H265427   8.708   4.543   5.062
21729WAT      O65428   5.550   2.622   1.208
21729WAT     H165429   5.454   2.623   1.236
21729WAT     H265430   5.556   2.606   1.110
21730WAT      O65431   0.828   2.553   8.670
21730WAT     H165432   0.922   2.537   8.639
21730WAT     H265433   0.775   2.591   8.595
21731WAT      O65434   5.095   2.734   3.421
21731WAT     H165435   5.019   2.735   3.356
21731WAT     H265436   5.083   2.808   3.487
21732WAT      O65437   6.223   5.057   8.469
21732WAT     H165438   6.129   5.040   8.497
21732WAT     H265439   6.265   5.122   8.532
21733WAT      O65440   3.021   9.333   8.733
21733WAT     H165441   3.095   9.267   8.744
21733WAT     H265442   3.032   9.382   8.646
21734WAT      O65443   1.958   5.164   4.964
21734WAT     H165444   1.896   5.231   5.006
21734WAT     H265445   1.996   5.201   4.880
21735WAT      O65446   2.259   1.346   3.735
21735WAT     H165447   2.177   1.377   3.685
21735WAT     H265448   2.309   1.281   3.678
21736WAT      O65449   2.787   5.254   8.754
21736WAT     H165450   2.706   5.207   8.718
21736WAT     H265451   2.763   5.348   8.780
21737WAT      O65452   5.026   4.325   7.227
21737WAT     H165453   4.959   4.399   7.230
21737WAT     H265454   5.082   4.327   7.310
21738WAT      O65455   3.245   3.485   4.538
21738WAT     H165456   3.184   3.442   4.471
21738WAT     H265457   3.197   3.494   4.626
21739WAT      O65458   6.366   9.148   2.569
21739WAT     H165459   6.348   9.147   2.471
21739WAT     H265460   6.417   9.065   2.594
21740WAT      O65461   3.258   7.000   2.060
21740WAT     H165462   3.246   7.099   2.071
21740WAT     H265463   3.233   6.973   1.967
21741WAT      O65464   3.530   2.787   5.640
21741WAT     H165465   3.490   2.776   5.549
21741WAT     H265466   3.479   2.731   5.706
21742WAT      O65467   2.696   3.744   4.145
21742WAT     H165468   2.736   3.810   4.209
21742WAT     H265469   2.707   3.778   4.052
21743WAT      O65470   4.661   5.929   0.427
21743WAT     H165471   4.759   5.936   0.411
21743WAT     H265472   4.645   5.877   0.511
21744WAT      O65473   7.855   1.205   5.394
21744WAT     H165474   7.774   1.217   5.451
21744WAT     H265475   7.937   1.208   5.451
21745WAT      O65476   0.846   2.006   9.319
21745WAT     H165477   0.866   2.098   9.353
21745WAT     H265478   0.845   1.942   9.395
21746WAT      O65479   2.844   2.434   3.352
21746WAT     H165480   2.856   2.378   3.434
21746WAT     H265481   2.819   2.527   3.378
21747WAT      O65482   8.436   6.478   8.386
21747WAT     H165483   8.435   6.523   8.297
21747WAT     H265484   8.519   6.505   8.436
21748WAT      O65485   1.086   5.191   7.968
21748WAT     H165486   1.040   5.232   8.046
21748WAT     H265487   1.073   5.091   7.969
21749WAT      O65488   9.485   6.076   3.206
21749WAT     H165489   9.499   6.129   3.122
21749WAT     H265490   9.574   6.044   3.241
21750WAT      O65491   2.329   0.455   6.160
21750WAT     H165492   2.336   0.552   6.139
21750WAT     H265493   2.242   0.436   6.206
21751WAT      O65494   4.157   8.691   9.453
21751WAT     H165495   4.141   8.619   9.520
21751WAT     H265496   4.149   8.653   9.360
21752WAT      O65497   7.992   3.360   2.422
21752WAT     H165498   7.908   3.339   2.371
21752WAT     H265499   8.013   3.284   2.483
21753WAT      O65500   7.257   2.045   6.943
21753WAT     H165501   7.240   2.028   7.039
21753WAT     H265502   7.207   2.127   6.914
21754WAT      O65503   1.573   0.454   2.277
21754WAT     H165504   1.522   0.416   2.200
21754WAT     H265505   1.539   0.414   2.362
21755WAT      O65506   3.888   0.787   4.543
21755WAT     H165507   3.877   0.765   4.446
21755WAT     H265508   3.972   0.839   4.556
21756WAT      O65509   4.521   3.932   7.317
21756WAT     H165510   4.572   3.851   7.344
21756WAT     H265511   4.513   3.935   7.217
21757WAT      O65512   6.040   3.573   8.330
21757WAT     H165513   5.975   3.612   8.264
21757WAT     H265514   6.132   3.575   8.290
21758WAT      O65515   1.649   6.771   5.310
21758WAT     H165516   1.742   6.806   5.322
21758WAT     H265517   1.654   6.673   5.288
21759WAT      O65518   8.441   6.395   0.050
21759WAT     H165519   8.358   6.386   0.105
21759WAT     H265520   8.427   6.350  -0.038
21760WAT      O65521   8.176   8.349   2.382
21760WAT     H165522   8.151   8.398   2.465
21760WAT     H265523   8.103   8.356   2.315
21761WAT      O65524   1.940   5.222   8.151
21761WAT     H165525   1.938   5.265   8.061
21761WAT     H265526   2.035   5.212   8.181
21762WAT      O65527   7.936   1.198   5.989
21762WAT     H165528   7.874   1.210   6.067
21762WAT     H265529   7.940   1.101   5.964
21763WAT      O65530   8.176   1.629   9.703
21763WAT     H165531   8.108   1.702   9.689
21763WAT     H265532   8.165   1.559   9.633
21764WAT      O65533   4.249   4.594   3.710
21764WAT     H165534   4.211   4.570   3.800
21764WAT     H265535   4.225   4.688   3.688
21765WAT      O65536   2.617   2.428   5.360
21765WAT     H165537   2.532   2.465   5.398
21765WAT     H265538   2.603   2.332   5.336
21766WAT      O65539   9.859   9.173   6.988
21766WAT     H165540   9.826   9.128   7.071
21766WAT     H265541   9.825   9.125   6.908
21767WAT      O65542   4.715   7.335   7.396
21767WAT     H165543   4.675   7.422   7.369
21767WAT     H265544   4.652   7.260   7.373
21768WAT      O65545   9.045   3.029   9.678
21768WAT     H165546   9.132   3.016   9.725
21768WAT     H265547   8.974   2.977   9.724
21769WAT      O65548   2.537   4.736   6.579
21769WAT     H165549   2.494   4.658   6.625
21769WAT     H265550   2.528   4.727   6.480
21770WAT      O65551   3.699   5.724   3.790
21770WAT     H165552   3.720   5.643   3.844
21770WAT     H265553   3.783   5.773   3.768
21771WAT      O65554   7.123   8.163   4.886
21771WAT     H165555   7.164   8.253   4.871
21771WAT     H265556   7.114   8.146   4.984
21772WAT      O65557   3.491   8.890   8.933
21772WAT     H165558   3.437   8.816   8.892
21772WAT     H265559   3.577   8.852   8.967
21773WAT      O65560   1.714   2.058   8.847
21773WAT     H165561   1.714   2.090   8.752
21773WAT     H265562   1.806   2.027   8.872
21774WAT      O65563   1.049   9.709   7.271
21774WAT     H165564   1.026   9.627   7.220
21774WAT     H265565   0.975   9.732   7.335
21775WAT      O65566   7.023   9.587   7.520
21775WAT     H165567   7.047   9.539   7.435
21775WAT     H265568   6.927   9.567   7.543
21776WAT      O65569   4.361   9.421   4.122
21776WAT     H165570   4.428   9.346   4.115
21776WAT     H265571   4.389   9.496   4.062
21777WAT      O65572   5.223   4.122   1.025
21777WAT     H165573   5.307   4.101   0.975
21777WAT     H265574   5.179   4.037   1.054
21778WAT      O65575   2.001   2.479   0.800
21778WAT     H165576   2.021   2.476   0.702
21778WAT     H265577   2.074   2.432   0.850
21779WAT      O65578   6.413   7.234   1.350
21779WAT     H165579   6.408   7.137   1.375
21779WAT     H265580   6.508   7.258   1.329
21780WAT      O65581   6.363   4.385   1.176
21780WAT     H165582   6.286   4.370   1.113
21780WAT     H265583   6.373   4.305   1.235
21781WAT      O65584   2.965   1.066   5.125
21781WAT     H165585   2.894   1.133   5.105
21781WAT     H265586   3.026   1.057   5.046
21782WAT      O65587   5.835   9.198   7.062
21782WAT     H165588   5.917   9.193   7.119
21782WAT     H265589   5.854   9.160   6.972
21783WAT      O65590   0.063   2.339   7.059
21783WAT     H165591  -0.036   2.327   7.059
21783WAT     H265592   0.085   2.432   7.088
21784WAT      O65593   6.286   6.245   5.271
21784WAT     H165594   6.284   6.227   5.369
21784WAT     H265595   6.381   6.251   5.241
21785WAT      O65596   0.163   6.713   9.048
21785WAT     H165597   0.100   6.638   9.031
21785WAT     H265598   0.116   6.785   9.099
21786WAT      O65599   0.606   4.912   2.953
21786WAT     H165600   0.557   4.829   2.982
21786WAT     H265601   0.651   4.895   2.865
21787WAT      O65602   3.946   0.765   0.895
21787WAT     H165603   4.046   0.760   0.896
21787WAT     H265604   3.917   0.849   0.942
21788WAT      O65605   7.512   9.751   7.281
21788WAT     H165606   7.477   9.757   7.375
21788WAT     H265607   7.582   9.821   7.268
21789WAT      O65608   5.381   0.650   6.494
21789WAT     H165609   5.315   0.661   6.419
21789WAT     H265610   5.422   0.559   6.488
21790WAT      O65611   7.587   3.543   1.789
21790WAT     H165612   7.520   3.615   1.808
21790WAT     H265613   7.582   3.517   1.693
21791WAT      O65614   2.565   6.190   6.192
21791WAT     H165615   2.640   6.127   6.213
21791WAT     H265616   2.524   6.165   6.105
21792WAT      O65617   1.715   3.985   5.765
21792WAT     H165618   1.802   3.987   5.715
21792WAT     H265619   1.639   3.978   5.700
21793WAT      O65620   3.263   1.211   7.888
21793WAT     H165621   3.208   1.164   7.819
21793WAT     H265622   3.333   1.148   7.923
21794WAT      O65623   1.972   0.584   9.436
21794WAT     H165624   1.915   0.514   9.478
21794WAT     H265625   2.033   0.624   9.505
21795WAT      O65626   0.045   4.531   4.594
21795WAT     H165627  -0.012   4.462   4.551
21795WAT     H265628   0.127   4.546   4.539
21796WAT      O65629   1.887   8.925   5.285
21796WAT     H165630   1.883   8.975   5.372
21796WAT     H265631   1.861   8.986   5.210
21797WAT      O65632   8.184   3.279   1.792
21797WAT     H165633   8.140   3.193   1.817
21797WAT     H265634   8.230   3.317   1.872
21798WAT      O65635   5.127   0.588   7.274
21798WAT     H165636   5.140   0.524   7.199
21798WAT     H265637   5.169   0.676   7.251
21799WAT      O65638   9.791   1.220   1.317
21799WAT     H165639   9.727   1.148   1.289
21799WAT     H265640   9.752   1.309   1.296
21800WAT      O65641   7.302   3.262   8.883
21800WAT     H165642   7.337   3.356   8.876
21800WAT     H265643   7.288   3.239   8.979
21801WAT      O65644   8.874   7.113   9.306
21801WAT     H165645   8.904   7.023   9.275
21801WAT     H265646   8.879   7.178   9.230
21802WAT      O65647   8.870   1.130   7.768
21802WAT     H165648   8.911   1.220   7.749
21802WAT     H265649   8.783   1.142   7.815
21803WAT      O65650   8.259   8.988   1.737
21803WAT     H165651   8.203   8.997   1.819
21803WAT     H265652   8.353   8.968   1.762
21804WAT      O65653   6.126   4.695   3.101
21804WAT     H165654   6.203   4.740   3.146
21804WAT     H265655   6.112   4.604   3.142
21805WAT      O65656   6.481   1.822   7.187
21805WAT     H165657   6.571   1.798   7.148
21805WAT     H265658   6.442   1.898   7.135
21806WAT      O65659   4.750   7.055   3.660
21806WAT     H165660   4.708   7.104   3.736
21806WAT     H265661   4.766   7.117   3.584
21807WAT      O65662   1.882   9.513   9.661
21807WAT     H165663   1.807   9.473   9.608
21807WAT     H265664   1.964   9.519   9.604
21808WAT      O65665   7.780   3.332   5.939
21808WAT     H165666   7.753   3.340   6.035
21808WAT     H265667   7.788   3.423   5.899
21809WAT      O65668   3.922   0.911   4.255
21809WAT     H165669   3.986   0.866   4.193
21809WAT     H265670   3.846   0.848   4.276
21810WAT      O65671   7.793   0.677   0.338
21810WAT     H165672   7.740   0.607   0.387
21810WAT     H265673   7.889   0.669   0.364
21811WAT      O65674   7.244   2.520   4.185
21811WAT     H165675   7.248   2.480   4.276
21811WAT     H265676   7.291   2.609   4.185
21812WAT      O65677   3.080   9.501   4.593
21812WAT     H165678   3.154   9.531   4.653
21812WAT     H265679   3.010   9.454   4.647
21813WAT      O65680   3.209   2.077   7.386
21813WAT     H165681   3.227   2.055   7.290
21813WAT     H265682   3.113   2.060   7.407
21814WAT      O65683   0.711   5.919   1.385
21814WAT     H165684   0.808   5.894   1.389
21814WAT     H265685   0.666   5.891   1.470
21815WAT      O65686   7.832   5.454   2.034
21815WAT     H165687   7.792   5.408   2.113
21815WAT     H265688   7.931   5.466   2.048
21816WAT      O65689   6.471   3.662   7.221
21816WAT     H165690   6.374   3.670   7.245
21816WAT     H265691   6.514   3.593   7.279
21817WAT      O65692   3.936   3.078   5.899
21817WAT     H165693   3.873   3.154   5.879
21817WAT     H265694   4.030   3.107   5.879
21818WAT      O65695   4.585   8.643   2.697
21818WAT     H165696   4.641   8.584   2.756
21818WAT     H265697   4.594   8.738   2.727
21819WAT      O65698   1.324   9.317   8.633
21819WAT     H165699   1.350   9.325   8.729
21819WAT     H265700   1.243   9.259   8.625
21820WAT      O65701   8.999   9.825   8.460
21820WAT     H165702   9.064   9.770   8.408
21820WAT     H265703   8.914   9.774   8.472
21821WAT      O65704   8.830   9.658   8.906
21821WAT     H165705   8.748   9.614   8.942
21821WAT     H265706   8.900   9.662   8.977
21822WAT      O65707   0.155   0.440   4.453
21822WAT     H165708   0.145   0.341   4.457
21822WAT     H265709   0.252   0.464   4.453
21823WAT      O65710   2.913   4.608   9.047
21823WAT     H165711   2.972   4.625   9.126
21823WAT     H265712   2.969   4.584   8.968
21824WAT      O65713   5.599   6.321   6.262
21824WAT     H165714   5.623   6.387   6.191
21824WAT     H265715   5.506   6.286   6.246
21825WAT      O65716   6.709   0.732   3.415
21825WAT     H165717   6.609   0.725   3.410
21825WAT     H265718   6.735   0.814   3.465
21826WAT      O65719   7.325   5.335   8.229
21826WAT     H165720   7.406   5.389   8.250
21826WAT     H265721   7.246   5.395   8.222
21827WAT      O65722   0.340   3.316   0.863
21827WAT     H165723   0.384   3.244   0.810
21827WAT     H265724   0.374   3.405   0.832
21828WAT      O65725   7.533   6.988   6.344
21828WAT     H165726   7.456   6.932   6.375
21828WAT     H265727   7.498   7.065   6.290
21829WAT      O65728   7.635   1.114   1.483
21829WAT     H165729   7.685   1.030   1.507
21829WAT     H265730   7.609   1.111   1.386
21830WAT      O65731   7.670   7.164   0.319
21830WAT     H165732   7.645   7.199   0.229
21830WAT     H265733   7.708   7.238   0.374
21831WAT      O65734   5.148   9.037   0.424
21831WAT     H165735   5.085   8.960   0.413
21831WAT     H265736   5.236   9.003   0.458
21832WAT      O65737   9.747   3.351   2.632
21832WAT     H165738   9.827   3.349   2.572
21832WAT     H265739   9.773   3.387   2.721
21833WAT      O65740   4.988   7.503   0.004
21833WAT     H165741   5.080   7.489  -0.032
21833WAT     H265742   4.949   7.414   0.030
21834WAT      O65743   5.024   2.594   3.806
21834WAT     H165744   5.017   2.694   3.803
21834WAT     H265745   5.015   2.557   3.714
21835WAT      O65746   7.625   6.948   5.813
21835WAT     H165747   7.656   6.861   5.851
21835WAT     H265748   7.699   7.014   5.818
21836WAT      O65749   6.737   3.965   5.922
21836WAT     H165750   6.642   3.996   5.915
21836WAT     H265751   6.787   4.028   5.981
21837WAT      O65752   2.547   6.098   0.982
21837WAT     H165753   2.482   6.039   1.030
21837WAT     H265754   2.572   6.175   1.041
21838WAT      O65755   5.668   4.511   2.377
21838WAT     H165756   5.690   4.460   2.460
21838WAT     H265757   5.724   4.594   2.373
21839WAT      O65758   7.824   6.704   2.980
21839WAT     H165759   7.782   6.623   2.939
21839WAT     H265760   7.804   6.706   3.078
21840WAT      O65761   2.759   7.781   1.062
21840WAT     H165762   2.695   7.843   1.107
21840WAT     H265763   2.852   7.813   1.076
21841WAT      O65764   9.241   8.517   5.910
21841WAT     H165765   9.163   8.463   5.879
21841WAT     H265766   9.245   8.514   6.010
21842WAT      O65767   6.646   6.442   8.909
21842WAT     H165768   6.650   6.463   9.007
21842WAT     H265769   6.636   6.527   8.857
21843WAT      O65770   7.505   5.541   9.224
21843WAT     H165771   7.567   5.544   9.303
21843WAT     H265772   7.474   5.447   9.209
21844WAT      O65773   0.086   7.989   8.333
21844WAT     H165774   0.081   7.958   8.238
21844WAT     H265775   0.031   7.929   8.391
21845WAT      O65776   4.468   8.023   6.130
21845WAT     H165777   4.374   7.997   6.150
21845WAT     H265778   4.512   8.057   6.213
21846WAT      O65779   4.071   4.359   9.126
21846WAT     H165780   4.005   4.434   9.116
21846WAT     H265781   4.030   4.285   9.178
21847WAT      O65782   1.213   4.515   9.702
21847WAT     H165783   1.119   4.486   9.680
21847WAT     H265784   1.267   4.518   9.619
21848WAT      O65785   8.137   1.355   5.257
21848WAT     H165786   8.138   1.272   5.202
21848WAT     H265787   8.209   1.417   5.226
21849WAT      O65788   4.230   3.503   1.768
21849WAT     H165789   4.311   3.501   1.711
21849WAT     H265790   4.165   3.570   1.732
21850WAT      O65791   0.161   0.825   1.603
21850WAT     H165792   0.112   0.746   1.567
21850WAT     H265793   0.147   0.829   1.702
21851WAT      O65794   6.064   7.725   3.941
21851WAT     H165795   6.024   7.652   3.885
21851WAT     H265796   6.017   7.811   3.922
21852WAT      O65797   6.594   4.502   3.449
21852WAT     H165798   6.557   4.593   3.463
21852WAT     H265799   6.652   4.477   3.527
21853WAT      O65800   6.286   7.562   2.347
21853WAT     H165801   6.271   7.629   2.420
21853WAT     H265802   6.327   7.607   2.268
21854WAT      O65803   1.255   3.941   4.148
21854WAT     H165804   1.281   4.008   4.218
21854WAT     H265805   1.233   3.854   4.192
21855WAT      O65806   6.915   6.841   8.853
21855WAT     H165807   6.862   6.832   8.938
21855WAT     H265808   7.003   6.884   8.873
21856WAT      O65809   6.783   9.035   1.965
21856WAT     H165810   6.827   8.996   1.884
21856WAT     H265811   6.807   8.981   2.046
21857WAT      O65812   0.232   0.776   9.201
21857WAT     H165813   0.143   0.804   9.166
21857WAT     H265814   0.303   0.794   9.133
21858WAT      O65815   0.304   9.414   0.529
21858WAT     H165816   0.392   9.366   0.532
21858WAT     H265817   0.300   9.479   0.604
21859WAT      O65818   6.292   8.768   7.365
21859WAT     H165819   6.204   8.721   7.361
21859WAT     H265820   6.365   8.706   7.335
21860WAT      O65821   0.547   4.577   4.258
21860WAT     H165822   0.537   4.479   4.244
21860WAT     H265823   0.643   4.603   4.247
21861WAT      O65824   0.952   9.374   5.909
21861WAT     H165825   1.030   9.364   5.848
21861WAT     H265826   0.884   9.434   5.868
21862WAT      O65827   3.669   1.088   0.752
21862WAT     H165828   3.716   1.092   0.840
21862WAT     H265829   3.730   1.122   0.680
21863WAT      O65830   4.803   1.382   8.534
21863WAT     H165831   4.721   1.336   8.500
21863WAT     H265832   4.864   1.404   8.457
21864WAT      O65833   1.985   3.350   9.870
21864WAT     H165834   1.942   3.426   9.821
21864WAT     H265835   1.965   3.264   9.822
21865WAT      O65836   1.866   3.861   9.305
21865WAT     H165837   1.933   3.932   9.283
21865WAT     H265838   1.890   3.777   9.257
21866WAT      O65839   5.390   3.366   0.388
21866WAT     H165840   5.395   3.390   0.291
21866WAT     H265841   5.411   3.269   0.400
21867WAT      O65842   9.704   1.309   6.745
21867WAT     H165843   9.781   1.258   6.708
21867WAT     H265844   9.647   1.248   6.800
21868WAT      O65845   6.119   7.669   8.514
21868WAT     H165846   6.216   7.691   8.510
21868WAT     H265847   6.066   7.749   8.485
21869WAT      O65848   0.094   7.671   6.059
21869WAT     H165849   0.155   7.688   5.982
21869WAT     H265850   0.105   7.576   6.091
21870WAT      O65851   8.389   6.160   2.067
21870WAT     H165852   8.362   6.223   1.993
21870WAT     H265853   8.312   6.149   2.130
21871WAT      O65854   9.057   4.368   4.208
21871WAT     H165855   8.972   4.365   4.155
21871WAT     H265856   9.099   4.459   4.198
21872WAT      O65857   2.607   4.012   8.082
21872WAT     H165858   2.611   4.000   8.181
21872WAT     H265859   2.527   3.964   8.046
21873WAT      O65860   2.571   7.172   3.854
21873WAT     H165861   2.484   7.124   3.862
21873WAT     H265862   2.643   7.107   3.830
21874WAT      O65863   1.056   8.847   9.537
21874WAT     H165864   1.012   8.798   9.462
21874WAT     H265865   1.013   8.820   9.623
21875WAT      O65866   3.373   3.921   5.526
21875WAT     H165867   3.406   3.994   5.587
21875WAT     H265868   3.283   3.890   5.558
21876WAT      O65869   0.145   1.944   5.407
21876WAT     H165870   0.223   2.007   5.408
21876WAT     H265871   0.153   1.883   5.328
21877WAT      O65872   7.132   9.107   8.661
21877WAT     H165873   7.120   9.196   8.705
21877WAT     H265874   7.156   9.120   8.565
21878WAT      O65875   2.664   6.170   8.677
21878WAT     H165876   2.685   6.103   8.607
21878WAT     H265877   2.600   6.130   8.743
21879WAT      O65878   5.900   2.341   7.564
21879WAT     H165879   5.986   2.387   7.541
21879WAT     H265880   5.921   2.253   7.607
21880WAT      O65881   0.899   6.629   6.861
21880WAT     H165882   0.934   6.665   6.947
21880WAT     H265883   0.954   6.550   6.834
21881WAT      O65884   7.496   8.954   0.742
21881WAT     H165885   7.465   9.006   0.822
21881WAT     H265886   7.428   8.960   0.669
21882WAT      O65887   8.383   9.497   8.053
21882WAT     H165888   8.395   9.457   8.144
21882WAT     H265889   8.402   9.595   8.057
21883WAT      O65890   3.212   1.693   9.245
21883WAT     H165891   3.139   1.715   9.180
21883WAT     H265892   3.180   1.620   9.306
21884WAT      O65893   4.943   4.830   9.876
21884WAT     H165894   4.847   4.832   9.901
21884WAT     H265895   4.966   4.912   9.823
21885WAT      O65896   1.031   1.814   1.706
21885WAT     H165897   1.114   1.859   1.738
21885WAT     H265898   1.056   1.729   1.658
21886WAT      O65899   3.034   2.953   4.237
21886WAT     H165900   2.975   2.875   4.258
21886WAT     H265901   2.977   3.033   4.217
21887WAT      O65902   1.504   4.277   1.244
21887WAT     H165903   1.509   4.344   1.170
21887WAT     H265904   1.593   4.269   1.289
21888WAT      O65905   1.954   6.273   0.041
21888WAT     H165906   1.985   6.224   0.122
21888WAT     H265907   1.913   6.360   0.069
21889WAT      O65908   0.348   6.124   6.178
21889WAT     H165909   0.325   6.198   6.241
21889WAT     H265910   0.441   6.137   6.144
21890WAT      O65911   1.312   1.667   4.624
21890WAT     H165912   1.271   1.630   4.541
21890WAT     H265913   1.365   1.595   4.669
21891WAT      O65914   4.220   7.617   1.377
21891WAT     H165915   4.305   7.652   1.416
21891WAT     H265916   4.157   7.592   1.452
21892WAT      O65917   0.333   4.632   9.349
21892WAT     H165918   0.269   4.586   9.411
21892WAT     H265919   0.355   4.723   9.386
21893WAT      O65920   1.559   5.959   7.594
21893WAT     H165921   1.522   6.050   7.576
21893WAT     H265922   1.566   5.946   7.693
21894WAT      O65923   6.502   5.828   5.500
21894WAT     H165924   6.436   5.856   5.429
21894WAT     H265925   6.484   5.881   5.584
21895WAT      O65926   3.735   9.187   2.484
21895WAT     H165927   3.689   9.210   2.398
21895WAT     H265928   3.744   9.269   2.540
21896WAT      O65929   7.319   9.222   9.794
21896WAT     H165930   7.259   9.229   9.874
21896WAT     H265931   7.414   9.218   9.825
21897WAT      O65932   2.247   1.187   0.239
21897WAT     H165933   2.341   1.179   0.204
21897WAT     H265934   2.249   1.209   0.336
21898WAT      O65935   0.099   8.627   1.451
21898WAT     H165936   0.190   8.587   1.442
21898WAT     H265937   0.093   8.710   1.394
21899WAT      O65938   5.182   3.262   2.480
21899WAT     H165939   5.181   3.163   2.487
21899WAT     H265940   5.089   3.297   2.490
21900WAT      O65941   4.520   5.057   7.930
21900WAT     H165942   4.517   5.014   8.021
21900WAT     H265943   4.571   4.998   7.867
21901WAT      O65944   5.017   3.659   5.929
21901WAT     H165945   5.035   3.660   6.027
21901WAT     H265946   5.086   3.713   5.881
21902WAT      O65947   2.812   2.514   6.967
21902WAT     H165948   2.771   2.520   7.059
21902WAT     H265949   2.767   2.579   6.906
21903WAT      O65950   8.574   7.015   0.932
21903WAT     H165951   8.631   7.004   1.013
21903WAT     H265952   8.478   7.006   0.958
21904WAT      O65953   3.959   0.330   4.593
21904WAT     H165954   4.053   0.338   4.561
21904WAT     H265955   3.939   0.406   4.656
21905WAT      O65956   3.857   8.511   9.229
21905WAT     H165957   3.947   8.471   9.214
21905WAT     H265958   3.787   8.443   9.210
21906WAT      O65959   8.029   7.213   9.358
21906WAT     H165960   8.046   7.294   9.300
21906WAT     H265961   7.994   7.243   9.447
21907WAT      O65962   9.241   5.337   1.150
21907WAT     H165963   9.291   5.361   1.067
21907WAT     H265964   9.195   5.418   1.186
21908WAT      O65965   9.219   3.410   0.926
21908WAT     H165966   9.234   3.386   1.021
21908WAT     H265967   9.120   3.414   0.907
21909WAT      O65968   5.797   5.344   2.918
21909WAT     H165969   5.865   5.372   2.985
21909WAT     H265970   5.724   5.293   2.964
21910WAT      O65971   5.155   5.110   0.741
21910WAT     H165972   5.208   5.188   0.777
21910WAT     H265973   5.218   5.039   0.710
21911WAT      O65974   3.198   8.050   6.140
21911WAT     H165975   3.163   7.966   6.183
21911WAT     H265976   3.169   8.129   6.192
21912WAT      O65977   2.190   9.378   4.790
21912WAT     H165978   2.260   9.421   4.847
21912WAT     H265979   2.229   9.300   4.742
21913WAT      O65980   4.208   0.125   4.836
21913WAT     H165981   4.130   0.122   4.898
21913WAT     H265982   4.227   0.219   4.809
21914WAT      O65983   2.647   8.691   9.303
21914WAT     H165984   2.608   8.600   9.288
21914WAT     H265985   2.584   8.746   9.357
21915WAT      O65986   3.790   6.407   4.313
21915WAT     H165987   3.768   6.382   4.407
21915WAT     H265988   3.706   6.429   4.264
21916WAT      O65989   2.922   2.152   5.162
21916WAT     H165990   2.833   2.150   5.207
21916WAT     H265991   2.940   2.064   5.120
21917WAT      O65992   5.400   0.045   4.761
21917WAT     H165993   5.369   0.063   4.667
21917WAT     H265994   5.387   0.128   4.816
21918WAT      O65995   2.486   5.038   1.201
21918WAT     H165996   2.455   4.990   1.283
21918WAT     H265997   2.406   5.073   1.151
21919WAT      O65998   8.866   5.682   7.805
21919WAT     H165999   8.809   5.764   7.815
21919WAT     H266000   8.961   5.709   7.791
21920WAT      O66001   1.666   5.897   0.440
21920WAT     H166002   1.645   5.968   0.507
21920WAT     H266003   1.711   5.938   0.360
21921WAT      O66004   1.751   5.031   7.484
21921WAT     H166005   1.790   4.945   7.450
21921WAT     H266006   1.824   5.097   7.500
21922WAT      O66007   1.087   4.839   6.437
21922WAT     H166008   1.170   4.895   6.440
21922WAT     H266009   1.054   4.832   6.343
21923WAT      O66010   9.702   5.254   7.893
21923WAT     H166011   9.782   5.196   7.904
21923WAT     H266012   9.634   5.231   7.963
21924WAT      O66013   5.241   1.644   6.158
21924WAT     H166014   5.232   1.741   6.133
21924WAT     H266015   5.167   1.619   6.220
21925WAT      O66016   8.474   9.545   9.229
21925WAT     H166017   8.399   9.585   9.282
21925WAT     H266018   8.469   9.446   9.233
21926WAT      O66019   6.233   1.650   4.233
21926WAT     H166020   6.241   1.704   4.150
21926WAT     H266021   6.138   1.651   4.264
21927WAT      O66022   7.976   2.840   4.799
21927WAT     H166023   7.996   2.799   4.888
21927WAT     H266024   8.002   2.936   4.801
21928WAT      O66025   7.347   2.561   9.614
21928WAT     H166026   7.297   2.541   9.698
21928WAT     H266027   7.284   2.595   9.544
21929WAT      O66028   5.329   0.897   5.686
21929WAT     H166029   5.288   0.825   5.630
21929WAT     H266030   5.427   0.902   5.668
21930WAT      O66031   1.999   9.100   3.998
21930WAT     H166032   1.903   9.104   3.972
21930WAT     H266033   2.039   9.192   3.992
21931WAT      O66034   5.408   9.001   9.313
21931WAT     H166035   5.407   9.008   9.412
21931WAT     H266036   5.406   9.092   9.273
21932WAT      O66037   0.832   3.753   4.678
21932WAT     H166038   0.896   3.797   4.615
21932WAT     H266039   0.870   3.753   4.771
21933WAT      O66040   3.553   2.945   7.553
21933WAT     H166041   3.468   2.992   7.580
21933WAT     H266042   3.617   2.945   7.630
21934WAT      O66043   1.575   0.303   7.441
21934WAT     H166044   1.562   0.327   7.537
21934WAT     H266045   1.645   0.232   7.433
21935WAT      O66046   8.485   3.931   4.316
21935WAT     H166047   8.508   3.929   4.219
21935WAT     H266048   8.462   4.024   4.344
21936WAT      O66049   4.402   1.478   6.969
21936WAT     H166050   4.334   1.405   6.962
21936WAT     H266051   4.356   1.563   6.997
21937WAT      O66052   9.356   3.735   4.139
21937WAT     H166053   9.414   3.654   4.153
21937WAT     H266054   9.336   3.746   4.042
21938WAT      O66055   1.236   0.918   7.491
21938WAT     H166056   1.193   0.914   7.581
21938WAT     H266057   1.323   0.868   7.494
21939WAT      O66058   2.863   9.776   2.328
21939WAT     H166059   2.848   9.871   2.303
21939WAT     H266060   2.801   9.717   2.277
21940WAT      O66061   2.088   4.008   2.593
21940WAT     H166062   2.134   3.928   2.556
21940WAT     H266063   2.133   4.036   2.678
21941WAT      O66064   9.806   1.831   2.445
21941WAT     H166065   9.717   1.873   2.465
21941WAT     H266066   9.867   1.846   2.523
21942WAT      O66067   3.999   2.805   8.366
21942WAT     H166068   3.969   2.899   8.380
21942WAT     H266069   4.090   2.805   8.324
21943WAT      O66070   0.015   0.554   7.132
21943WAT     H166071  -0.008   0.497   7.053
21943WAT     H266072   0.114   0.574   7.132
21944WAT      O66073   1.277   0.773   4.110
21944WAT     H166074   1.267   0.865   4.073
21944WAT     H266075   1.353   0.726   4.063
21945WAT      O66076   3.318   5.746   8.891
21945WAT     H166077   3.348   5.713   8.802
21945WAT     H266078   3.326   5.846   8.894
21946WAT      O66079   8.010   4.731   8.432
21946WAT     H166080   7.946   4.799   8.396
21946WAT     H266081   8.079   4.778   8.488
21947WAT      O66082   6.186   1.711   8.729
21947WAT     H166083   6.219   1.797   8.767
21947WAT     H266084   6.264   1.651   8.711
21948WAT      O66085   9.128   0.079   5.044
21948WAT     H166086   9.099   0.003   4.986
21948WAT     H266087   9.228   0.082   5.047
21949WAT      O66088   5.994   5.197   9.691
21949WAT     H166089   5.909   5.245   9.668
21949WAT     H266090   5.982   5.150   9.779
21950WAT      O66091   3.420   5.479   3.088
21950WAT     H166092   3.455   5.511   3.176
21950WAT     H266093   3.430   5.379   3.082
21951WAT      O66094   1.047   6.354   7.462
21951WAT     H166095   0.961   6.403   7.479
21951WAT     H266096   1.030   6.279   7.398
21952WAT      O66097   4.785   8.996   3.894
21952WAT     H166098   4.729   8.913   3.890
21952WAT     H266099   4.851   8.996   3.819
21953WAT      O66100   1.321   5.928   3.312
21953WAT     H166101   1.370   5.861   3.368
21953WAT     H266102   1.247   5.969   3.365
21954WAT      O66103   5.533   0.197   4.522
21954WAT     H166104   5.579   0.218   4.608
21954WAT     H266105   5.459   0.263   4.507
21955WAT      O66106   6.629   3.676   4.496
21955WAT     H166107   6.681   3.614   4.437
21955WAT     H266108   6.683   3.695   4.579
21956WAT      O66109   4.393   7.076   4.008
21956WAT     H166110   4.486   7.075   3.972
21956WAT     H266111   4.389   7.022   4.092
21957WAT      O66112   3.645   0.443   3.423
21957WAT     H166113   3.617   0.420   3.330
21957WAT     H266114   3.636   0.363   3.481
21958WAT      O66115   0.174   3.953   3.096
21958WAT     H166116   0.214   3.862   3.090
21958WAT     H266117   0.247   4.022   3.095
21959WAT      O66118   6.998   3.589   2.858
21959WAT     H166119   7.030   3.683   2.846
21959WAT     H266120   7.068   3.525   2.824
21960WAT      O66121   4.155   3.410   1.127
21960WAT     H166122   4.228   3.448   1.069
21960WAT     H266123   4.127   3.479   1.193
21961WAT      O66124   9.803   2.128   0.527
21961WAT     H166125   9.741   2.091   0.597
21961WAT     H266126   9.813   2.226   0.540
21962WAT      O66127   1.892   5.083   2.080
21962WAT     H166128   1.799   5.056   2.108
21962WAT     H266129   1.892   5.179   2.053
21963WAT      O66130   6.838   2.091   8.891
21963WAT     H166131   6.866   1.997   8.873
21963WAT     H266132   6.912   2.154   8.867
21964WAT      O66133   2.995   0.364   0.697
21964WAT     H166134   3.015   0.440   0.759
21964WAT     H266135   2.935   0.395   0.623
21965WAT      O66136   0.497   9.456   8.923
21965WAT     H166137   0.512   9.532   8.860
21965WAT     H266138   0.509   9.369   8.875
21966WAT      O66139   1.112   0.496   8.025
21966WAT     H166140   1.186   0.432   8.005
21966WAT     H266141   1.071   0.527   7.939
21967WAT      O66142   3.876   2.893   2.185
21967WAT     H166143   3.825   2.962   2.134
21967WAT     H266144   3.812   2.833   2.233
21968WAT      O66145   4.619   3.089   6.090
21968WAT     H166146   4.664   3.124   6.173
21968WAT     H266147   4.559   3.160   6.053
21969WAT      O66148   3.999   7.065   9.100
21969WAT     H166149   3.994   6.989   9.035
21969WAT     H266150   3.943   7.141   9.067
21970WAT      O66151   1.997   3.263   8.378
21970WAT     H166152   2.000   3.167   8.352
21970WAT     H266153   1.947   3.272   8.464
21971WAT      O66154   0.953   6.949   0.753
21971WAT     H166155   1.024   6.973   0.687
21971WAT     H266156   0.870   7.002   0.733
21972WAT      O66157   1.435   3.314   3.526
21972WAT     H166158   1.503   3.242   3.534
21972WAT     H266159   1.406   3.322   3.430
21973WAT      O66160   6.998   7.586   0.996
21973WAT     H166161   7.063   7.556   0.927
21973WAT     H266162   6.912   7.612   0.953
21974WAT      O66163   9.710   4.663   4.348
21974WAT     H166164   9.707   4.616   4.259
21974WAT     H266165   9.705   4.762   4.333
21975WAT      O66166   1.533   2.640   8.045
21975WAT     H166167   1.569   2.579   7.975
21975WAT     H266168   1.479   2.588   8.111
21976WAT      O66169   7.727   2.839   0.856
21976WAT     H166170   7.641   2.883   0.883
21976WAT     H266171   7.722   2.812   0.760
21977WAT      O66172   8.160   4.151   6.200
21977WAT     H166173   8.135   4.059   6.169
21977WAT     H266174   8.203   4.144   6.291
21978WAT      O66175   9.034   5.329   0.858
21978WAT     H166176   9.058   5.426   0.866
21978WAT     H266177   9.057   5.297   0.767
21979WAT      O66178   1.104   8.225   4.557
21979WAT     H166179   1.080   8.303   4.500
21979WAT     H266180   1.111   8.254   4.653
21980WAT      O66181   2.963   6.445   5.702
21980WAT     H166182   2.895   6.476   5.635
21980WAT     H266183   2.976   6.347   5.693
21981WAT      O66184   1.162   0.343   0.585
21981WAT     H166185   1.165   0.354   0.684
21981WAT     H266186   1.181   0.431   0.541
21982WAT      O66187   9.843   5.210   2.036
21982WAT     H166188   9.749   5.211   2.000
21982WAT     H266189   9.841   5.232   2.133
21983WAT      O66190   7.347   6.914   2.343
21983WAT     H166191   7.445   6.896   2.355
21983WAT     H266192   7.334   6.986   2.276
21984WAT      O66193   3.800   5.812   6.169
21984WAT     H166194   3.739   5.807   6.089
21984WAT     H266195   3.835   5.720   6.188
21985WAT      O66196   5.810   9.474   7.057
21985WAT     H166197   5.755   9.507   7.134
21985WAT     H266198   5.795   9.376   7.044
21986WAT      O66199   5.845   7.690   1.955
21986WAT     H166200   5.884   7.600   1.977
21986WAT     H266201   5.810   7.689   1.862
21987WAT      O66202   5.937   0.606   1.696
21987WAT     H166203   5.850   0.584   1.740
21987WAT     H266204   5.987   0.671   1.753
21988WAT      O66205   2.559   2.386   7.940
21988WAT     H166206   2.537   2.314   8.006
21988WAT     H266207   2.506   2.371   7.857
21989WAT      O66208   6.273   9.701   5.758
21989WAT     H166209   6.244   9.797   5.749
21989WAT     H266210   6.366   9.691   5.722
21990WAT      O66211   0.520   4.533   0.231
21990WAT     H166212   0.435   4.509   0.278
21990WAT     H266213   0.596   4.528   0.295
21991WAT      O66214   8.957   1.699   6.116
21991WAT     H166215   8.942   1.605   6.085
21991WAT     H266216   8.938   1.763   6.042
21992WAT      O66217   2.386   0.060   2.940
21992WAT     H166218   2.378  -0.035   2.909
21992WAT     H266219   2.359   0.121   2.866
21993WAT      O66220   8.916   5.031   0.100
21993WAT     H166221   9.002   5.054   0.146
21993WAT     H266222   8.839   5.060   0.156
21994WAT      O66223   1.391   4.193   2.720
21994WAT     H166224   1.381   4.237   2.809
21994WAT     H266225   1.488   4.184   2.698
21995WAT      O66226   7.828   4.208   5.094
21995WAT     H166227   7.790   4.298   5.074
21995WAT     H266228   7.879   4.175   5.014
21996WAT      O66229   6.545   4.532   2.373
21996WAT     H166230   6.542   4.432   2.376
21996WAT     H266231   6.460   4.569   2.410
21997WAT      O66232   7.542   1.271   0.438
21997WAT     H166233   7.495   1.217   0.368
21997WAT     H266234   7.580   1.209   0.507
21998WAT      O66235   5.434   0.591   9.778
21998WAT     H166236   5.488   0.637   9.849
21998WAT     H266237   5.364   0.533   9.821
21999WAT      O66238   1.584   6.383   3.208
21999WAT     H166239   1.516   6.334   3.153
21999WAT     H266240   1.597   6.475   3.171
22000WAT      O66241   1.820   3.946   8.536
22000WAT     H166242   1.909   3.926   8.494
22000WAT     H266243   1.834   3.977   8.630
22001WAT      O66244   5.192   0.867   7.601
22001WAT     H166245   5.281   0.865   7.556
22001WAT     H266246   5.199   0.915   7.688
22002WAT      O66247   6.941   0.705   1.787
22002WAT     H166248   7.016   0.672   1.844
22002WAT     H266249   6.972   0.714   1.693
22003WAT      O66250   1.738   5.725   7.096
22003WAT     H166251   1.780   5.634   7.103
22003WAT     H266252   1.674   5.737   7.172
22004WAT      O66253   1.152   7.699   1.779
22004WAT     H166254   1.083   7.749   1.726
22004WAT     H266255   1.231   7.758   1.795
22005WAT      O66256   5.225   8.260   7.442
22005WAT     H166257   5.180   8.183   7.487
22005WAT     H266258   5.318   8.234   7.416
22006WAT      O66259   8.045   7.234   2.919
22006WAT     H166260   7.991   7.282   2.850
22006WAT     H266261   8.142   7.258   2.908
22007WAT      O66262   3.047   2.428   1.302
22007WAT     H166263   2.973   2.459   1.243
22007WAT     H266264   3.056   2.490   1.380
22008WAT      O66265   7.099   7.514   8.739
22008WAT     H166266   7.017   7.567   8.761
22008WAT     H266267   7.178   7.575   8.734
22009WAT      O66268   4.099   6.928   4.147
22009WAT     H166269   4.124   6.873   4.067
22009WAT     H266270   4.181   6.945   4.203
22010WAT      O66271   0.946   3.824   9.293
22010WAT     H166272   0.885   3.752   9.261
22010WAT     H266273   1.028   3.827   9.235
22011WAT      O66274   5.428   9.541   7.073
22011WAT     H166275   5.386   9.629   7.049
22011WAT     H266276   5.505   9.557   7.135
22012WAT      O66277   0.766   5.146   3.816
22012WAT     H166278   0.724   5.110   3.900
22012WAT     H266279   0.818   5.228   3.838
22013WAT      O66280   0.248   8.163   0.060
22013WAT     H166281   0.314   8.228   0.024
22013WAT     H266282   0.229   8.093  -0.009
22014WAT      O66283   5.162   4.074   2.556
22014WAT     H166284   5.230   4.146   2.571
22014WAT     H266285   5.187   3.993   2.608
22015WAT      O66286   5.911   3.708   9.770
22015WAT     H166287   5.841   3.641   9.746
22015WAT     H266288   5.966   3.673   9.846
22016WAT      O66289   2.723   4.242   8.001
22016WAT     H166290   2.650   4.293   7.955
22016WAT     H266291   2.689   4.152   8.029
22017WAT      O66292   0.015   2.141   1.261
22017WAT     H166293   0.007   2.048   1.299
22017WAT     H266294  -0.077   2.178   1.246
22018WAT      O66295   7.831   5.783   8.737
22018WAT     H166296   7.744   5.821   8.766
22018WAT     H266297   7.855   5.818   8.647
22019WAT      O66298   5.466   6.909   7.496
22019WAT     H166299   5.409   6.962   7.559
22019WAT     H266300   5.409   6.870   7.424
22020WAT      O66301   1.160   3.778   0.916
22020WAT     H166302   1.234   3.716   0.945
22020WAT     H266303   1.084   3.724   0.881
22021WAT      O66304   9.339   2.076   2.787
22021WAT     H166305   9.399   2.131   2.729
22021WAT     H266306   9.360   2.093   2.883
22022WAT      O66307   1.130   2.910   7.672
22022WAT     H166308   1.181   2.996   7.663
22022WAT     H266309   1.170   2.855   7.745
22023WAT      O66310   5.456   9.160   6.202
22023WAT     H166311   5.542   9.172   6.250
22023WAT     H266312   5.384   9.137   6.268
22024WAT      O66313   9.245   2.544   1.099
22024WAT     H166314   9.156   2.499   1.103
22024WAT     H266315   9.232   2.641   1.078
22025WAT      O66316   6.470   9.804   1.762
22025WAT     H166317   6.447   9.707   1.768
22025WAT     H266318   6.558   9.814   1.715
22026WAT      O66319   5.727   3.489   5.858
22026WAT     H166320   5.785   3.556   5.906
22026WAT     H266321   5.661   3.538   5.801
22027WAT      O66322   1.969   3.444   2.336
22027WAT     H166323   2.044   3.425   2.400
22027WAT     H266324   1.970   3.376   2.263
22028WAT      O66325   9.542   4.716   8.463
22028WAT     H166326   9.600   4.797   8.472
22028WAT     H266327   9.533   4.691   8.367
22029WAT      O66328   6.369   9.417   2.671
22029WAT     H166329   6.456   9.459   2.645
22029WAT     H266330   6.365   9.324   2.633
22030WAT      O66331   7.299   9.065   4.386
22030WAT     H166332   7.204   9.095   4.382
22030WAT     H266333   7.316   8.996   4.315
22031WAT      O66334   2.958   5.339   7.666
22031WAT     H166335   2.868   5.383   7.663
22031WAT     H266336   2.999   5.353   7.756
22032WAT      O66337   0.415   7.696   1.337
22032WAT     H166338   0.434   7.791   1.310
22032WAT     H266339   0.321   7.673   1.312
22033WAT      O66340   0.171   2.530   4.626
22033WAT     H166341   0.110   2.480   4.688
22033WAT     H266342   0.181   2.624   4.657
22034WAT      O66343   2.725   8.158   7.265
22034WAT     H166344   2.711   8.257   7.268
22034WAT     H266345   2.755   8.126   7.354
22035WAT      O66346   3.869   1.701   2.650
22035WAT     H166347   3.784   1.701   2.597
22035WAT     H266348   3.941   1.655   2.597
22036WAT      O66349   4.211   9.022   7.364
22036WAT     H166350   4.182   9.099   7.421
22036WAT     H266351   4.262   9.057   7.285
22037WAT      O66352   5.204   8.212   2.462
22037WAT     H166353   5.268   8.251   2.529
22037WAT     H266354   5.129   8.277   2.447
22038WAT      O66355   1.777   3.332   0.890
22038WAT     H166356   1.710   3.261   0.870
22038WAT     H266357   1.767   3.407   0.825
22039WAT      O66358   2.343   9.427   5.635
22039WAT     H166359   2.322   9.337   5.595
22039WAT     H266360   2.436   9.425   5.672
22040WAT      O66361   2.189   3.713   2.771
22040WAT     H166362   2.217   3.736   2.678
22040WAT     H266363   2.104   3.662   2.769
22041WAT      O66364   9.508   6.363   6.639
22041WAT     H166365   9.526   6.459   6.659
22041WAT     H266366   9.426   6.333   6.688
22042WAT      O66367   8.204   1.966   5.151
22042WAT     H166368   8.210   1.896   5.222
22042WAT     H266369   8.108   1.990   5.137
22043WAT      O66370   5.719   7.716   9.085
22043WAT     H166371   5.755   7.690   9.175
22043WAT     H266372   5.693   7.634   9.034
22044WAT      O66373   4.811   2.589   7.898
22044WAT     H166374   4.757   2.511   7.930
22044WAT     H266375   4.749   2.663   7.870
22045WAT      O66376   0.607   3.333   5.282
22045WAT     H166377   0.544   3.411   5.282
22045WAT     H266378   0.625   3.307   5.187
22046WAT      O66379   5.284   2.209   6.535
22046WAT     H166380   5.256   2.129   6.480
22046WAT     H266381   5.379   2.233   6.511
22047WAT      O66382   5.922   1.029   0.743
22047WAT     H166383   5.874   0.952   0.785
22047WAT     H266384   5.990   1.065   0.806
22048WAT      O66385   8.441   5.521   5.608
22048WAT     H166386   8.383   5.588   5.562
22048WAT     H266387   8.537   5.537   5.585
22049WAT      O66388   0.293   6.333   0.463
22049WAT     H166389   0.331   6.335   0.555
22049WAT     H266390   0.244   6.418   0.445
22050WAT      O66391   0.515   6.338   8.273
22050WAT     H166392   0.497   6.361   8.177
22050WAT     H266393   0.587   6.269   8.278
22051WAT      O66394   5.214   7.287   7.429
22051WAT     H166395   5.125   7.331   7.443
22051WAT     H266396   5.202   7.188   7.426
22052WAT      O66397   7.858   8.389   0.025
22052WAT     H166398   7.773   8.398   0.076
22052WAT     H266399   7.928   8.447   0.065
22053WAT      O66400   2.171   1.490   6.136
22053WAT     H166401   2.239   1.426   6.099
22053WAT     H266402   2.217   1.553   6.200
22054WAT      O66403   4.887   4.496   0.655
22054WAT     H166404   4.807   4.486   0.596
22054WAT     H266405   4.908   4.408   0.697
22055WAT      O66406   0.808   8.499   7.965
22055WAT     H166407   0.880   8.450   8.014
22055WAT     H266408   0.838   8.517   7.871
22056WAT      O66409   4.204   5.655   3.805
22056WAT     H166410   4.162   5.686   3.890
22056WAT     H266411   4.137   5.604   3.751
22057WAT      O66412   0.015   2.027   8.803
22057WAT     H166413  -0.026   1.995   8.888
22057WAT     H266414   0.083   2.098   8.824
22058WAT      O66415   5.505   2.457   0.314
22058WAT     H166416   5.436   2.528   0.307
22058WAT     H266417   5.542   2.456   0.407
22059WAT      O66418   3.047   8.011   8.803
22059WAT     H166419   3.063   7.914   8.821
22059WAT     H266420   2.995   8.051   8.879
22060WAT      O66421   5.901   1.184   7.195
22060WAT     H166422   5.969   1.115   7.171
22060WAT     H266423   5.909   1.262   7.133
22061WAT      O66424   7.522   9.788   0.092
22061WAT     H166425   7.466   9.719   0.137
22061WAT     H266426   7.590   9.742   0.034
22062WAT      O66427   9.109   6.947   0.133
22062WAT     H166428   9.118   6.879   0.061
22062WAT     H266429   9.015   6.950   0.166
22063WAT      O66430   3.342   8.381   7.132
22063WAT     H166431   3.300   8.434   7.059
22063WAT     H266432   3.437   8.411   7.145
22064WAT      O66433   2.156   3.132   8.831
22064WAT     H166434   2.213   3.192   8.774
22064WAT     H266435   2.191   3.133   8.924
22065WAT      O66436   2.052   9.257   5.262
22065WAT     H166437   2.024   9.198   5.337
22065WAT     H266438   2.015   9.348   5.275
22066WAT      O66439   6.082   8.661   5.258
22066WAT     H166440   6.016   8.710   5.315
22066WAT     H266441   6.086   8.566   5.287
22067WAT      O66442   1.573   0.215   1.375
22067WAT     H166443   1.595   0.191   1.281
22067WAT     H266444   1.646   0.182   1.435
22068WAT      O66445   6.935   7.455   1.382
22068WAT     H166446   6.914   7.553   1.387
22068WAT     H266447   6.859   7.407   1.338
22069WAT      O66448   7.953   5.621   9.200
22069WAT     H166449   7.904   5.708   9.208
22069WAT     H266450   7.967   5.582   9.291
22070WAT      O66451   7.202   3.656   8.127
22070WAT     H166452   7.258   3.737   8.106
22070WAT     H266453   7.109   3.670   8.094
22071WAT      O66454   6.299   9.781   9.752
22071WAT     H166455   6.320   9.868   9.797
22071WAT     H266456   6.249   9.798   9.667
22072WAT      O66457   3.197   3.439   2.316
22072WAT     H166458   3.138   3.432   2.236
22072WAT     H266459   3.224   3.534   2.329
22073WAT      O66460   6.488   2.904   0.474
22073WAT     H166461   6.388   2.900   0.473
22073WAT     H266462   6.525   2.811   0.476
22074WAT      O66463   4.639   6.379   2.426
22074WAT     H166464   4.551   6.416   2.396
22074WAT     H266465   4.660   6.297   2.372
22075WAT      O66466   6.307   8.214   2.896
22075WAT     H166467   6.361   8.286   2.853
22075WAT     H266468   6.349   8.189   2.984
22076WAT      O66469   8.973   1.925   9.758
22076WAT     H166470   8.953   1.834   9.793
22076WAT     H266471   9.071   1.937   9.749
22077WAT      O66472   9.561   4.465   7.382
22077WAT     H166473   9.481   4.461   7.442
22077WAT     H266474   9.569   4.379   7.332
22078WAT      O66475   2.390   8.425   2.400
22078WAT     H166476   2.367   8.448   2.494
22078WAT     H266477   2.448   8.498   2.361
22079WAT      O66478   1.118   9.752   7.733
22079WAT     H166479   1.205   9.792   7.703
22079WAT     H266480   1.052   9.825   7.751
22080WAT      O66481   7.042   9.734   3.956
22080WAT     H166482   7.073   9.784   3.875
22080WAT     H266483   7.115   9.732   4.024
22081WAT      O66484   8.470   1.546   9.597
22081WAT     H166485   8.405   1.574   9.526
22081WAT     H266486   8.545   1.611   9.602
22082WAT      O66487   1.248   8.146   6.464
22082WAT     H166488   1.315   8.092   6.413
22082WAT     H266489   1.294   8.195   6.538
22083WAT      O66490   9.320   7.533   3.624
22083WAT     H166491   9.318   7.562   3.528
22083WAT     H266492   9.245   7.578   3.674
22084WAT      O66493   9.571   0.060   0.531
22084WAT     H166494   9.548   0.008   0.448
22084WAT     H266495   9.652   0.020   0.574
22085WAT      O66496   7.648   5.438   7.483
22085WAT     H166497   7.586   5.403   7.412
22085WAT     H266498   7.612   5.524   7.519
22086WAT      O66499   3.724   0.180   8.862
22086WAT     H166500   3.682   0.090   8.871
22086WAT     H266501   3.661   0.249   8.899
22087WAT      O66502   6.562   4.632   9.341
22087WAT     H166503   6.635   4.604   9.404
22087WAT     H266504   6.477   4.643   9.392
22088WAT      O66505   1.344   9.367   0.135
22088WAT     H166506   1.281   9.363   0.057
22088WAT     H266507   1.302   9.321   0.213
22089WAT      O66508   0.396   0.833   9.019
22089WAT     H166509   0.477   0.884   9.048
22089WAT     H266510   0.424   0.759   8.958
22090WAT      O66511   3.708   0.559   5.797
22090WAT     H166512   3.731   0.639   5.852
22090WAT     H266513   3.693   0.587   5.702
22091WAT      O66514   6.515   2.253   4.446
22091WAT     H166515   6.437   2.315   4.458
22091WAT     H266516   6.539   2.213   4.534
22092WAT      O66517   5.083   0.219   3.093
22092WAT     H166518   5.080   0.170   3.181
22092WAT     H266519   5.058   0.155   3.020
22093WAT      O66520   9.517   3.117   4.247
22093WAT     H166521   9.454   3.161   4.311
22093WAT     H266522   9.556   3.035   4.289
22094WAT      O66523   7.732   6.626   0.648
22094WAT     H166524   7.811   6.567   0.632
22094WAT     H266525   7.695   6.609   0.740
22095WAT      O66526   7.980   0.670   1.617
22095WAT     H166527   7.996   0.580   1.657
22095WAT     H266528   8.057   0.730   1.637
22096WAT      O66529   4.907   9.329   3.459
22096WAT     H166530   4.923   9.366   3.551
22096WAT     H266531   4.949   9.238   3.453
22097WAT      O66532   4.680   5.247   2.804
22097WAT     H166533   4.670   5.221   2.708
22097WAT     H266534   4.766   5.210   2.839
22098WAT      O66535   2.373   9.712   5.139
22098WAT     H166536   2.392   9.643   5.209
22098WAT     H266537   2.277   9.742   5.147
22099WAT      O66538   1.086   7.232   1.134
22099WAT     H166539   1.136   7.220   1.220
22099WAT     H266540   1.149   7.262   1.062
22100WAT      O66541   1.743   7.184   7.274
22100WAT     H166542   1.772   7.092   7.246
22100WAT     H266543   1.802   7.252   7.233
22101WAT      O66544   9.761   5.253   7.409
22101WAT     H166545   9.728   5.290   7.322
22101WAT     H266546   9.779   5.156   7.399
22102WAT      O66547   2.684   8.915   8.372
22102WAT     H166548   2.666   8.989   8.308
22102WAT     H266549   2.776   8.925   8.409
22103WAT      O66550   1.192   3.894   4.766
22103WAT     H166551   1.283   3.934   4.754
22103WAT     H266552   1.124   3.954   4.724
22104WAT      O66553   2.752   1.217   2.683
22104WAT     H166554   2.742   1.120   2.661
22104WAT     H266555   2.755   1.270   2.599
22105WAT      O66556   7.613   1.944   6.037
22105WAT     H166557   7.659   1.866   6.078
22105WAT     H266558   7.680   2.012   6.009
22106WAT      O66559   8.221   3.801   2.937
22106WAT     H166560   8.146   3.867   2.932
22106WAT     H266561   8.305   3.849   2.961
22107WAT      O66562   3.500   7.236   4.205
22107WAT     H166563   3.422   7.290   4.171
22107WAT     H266564   3.580   7.254   4.148
22108WAT      O66565   1.112   1.363   8.599
22108WAT     H166566   1.091   1.460   8.612
22108WAT     H266567   1.164   1.330   8.677
22109WAT      O66568   1.862   9.802   1.233
22109WAT     H166569   1.908   9.831   1.316
22109WAT     H266570   1.831   9.707   1.242
22110WAT      O66571   9.294   8.004   7.315
22110WAT     H166572   9.242   8.041   7.238
22110WAT     H266573   9.252   7.918   7.345
22111WAT      O66574   1.347   7.522   3.888
22111WAT     H166575   1.303   7.537   3.976
22111WAT     H266576   1.438   7.565   3.888
22112WAT      O66577   5.758   9.354   3.940
22112WAT     H166578   5.809   9.278   3.979
22112WAT     H266579   5.735   9.334   3.845
22113WAT      O66580   7.104   8.760   1.338
22113WAT     H166581   7.038   8.829   1.306
22113WAT     H266582   7.153   8.796   1.417
22114WAT      O66583   9.579   9.556   4.989
22114WAT     H166584   9.625   9.594   4.910
22114WAT     H266585   9.566   9.458   4.977
22115WAT      O66586   4.409   9.363   3.239
22115WAT     H166587   4.446   9.442   3.191
22115WAT     H266588   4.383   9.389   3.332
22116WAT      O66589   4.717   0.008   3.428
22116WAT     H166590   4.792  -0.022   3.487
22116WAT     H266591   4.633  -0.039   3.456
22117WAT      O66592   9.687   1.489   1.905
22117WAT     H166593   9.748   1.494   1.984
22117WAT     H266594   9.739   1.505   1.821
22118WAT      O66595   0.576   3.693   5.400
22118WAT     H166596   0.629   3.778   5.402
22118WAT     H266597   0.481   3.713   5.424
22119WAT      O66598   2.493   8.616   1.007
22119WAT     H166599   2.587   8.649   0.995
22119WAT     H266600   2.441   8.681   1.062
22120WAT      O66601   7.093   5.297   6.890
22120WAT     H166602   7.005   5.299   6.938
22120WAT     H266603   7.157   5.359   6.935
22121WAT      O66604   5.119   8.894   1.895
22121WAT     H166605   5.063   8.970   1.863
22121WAT     H266606   5.192   8.928   1.954
22122WAT      O66607   1.313   8.818   1.753
22122WAT     H166608   1.263   8.768   1.824
22122WAT     H266609   1.322   8.914   1.780
22123WAT      O66610   1.880   5.620   2.787
22123WAT     H166611   1.978   5.598   2.787
22123WAT     H266612   1.846   5.620   2.692
22124WAT      O66613   4.828   2.021   7.306
22124WAT     H166614   4.871   2.086   7.369
22124WAT     H266615   4.745   1.984   7.347
22125WAT      O66616   8.636   2.419   6.811
22125WAT     H166617   8.539   2.432   6.793
22125WAT     H266618   8.661   2.323   6.794
22126WAT      O66619   2.382   0.057   0.584
22126WAT     H166620   2.463   0.036   0.639
22126WAT     H266621   2.407   0.056   0.487
22127WAT      O66622   4.358   0.363   7.569
22127WAT     H166623   4.358   0.398   7.663
22127WAT     H266624   4.374   0.264   7.570
22128WAT      O66625   1.066   1.931   0.483
22128WAT     H166626   1.008   1.928   0.564
22128WAT     H266627   1.016   1.976   0.409
22129WAT      O66628   9.418   6.905   1.931
22129WAT     H166629   9.358   6.958   1.990
22129WAT     H266630   9.369   6.825   1.895
22130WAT      O66631   8.139   0.441   4.242
22130WAT     H166632   8.139   0.541   4.242
22130WAT     H266633   8.233   0.407   4.247
22131WAT      O66634   9.666   1.217   7.630
22131WAT     H166635   9.724   1.138   7.608
22131WAT     H266636   9.619   1.247   7.547
22132WAT      O66637   7.462   4.919   8.627
22132WAT     H166638   7.444   5.011   8.591
22132WAT     H266639   7.376   4.870   8.638
22133WAT      O66640   4.819   6.782   4.202
22133WAT     H166641   4.790   6.689   4.226
22133WAT     H266642   4.916   6.782   4.179
22134WAT      O66643   6.113   6.634   3.001
22134WAT     H166644   6.023   6.677   3.013
22134WAT     H266645   6.102   6.543   2.961
22135WAT      O66646   4.814   6.001   6.629
22135WAT     H166647   4.843   5.947   6.550
22135WAT     H266648   4.778   6.089   6.599
22136WAT      O66649   5.806   2.672   9.867
22136WAT     H166650   5.881   2.735   9.890
22136WAT     H266651   5.843   2.579   9.857
22137WAT      O66652   3.815   7.865   5.728
22137WAT     H166653   3.808   7.958   5.690
22137WAT     H266654   3.821   7.871   5.827
22138WAT      O66655   9.198   3.596   3.460
22138WAT     H166656   9.239   3.642   3.381
22138WAT     H266657   9.261   3.526   3.494
22139WAT      O66658   4.334   0.389   9.653
22139WAT     H166659   4.265   0.400   9.726
22139WAT     H266660   4.292   0.343   9.575
22140WAT      O66661   8.893   2.873   3.420
22140WAT     H166662   8.884   2.969   3.392
22140WAT     H266663   8.802   2.832   3.428
22141WAT      O66664   7.993   9.250   2.926
22141WAT     H166665   8.074   9.290   2.883
22141WAT     H266666   7.917   9.315   2.923
22142WAT      O66667   2.009   5.355   3.869
22142WAT     H166668   2.054   5.377   3.782
22142WAT     H266669   1.910   5.367   3.859
22143WAT      O66670   9.561   3.991   5.287
22143WAT     H166671   9.652   4.006   5.249
22143WAT     H266672   9.493   4.034   5.228
22144WAT      O66673   6.484   4.132   3.757
22144WAT     H166674   6.437   4.123   3.669
22144WAT     H266675   6.416   4.149   3.829
22145WAT      O66676   7.611   8.585   0.519
22145WAT     H166677   7.575   8.612   0.608
22145WAT     H266678   7.553   8.514   0.480
22146WAT      O66679   6.223   3.006   1.804
22146WAT     H166680   6.124   2.991   1.803
22146WAT     H266681   6.243   3.102   1.787
22147WAT      O66682   4.914   3.140   5.411
22147WAT     H166683   5.011   3.146   5.433
22147WAT     H266684   4.883   3.226   5.371
22148WAT      O66685   5.571   0.837   8.861
22148WAT     H166686   5.551   0.905   8.932
22148WAT     H266687   5.567   0.882   8.771
22149WAT      O66688   2.958   0.645   4.283
22149WAT     H166689   2.936   0.740   4.304
22149WAT     H266690   2.904   0.584   4.340
22150WAT      O66691   1.752   0.465   2.954
22150WAT     H166692   1.671   0.477   2.898
22150WAT     H266693   1.725   0.453   3.050
22151WAT      O66694   4.961   0.185   9.238
22151WAT     H166695   5.039   0.123   9.239
22151WAT     H266696   4.877   0.133   9.223
22152WAT      O66697   4.054   6.671   0.841
22152WAT     H166698   4.064   6.639   0.747
22152WAT     H266699   4.144   6.698   0.877
22153WAT      O66700   2.881   6.044   6.811
22153WAT     H166701   2.814   6.050   6.738
22153WAT     H266702   2.969   6.015   6.773
22154WAT      O66703   9.158   3.456   1.869
22154WAT     H166704   9.093   3.409   1.810
22154WAT     H266705   9.217   3.389   1.914
22155WAT      O66706   1.440   3.068   8.588
22155WAT     H166707   1.379   3.097   8.515
22155WAT     H266708   1.423   2.972   8.611
22156WAT      O66709   0.961   6.845   4.079
22156WAT     H166710   0.912   6.803   4.155
22156WAT     H266711   1.052   6.873   4.109
22157WAT      O66712   1.628   0.161   5.602
22157WAT     H166713   1.563   0.148   5.528
22157WAT     H266714   1.624   0.256   5.633
22158WAT      O66715   1.177   5.544   8.858
22158WAT     H166716   1.250   5.515   8.920
22158WAT     H266717   1.089   5.516   8.896
22159WAT      O66718   6.305   4.804   0.563
22159WAT     H166719   6.313   4.729   0.498
22159WAT     H266720   6.227   4.862   0.539
22160WAT      O66721   6.968   5.251   4.684
22160WAT     H166722   7.037   5.236   4.755
22160WAT     H266723   6.879   5.267   4.727
22161WAT      O66724   7.397   0.409   8.481
22161WAT     H166725   7.337   0.347   8.532
22161WAT     H266726   7.383   0.395   8.383
22162WAT      O66727   6.638   7.933   5.643
22162WAT     H166728   6.667   7.869   5.572
22162WAT     H266729   6.539   7.926   5.655
22163WAT      O66730   0.217   6.416   1.596
22163WAT     H166731   0.221   6.515   1.607
22163WAT     H266732   0.143   6.379   1.653
22164WAT      O66733   1.188   1.910   8.922
22164WAT     H166734   1.192   1.816   8.955
22164WAT     H266735   1.263   1.963   8.961
22165WAT      O66736   9.029   7.743   6.845
22165WAT     H166737   8.936   7.759   6.814
22165WAT     H266738   9.047   7.797   6.927
22166WAT      O66739   7.493   6.188   7.988
22166WAT     H166740   7.480   6.100   7.943
22166WAT     H266741   7.589   6.199   8.014
22167WAT      O66742   4.622   6.378   6.301
22167WAT     H166743   4.717   6.373   6.269
22167WAT     H266744   4.561   6.346   6.229
22168WAT      O66745   0.535   2.697   6.526
22168WAT     H166746   0.617   2.726   6.476
22168WAT     H266747   0.559   2.682   6.622
22169WAT      O66748   8.780   8.061   4.526
22169WAT     H166749   8.768   7.985   4.589
22169WAT     H266750   8.691   8.087   4.488
22170WAT      O66751   4.158   4.645   7.342
22170WAT     H166752   4.104   4.655   7.258
22170WAT     H266753   4.246   4.604   7.321
22171WAT      O66754   6.497   7.432   0.507
22171WAT     H166755   6.436   7.380   0.447
22171WAT     H266756   6.590   7.396   0.499
22172WAT      O66757   4.134   9.470   8.069
22172WAT     H166758   4.110   9.444   7.976
22172WAT     H266759   4.075   9.544   8.100
22173WAT      O66760   7.695   1.048   0.640
22173WAT     H166761   7.715   0.982   0.713
22173WAT     H266762   7.639   1.004   0.569
22174WAT      O66763   4.841   9.484   4.364
22174WAT     H166764   4.800   9.510   4.451
22174WAT     H266765   4.835   9.384   4.353
22175WAT      O66766   0.562   1.135   4.283
22175WAT     H166767   0.650   1.180   4.288
22175WAT     H266768   0.517   1.157   4.197
22176WAT      O66769   6.150   6.046   5.992
22176WAT     H166770   6.166   6.023   5.896
22176WAT     H266771   6.180   5.969   6.049
22177WAT      O66772   6.566   9.679   8.746
22177WAT     H166773   6.573   9.632   8.834
22177WAT     H266774   6.496   9.750   8.751
22178WAT      O66775   3.391   5.823   5.897
22178WAT     H166776   3.343   5.768   5.965
22178WAT     H266777   3.325   5.865   5.835
22179WAT      O66778   1.618   2.285   7.438
22179WAT     H166779   1.559   2.297   7.359
22179WAT     H266780   1.698   2.230   7.413
22180WAT      O66781   2.388   1.428   7.606
22180WAT     H166782   2.430   1.366   7.539
22180WAT     H266783   2.310   1.383   7.649
22181WAT      O66784   9.066   4.879   9.558
22181WAT     H166785   9.108   4.874   9.648
22181WAT     H266786   8.968   4.863   9.566
22182WAT      O66787   3.382   2.822   0.871
22182WAT     H166788   3.470   2.805   0.916
22182WAT     H266789   3.315   2.755   0.903
22183WAT      O66790   6.947   6.160   3.495
22183WAT     H166791   6.848   6.169   3.505
22183WAT     H266792   6.968   6.104   3.415
22184WAT      O66793   9.801   0.761   1.266
22184WAT     H166794   9.793   0.815   1.350
22184WAT     H266795   9.745   0.803   1.195
22185WAT      O66796   3.468   8.284   9.581
22185WAT     H166797   3.562   8.306   9.605
22185WAT     H266798   3.415   8.267   9.665
22186WAT      O66799   5.453   9.025   0.439
22186WAT     H166800   5.427   8.948   0.497
22186WAT     H266801   5.481   9.102   0.497
22187WAT      O66802   6.730   9.317   4.789
22187WAT     H166803   6.646   9.266   4.770
22187WAT     H266804   6.767   9.354   4.704
22188WAT      O66805   9.819   9.528   1.197
22188WAT     H166806   9.803   9.626   1.205
22188WAT     H266807   9.849   9.492   1.285
22189WAT      O66808   2.586   4.725   6.994
22189WAT     H166809   2.668   4.753   6.943
22189WAT     H266810   2.514   4.793   6.980
22190WAT      O66811   6.909   6.172   0.693
22190WAT     H166812   6.933   6.086   0.649
22190WAT     H266813   6.810   6.187   0.688
22191WAT      O66814   7.362   4.590   9.451
22191WAT     H166815   7.287   4.627   9.396
22191WAT     H266816   7.439   4.654   9.448
22192WAT      O66817   7.690   9.408   1.307
22192WAT     H166818   7.619   9.454   1.360
22192WAT     H266819   7.736   9.340   1.364
22193WAT      O66820   1.175   4.233   8.796
22193WAT     H166821   1.237   4.229   8.718
22193WAT     H266822   1.093   4.285   8.770
22194WAT      O66823   6.534   7.763   3.474
22194WAT     H166824   6.443   7.761   3.432
22194WAT     H266825   6.558   7.672   3.507
22195WAT      O66826   6.875   9.535   8.771
22195WAT     H166827   6.780   9.551   8.744
22195WAT     H266828   6.923   9.623   8.777
22196WAT      O66829   5.253   9.819   3.318
22196WAT     H166830   5.282   9.742   3.375
22196WAT     H266831   5.253   9.792   3.222
22197WAT      O66832   6.799   7.940   2.062
22197WAT     H166833   6.745   7.923   1.979
22197WAT     H266834   6.744   7.992   2.127
22198WAT      O66835   5.559   2.953   1.463
22198WAT     H166836   5.501   3.028   1.496
22198WAT     H266837   5.505   2.869   1.461
22199WAT      O66838   0.603   4.730   3.613
22199WAT     H166839   0.592   4.707   3.516
22199WAT     H266840   0.515   4.759   3.650
22200WAT      O66841   7.957   3.730   9.314
22200WAT     H166842   8.033   3.781   9.356
22200WAT     H266843   7.983   3.701   9.222
22201WAT      O66844   0.687   6.447   2.032
22201WAT     H166845   0.617   6.465   2.101
22201WAT     H266846   0.738   6.364   2.057
22202WAT      O66847   3.376   3.952   9.425
22202WAT     H166848   3.472   3.939   9.401
22202WAT     H266849   3.324   3.869   9.402
22203WAT      O66850   6.847   9.239   6.084
22203WAT     H166851   6.805   9.269   6.169
22203WAT     H266852   6.818   9.146   6.063
22204WAT      O66853   7.007   6.180   2.645
22204WAT     H166854   6.920   6.228   2.639
22204WAT     H266855   7.016   6.117   2.568
22205WAT      O66856   6.109   4.069   4.838
22205WAT     H166857   6.110   4.157   4.790
22205WAT     H266858   6.023   4.022   4.819
22206WAT      O66859   6.012   5.002   3.879
22206WAT     H166860   6.109   5.023   3.876
22206WAT     H266861   5.996   4.909   3.847
22207WAT      O66862   4.422   3.239   9.171
22207WAT     H166863   4.487   3.307   9.205
22207WAT     H266864   4.333   3.283   9.156
22208WAT      O66865   5.445   7.518   3.589
22208WAT     H166866   5.539   7.526   3.620
22208WAT     H266867   5.382   7.534   3.665
22209WAT      O66868   9.561   1.848   1.776
22209WAT     H166869   9.564   1.751   1.803
22209WAT     H266870   9.578   1.856   1.678
22210WAT      O66871   2.650   7.950   1.898
22210WAT     H166872   2.622   8.006   1.977
22210WAT     H266873   2.588   7.872   1.890
22211WAT      O66874   7.428   5.668   8.729
22211WAT     H166875   7.423   5.691   8.631
22211WAT     H266876   7.481   5.737   8.777
22212WAT      O66877   3.257   2.766   6.370
22212WAT     H166878   3.292   2.753   6.277
22212WAT     H266879   3.177   2.826   6.367
22213WAT      O66880   4.122   0.362   1.465
22213WAT     H166881   4.022   0.371   1.464
22213WAT     H266882   4.154   0.349   1.558
22214WAT      O66883   6.787   0.701   8.980
22214WAT     H166884   6.797   0.614   9.028
22214WAT     H266885   6.691   0.716   8.956
22215WAT      O66886   8.729   7.504   8.966
22215WAT     H166887   8.825   7.512   8.993
22215WAT     H266888   8.689   7.596   8.960
22216WAT      O66889   5.338   3.261   1.117
22216WAT     H166890   5.351   3.307   1.028
22216WAT     H266891   5.284   3.178   1.103
22217WAT      O66892   1.478   3.340   7.648
22217WAT     H166893   1.480   3.319   7.550
22217WAT     H266894   1.444   3.433   7.661
22218WAT      O66895   9.140   1.837   5.015
22218WAT     H166896   9.112   1.749   5.052
22218WAT     H266897   9.177   1.894   5.088
22219WAT      O66898   9.216   5.677   8.390
22219WAT     H166899   9.167   5.657   8.474
22219WAT     H266900   9.270   5.596   8.363
22220WAT      O66901   2.676   8.818   4.576
22220WAT     H166902   2.599   8.788   4.520
22220WAT     H266903   2.643   8.843   4.667
22221WAT      O66904   1.507   3.799   6.259
22221WAT     H166905   1.440   3.726   6.250
22221WAT     H266906   1.597   3.760   6.278
22222WAT      O66907   3.396   6.411   7.248
22222WAT     H166908   3.299   6.435   7.259
22222WAT     H266909   3.449   6.458   7.318
22223WAT      O66910   4.392   4.542   8.572
22223WAT     H166911   4.479   4.542   8.523
22223WAT     H266912   4.407   4.517   8.667
22224WAT      O66913   2.862   5.961   4.770
22224WAT     H166914   2.841   5.893   4.699
22224WAT     H266915   2.953   5.999   4.755
22225WAT      O66916   9.222   4.742   2.600
22225WAT     H166917   9.219   4.651   2.559
22225WAT     H266918   9.285   4.741   2.678
22226WAT      O66919   9.632   8.872   1.427
22226WAT     H166920   9.700   8.874   1.353
22226WAT     H266921   9.668   8.919   1.507
22227WAT      O66922   1.444   2.462   6.608
22227WAT     H166923   1.514   2.523   6.571
22227WAT     H266924   1.363   2.515   6.632
22228WAT      O66925   6.588   2.642   9.105
22228WAT     H166926   6.492   2.670   9.096
22228WAT     H266927   6.622   2.612   9.016
22229WAT      O66928   2.877   3.118   9.718
22229WAT     H166929   2.941   3.101   9.643
22229WAT     H266930   2.816   3.039   9.729
22230WAT      O66931   4.463   5.620   0.527
22230WAT     H166932   4.398   5.651   0.596
22230WAT     H266933   4.418   5.610   0.439
22231WAT      O66934   2.542   1.483   4.822
22231WAT     H166935   2.458   1.445   4.861
22231WAT     H266936   2.520   1.530   4.736
22232WAT      O66937   6.809   3.218   2.592
22232WAT     H166938   6.742   3.144   2.601
22232WAT     H266939   6.828   3.235   2.495
22233WAT      O66940   8.932   0.278   8.898
22233WAT     H166941   8.989   0.199   8.880
22233WAT     H266942   8.979   0.361   8.868
22234WAT      O66943   2.485   0.005   9.228
22234WAT     H166944   2.392  -0.026   9.209
22234WAT     H266945   2.482   0.098   9.264
22235WAT      O66946   2.974   6.856   8.324
22235WAT     H166947   2.979   6.787   8.252
22235WAT     H266948   3.060   6.906   8.329
22236WAT      O66949   0.928   4.106   3.263
22236WAT     H166950   0.912   4.142   3.355
22236WAT     H266951   1.016   4.059   3.262
22237WAT      O66952   5.046   0.826   7.918
22237WAT     H166953   5.065   0.744   7.972
22237WAT     H266954   4.947   0.836   7.907
22238WAT      O66955   1.194   0.564   5.474
22238WAT     H166956   1.142   0.648   5.456
22238WAT     H266957   1.204   0.552   5.572
22239WAT      O66958   7.665   3.089   1.122
22239WAT     H166959   7.615   3.101   1.207
22239WAT     H266960   7.761   3.113   1.136
22240WAT      O66961   1.085   0.761   9.084
22240WAT     H166962   1.105   0.739   8.989
22240WAT     H266963   1.065   0.677   9.134
22241WAT      O66964   5.847   3.077   3.849
22241WAT     H166965   5.875   3.170   3.825
22241WAT     H266966   5.750   3.076   3.871
22242WAT      O66967   7.070   7.745   9.826
22242WAT     H166968   7.076   7.658   9.777
22242WAT     H266969   7.059   7.727   9.924
22243WAT      O66970   7.886   9.681   9.077
22243WAT     H166971   7.880   9.624   9.159
22243WAT     H266972   7.982   9.691   9.050
22244WAT      O66973   8.163   8.430   2.679
22244WAT     H166974   8.103   8.353   2.657
22244WAT     H266975   8.163   8.446   2.777
22245WAT      O66976   3.602   1.589   9.362
22245WAT     H166977   3.553   1.673   9.382
22245WAT     H266978   3.556   1.540   9.288
22246WAT      O66979   5.461   1.412   8.609
22246WAT     H166980   5.493   1.493   8.658
22246WAT     H266981   5.452   1.336   8.672
22247WAT      O66982   2.832   6.868   6.162
22247WAT     H166983   2.820   6.948   6.104
22247WAT     H266984   2.924   6.831   6.150
22248WAT      O66985   4.359   8.475   0.274
22248WAT     H166986   4.280   8.425   0.238
22248WAT     H266987   4.362   8.466   0.374
22249WAT      O66988   7.565   7.492   4.710
22249WAT     H166989   7.589   7.441   4.628
22249WAT     H266990   7.647   7.536   4.748
22250WAT      O66991   5.778   4.565   1.658
22250WAT     H166992   5.720   4.591   1.581
22250WAT     H266993   5.778   4.465   1.667
22251WAT      O66994   7.478   4.483   1.409
22251WAT     H166995   7.419   4.450   1.483
22251WAT     H266996   7.436   4.564   1.367
22252WAT      O66997   0.609   3.445   7.934
22252WAT     H166998   0.631   3.348   7.929
22252WAT     H266999   0.691   3.497   7.958
22253WAT      O67000   4.004   1.929   1.303
22253WAT     H167001   4.009   2.023   1.338
22253WAT     H267002   3.922   1.884   1.339
22254WAT      O67003   5.693   4.002   5.702
22254WAT     H167004   5.718   4.087   5.657
22254WAT     H267005   5.727   4.003   5.796
22255WAT      O67006   7.269   0.875   3.212
22255WAT     H167007   7.260   0.973   3.231
22255WAT     H267008   7.290   0.861   3.116
22256WAT      O67009   1.694   9.072   8.147
22256WAT     H167010   1.719   8.998   8.085
22256WAT     H267011   1.686   9.036   8.240
22257WAT      O67012   0.693   4.369   2.958
22257WAT     H167013   0.602   4.404   2.934
22257WAT     H267014   0.727   4.311   2.884
22258WAT      O67015   9.265   5.227   5.177
22258WAT     H167016   9.246   5.246   5.081
22258WAT     H267017   9.324   5.299   5.214
22259WAT      O67018   1.653   9.433   9.559
22259WAT     H167019   1.584   9.388   9.616
22259WAT     H267020   1.639   9.407   9.463
22260WAT      O67021   2.438   4.552   4.116
22260WAT     H167022   2.371   4.615   4.076
22260WAT     H267023   2.530   4.581   4.091
22261WAT      O67024   9.851   3.747   6.630
22261WAT     H167025   9.765   3.795   6.649
22261WAT     H267026   9.912   3.806   6.577
22262WAT      O67027   3.167   6.946   8.062
22262WAT     H167028   3.203   6.860   8.026
22262WAT     H267029   3.069   6.952   8.039
22263WAT      O67030   4.505   0.938   3.817
22263WAT     H167031   4.431   0.945   3.884
22263WAT     H267032   4.560   0.857   3.838
22264WAT      O67033   1.921   0.239   1.164
22264WAT     H167034   1.891   0.145   1.181
22264WAT     H267035   1.868   0.278   1.089
22265WAT      O67036   7.891   7.369   7.261
22265WAT     H167037   7.920   7.453   7.305
22265WAT     H267038   7.853   7.389   7.171
22266WAT      O67039   2.298   7.763   5.815
22266WAT     H167040   2.224   7.829   5.798
22266WAT     H267041   2.365   7.805   5.876
22267WAT      O67042   9.678   2.344   0.695
22267WAT     H167043   9.689   2.266   0.756
22267WAT     H267044   9.697   2.428   0.746
22268WAT      O67045   8.494   3.519   1.656
22268WAT     H167046   8.462   3.462   1.580
22268WAT     H267047   8.421   3.525   1.725
22269WAT      O67048   5.805   1.557   4.742
22269WAT     H167049   5.875   1.567   4.671
22269WAT     H267050   5.715   1.576   4.703
22270WAT      O67051   9.584   7.567   6.754
22270WAT     H167052   9.683   7.559   6.751
22270WAT     H267053   9.546   7.544   6.664
22271WAT      O67054   1.843   7.098   0.106
22271WAT     H167055   1.780   7.154   0.052
22271WAT     H267056   1.804   7.008   0.121
22272WAT      O67057   2.155   4.921   8.125
22272WAT     H167058   2.205   4.974   8.193
22272WAT     H267059   2.195   4.830   8.117
22273WAT      O67060   0.157   8.900   3.777
22273WAT     H167061   0.128   8.814   3.818
22273WAT     H267062   0.125   8.904   3.682
22274WAT      O67063   1.585   3.580   0.076
22274WAT     H167064   1.612   3.509   0.142
22274WAT     H267065   1.486   3.594   0.080
22275WAT      O67066   9.869   2.973   4.476
22275WAT     H167067   9.944   2.914   4.447
22275WAT     H267068   9.886   3.066   4.444
22276WAT      O67069   6.222   6.638   8.451
22276WAT     H167070   6.209   6.647   8.353
22276WAT     H267071   6.240   6.727   8.492
22277WAT      O67072   0.935   2.123   3.630
22277WAT     H167073   0.838   2.107   3.649
22277WAT     H267074   0.946   2.216   3.593
22278WAT      O67075   5.971   8.753   0.040
22278WAT     H167076   5.899   8.804   0.087
22278WAT     H267077   6.055   8.808   0.037
22279WAT      O67078   5.628   5.338   6.020
22279WAT     H167079   5.717   5.312   5.982
22279WAT     H267080   5.555   5.311   5.957
22280WAT      O67081   4.549   2.689   1.589
22280WAT     H167082   4.584   2.596   1.606
22280WAT     H267083   4.606   2.755   1.637
22281WAT      O67084   5.711   8.634   1.889
22281WAT     H167085   5.766   8.614   1.970
22281WAT     H267086   5.674   8.549   1.852
22282WAT      O67087   0.432   8.883   8.326
22282WAT     H167088   0.487   8.964   8.347
22282WAT     H267089   0.478   8.801   8.360
22283WAT      O67090   6.481   4.922   5.183
22283WAT     H167091   6.547   4.897   5.113
22283WAT     H267092   6.444   5.013   5.164
22284WAT      O67093   5.166   1.796   9.567
22284WAT     H167094   5.102   1.865   9.533
22284WAT     H267095   5.248   1.840   9.602
22285WAT      O67096   6.063   8.092   9.487
22285WAT     H167097   6.011   8.009   9.468
22285WAT     H267098   6.135   8.102   9.418
22286WAT      O67099   1.770   2.408   5.366
22286WAT     H167100   1.798   2.315   5.391
22286WAT     H267101   1.791   2.424   5.270
22287WAT      O67102   0.588   9.144   8.369
22287WAT     H167103   0.628   9.180   8.285
22287WAT     H267104   0.593   9.213   8.441
22288WAT      O67105   0.122   0.686   7.926
22288WAT     H167106   0.178   0.769   7.924
22288WAT     H267107   0.169   0.613   7.876
22289WAT      O67108   5.901   6.565   8.048
22289WAT     H167109   5.855   6.481   8.076
22289WAT     H267110   5.834   6.626   8.004
22290WAT      O67111   4.258   0.273   0.449
22290WAT     H167112   4.287   0.278   0.353
22290WAT     H267113   4.170   0.226   0.454
22291WAT      O67114   2.964   9.576   6.132
22291WAT     H167115   3.001   9.665   6.159
22291WAT     H267116   2.873   9.589   6.092
22292WAT      O67117   9.441   0.534   1.931
22292WAT     H167118   9.467   0.615   1.984
22292WAT     H267119   9.445   0.555   1.833
22293WAT      O67120   7.132   7.209   5.058
22293WAT     H167121   7.040   7.175   5.040
22293WAT     H267122   7.183   7.142   5.112
22294WAT      O67123   2.535   4.301   0.984
22294WAT     H167124   2.592   4.334   0.909
22294WAT     H267125   2.564   4.209   1.010
22295WAT      O67126   0.810   8.923   5.638
22295WAT     H167127   0.828   8.825   5.630
22295WAT     H267128   0.715   8.942   5.613
22296WAT      O67129   4.109   4.837   3.665
22296WAT     H167130   4.130   4.886   3.750
22296WAT     H267131   4.016   4.800   3.670
22297WAT      O67132   1.044   7.188   0.215
22297WAT     H167133   1.093   7.230   0.292
22297WAT     H267134   1.108   7.138   0.158
22298WAT      O67135   8.050   4.710   9.704
22298WAT     H167136   7.991   4.721   9.784
22298WAT     H267137   7.997   4.674   9.628
22299WAT      O67138   2.039   8.349   3.470
22299WAT     H167139   2.129   8.360   3.512
22299WAT     H267140   2.009   8.254   3.477
22300WAT      O67141   3.698   0.904   0.516
22300WAT     H167142   3.742   0.871   0.433
22300WAT     H267143   3.735   0.994   0.541
22301WAT      O67144   4.491   8.898   9.022
22301WAT     H167145   4.558   8.835   9.062
22301WAT     H267146   4.441   8.852   8.949
22302WAT      O67147   1.160   8.114   4.080
22302WAT     H167148   1.117   8.106   3.989
22302WAT     H267149   1.089   8.123   4.149
22303WAT      O67150   0.183   7.428   6.169
22303WAT     H167151   0.207   7.331   6.168
22303WAT     H267152   0.256   7.479   6.215
22304WAT      O67153   6.276   0.793   8.076
22304WAT     H167154   6.325   0.830   8.155
22304WAT     H267155   6.181   0.823   8.078
22305WAT      O67156   6.489   1.584   8.114
22305WAT     H167157   6.549   1.538   8.179
22305WAT     H267158   6.395   1.553   8.128
22306WAT      O67159   6.835   9.800   8.010
22306WAT     H167160   6.908   9.734   7.997
22306WAT     H267161   6.830   9.826   8.107
22307WAT      O67162   2.122   2.146   9.356
22307WAT     H167163   2.221   2.146   9.337
22307WAT     H267164   2.073   2.177   9.275
22308WAT      O67165   1.240   7.088   3.619
22308WAT     H167166   1.173   7.015   3.608
22308WAT     H267167   1.232   7.126   3.712
22309WAT      O67168   8.679   0.831   8.440
22309WAT     H167169   8.741   0.763   8.479
22309WAT     H267170   8.613   0.785   8.380
22310WAT      O67171   9.203   2.945   2.651
22310WAT     H167172   9.150   2.869   2.688
22310WAT     H267173   9.142   3.021   2.630
22311WAT      O67174   3.852   4.840   1.621
22311WAT     H167175   3.784   4.820   1.693
22311WAT     H267176   3.924   4.898   1.659
22312WAT      O67177   9.516   7.419   7.157
22312WAT     H167178   9.426   7.392   7.191
22312WAT     H267179   9.526   7.390   7.062
22313WAT      O67180   5.970   5.331   0.328
22313WAT     H167181   5.935   5.298   0.416
22313WAT     H267182   6.050   5.276   0.302
22314WAT      O67183   2.426   6.000   5.318
22314WAT     H167184   2.366   6.079   5.327
22314WAT     H267185   2.430   5.971   5.223
22315WAT      O67186   0.619   7.098   5.596
22315WAT     H167187   0.587   7.141   5.680
22315WAT     H267188   0.644   7.168   5.529
22316WAT      O67189   9.328   8.317   6.303
22316WAT     H167190   9.339   8.243   6.237
22316WAT     H267191   9.414   8.330   6.353
22317WAT      O67192   9.509   9.761   0.294
22317WAT     H167193   9.604   9.753   0.264
22317WAT     H267194   9.448   9.739   0.218
22318WAT      O67195   7.955   1.438   9.147
22318WAT     H167196   7.932   1.366   9.081
22318WAT     H267197   7.955   1.400   9.239
22319WAT      O67198   9.296   8.288   1.968
22319WAT     H167199   9.321   8.224   2.040
22319WAT     H267200   9.354   8.273   1.888
22320WAT      O67201   2.421   6.562   1.147
22320WAT     H167202   2.435   6.483   1.088
22320WAT     H267203   2.442   6.646   1.096
22321WAT      O67204   6.801   0.483   3.528
22321WAT     H167205   6.771   0.404   3.474
22321WAT     H267206   6.771   0.567   3.483
22322WAT      O67207   1.455   9.071   4.201
22322WAT     H167208   1.523   9.108   4.264
22322WAT     H267209   1.465   8.971   4.195
22323WAT      O67210   5.510   6.069   3.175
22323WAT     H167211   5.430   6.129   3.182
22323WAT     H267212   5.497   6.004   3.099
22324WAT      O67213   6.983   4.194   6.843
22324WAT     H167214   6.934   4.265   6.893
22324WAT     H267215   6.994   4.223   6.748
22325WAT      O67216   9.031   0.387   3.773
22325WAT     H167217   9.050   0.473   3.821
22325WAT     H267218   8.983   0.405   3.688
22326WAT      O67219   6.027   0.332   4.817
22326WAT     H167220   6.116   0.301   4.851
22326WAT     H267221   6.035   0.354   4.719
22327WAT      O67222   5.469   1.361   6.339
22327WAT     H167223   5.458   1.308   6.254
22327WAT     H267224   5.457   1.301   6.417
22328WAT      O67225   7.469   5.895   6.914
22328WAT     H167226   7.525   5.894   6.832
22328WAT     H267227   7.501   5.968   6.975
22329WAT      O67228   8.053   8.915   3.911
22329WAT     H167229   8.027   8.820   3.926
22329WAT     H267230   8.125   8.920   3.842
22330WAT      O67231   5.041   1.550   6.296
22330WAT     H167232   5.060   1.466   6.245
22330WAT     H267233   4.943   1.556   6.313
22331WAT      O67234   6.655   6.463   7.471
22331WAT     H167235   6.694   6.385   7.521
22331WAT     H267236   6.573   6.433   7.421
22332WAT      O67237   5.905   0.535   1.989
22332WAT     H167238   5.943   0.628   1.980
22332WAT     H267239   5.895   0.513   2.086
22333WAT      O67240   4.488   3.203   8.906
22333WAT     H167241   4.459   3.203   9.002
22333WAT     H267242   4.588   3.207   8.902
22334WAT      O67243   0.813   3.559   8.242
22334WAT     H167244   0.837   3.604   8.156
22334WAT     H267245   0.773   3.470   8.223
22335WAT      O67246   0.376   3.279   1.137
22335WAT     H167247   0.375   3.375   1.167
22335WAT     H267248   0.367   3.275   1.038
22336WAT      O67249   4.117   8.120   5.483
22336WAT     H167250   4.021   8.094   5.473
22336WAT     H267251   4.175   8.044   5.454
22337WAT      O67252   1.451   2.573   8.879
22337WAT     H167253   1.408   2.648   8.828
22337WAT     H267254   1.485   2.608   8.966
22338WAT      O67255   8.862   4.440   6.923
22338WAT     H167256   8.835   4.414   6.829
22338WAT     H267257   8.874   4.357   6.977
22339WAT      O67258   7.327   2.662   8.159
22339WAT     H167259   7.339   2.624   8.251
22339WAT     H267260   7.272   2.745   8.163
22340WAT      O67261   4.360   4.556   7.180
22340WAT     H167262   4.405   4.526   7.264
22340WAT     H267263   4.381   4.491   7.106
22341WAT      O67264   4.243   8.363   3.905
22341WAT     H167265   4.285   8.328   3.989
22341WAT     H267266   4.146   8.337   3.903
22342WAT      O67267   5.502   3.386   1.298
22342WAT     H167268   5.514   3.485   1.296
22342WAT     H267269   5.440   3.358   1.225
22343WAT      O67270   7.796   1.347   6.954
22343WAT     H167271   7.888   1.310   6.944
22343WAT     H267272   7.765   1.335   7.048
22344WAT      O67273   2.033   1.639   5.935
22344WAT     H167274   2.115   1.614   5.882
22344WAT     H267275   2.031   1.587   6.020
22345WAT      O67276   6.264   6.285   4.810
22345WAT     H167277   6.207   6.337   4.746
22345WAT     H267278   6.312   6.348   4.871
22346WAT      O67279   5.218   4.286   0.306
22346WAT     H167280   5.304   4.331   0.332
22346WAT     H267281   5.207   4.290   0.207
22347WAT      O67282   1.047   0.022   9.841
22347WAT     H167283   1.038  -0.064   9.890
22347WAT     H267284   1.126   0.018   9.780
22348WAT      O67285   7.451   7.652   1.196
22348WAT     H167286   7.505   7.591   1.138
22348WAT     H267287   7.361   7.611   1.213
22349WAT      O67288   9.211   1.300   0.638
22349WAT     H167289   9.182   1.238   0.711
22349WAT     H267290   9.244   1.385   0.677
22350WAT      O67291   5.509   9.701   2.255
22350WAT     H167292   5.474   9.650   2.176
22350WAT     H267293   5.590   9.753   2.228
22351WAT      O67294   7.280   1.558   1.267
22351WAT     H167295   7.357   1.497   1.285
22351WAT     H267296   7.271   1.624   1.342
22352WAT      O67297   3.078   2.326   7.916
22352WAT     H167298   3.045   2.279   7.834
22352WAT     H267299   3.052   2.273   7.997
22353WAT      O67300   1.778   5.006   8.120
22353WAT     H167301   1.845   5.075   8.145
22353WAT     H267302   1.788   4.982   8.023
22354WAT      O67303   5.837   6.486   2.106
22354WAT     H167304   5.749   6.523   2.076
22354WAT     H267305   5.892   6.463   2.026
22355WAT      O67306   5.119   4.611   1.417
22355WAT     H167307   5.119   4.526   1.470
22355WAT     H267308   5.192   4.606   1.349
22356WAT      O67309   6.589   6.514   5.419
22356WAT     H167310   6.593   6.527   5.320
22356WAT     H267311   6.681   6.515   5.457
22357WAT      O67312   0.782   7.094   3.477
22357WAT     H167313   0.846   7.078   3.402
22357WAT     H267314   0.768   7.009   3.528
22358WAT      O67315   5.998   0.860   8.104
22358WAT     H167316   5.950   0.812   8.177
22358WAT     H267317   5.959   0.952   8.093
22359WAT      O67318   2.418   1.490   2.918
22359WAT     H167319   2.446   1.474   3.012
22359WAT     H267320   2.442   1.411   2.862
22360WAT      O67321   0.260   7.667   3.068
22360WAT     H167322   0.325   7.731   3.110
22360WAT     H267323   0.209   7.715   2.996
22361WAT      O67324   8.916   3.923   4.952
22361WAT     H167325   8.885   3.948   5.044
22361WAT     H267326   8.866   3.978   4.885
22362WAT      O67327   2.415   9.037   0.177
22362WAT     H167328   2.343   9.037   0.107
22362WAT     H267329   2.424   8.946   0.216
22363WAT      O67330   6.901   1.111   8.174
22363WAT     H167331   6.895   1.093   8.272
22363WAT     H267332   6.809   1.124   8.137
22364WAT      O67333   0.105   4.470   1.447
22364WAT     H167334   0.153   4.403   1.504
22364WAT     H267335   0.128   4.562   1.478
22365WAT      O67336   7.043   5.696   9.129
22365WAT     H167337   7.044   5.716   9.031
22365WAT     H267338   7.133   5.714   9.168
22366WAT      O67339   7.856   9.168   6.331
22366WAT     H167340   7.778   9.113   6.359
22366WAT     H267341   7.887   9.225   6.407
22367WAT      O67342   9.863   2.505   9.391
22367WAT     H167343   9.874   2.599   9.425
22367WAT     H267344   9.805   2.506   9.311
22368WAT      O67345   3.415   1.319   9.270
22368WAT     H167346   3.447   1.242   9.214
22368WAT     H267347   3.416   1.403   9.215
22369WAT      O67348   1.856   8.654   0.136
22369WAT     H167349   1.892   8.740   0.100
22369WAT     H267350   1.758   8.662   0.149
22370WAT      O67351   3.056   1.869   5.037
22370WAT     H167352   3.088   1.794   4.979
22370WAT     H267353   2.986   1.835   5.099
22371WAT      O67354   1.054   0.046   1.531
22371WAT     H167355   1.100   0.133   1.512
22371WAT     H267356   1.013   0.011   1.447
22372WAT      O67357   5.175   0.565   5.144
22372WAT     H167358   5.084   0.540   5.177
22372WAT     H267359   5.203   0.652   5.183
22373WAT      O67360   8.713   5.295   8.552
22373WAT     H167361   8.616   5.309   8.536
22373WAT     H267362   8.743   5.352   8.628
22374WAT      O67363   1.131   3.663   2.477
22374WAT     H167364   1.173   3.728   2.541
22374WAT     H267365   1.159   3.686   2.383
22375WAT      O67366   8.565   9.154   5.375
22375WAT     H167367   8.662   9.143   5.351
22375WAT     H267368   8.554   9.141   5.473
22376WAT      O67369   1.516   4.627   9.443
22376WAT     H167370   1.484   4.722   9.443
22376WAT     H267371   1.594   4.619   9.380
22377WAT      O67372   8.909   7.120   3.092
22377WAT     H167373   8.841   7.164   3.033
22377WAT     H267374   8.867   7.098   3.180
22378WAT      O67375   0.254   8.947   5.949
22378WAT     H167376   0.216   8.938   6.041
22378WAT     H267377   0.347   8.982   5.955
22379WAT      O67378   8.005   6.969   7.568
22379WAT     H167379   7.966   7.058   7.545
22379WAT     H267380   8.104   6.971   7.554
22380WAT      O67381   0.750   4.537   8.093
22380WAT     H167382   0.803   4.596   8.154
22380WAT     H267383   0.759   4.570   7.999
22381WAT      O67384   3.185   2.048   7.862
22381WAT     H167385   3.089   2.021   7.849
22381WAT     H267386   3.227   2.065   7.773
22382WAT      O67387   3.557   5.030   6.687
22382WAT     H167388   3.632   5.023   6.622
22382WAT     H267389   3.535   5.126   6.703
22383WAT      O67390   7.540   2.583   2.627
22383WAT     H167391   7.572   2.491   2.649
22383WAT     H267392   7.618   2.646   2.625
22384WAT      O67393   9.136   9.818   6.482
22384WAT     H167394   9.130   9.890   6.552
22384WAT     H267395   9.127   9.858   6.391
22385WAT      O67396   4.764   3.986   8.954
22385WAT     H167397   4.697   3.933   9.005
22385WAT     H267398   4.837   4.017   9.015
22386WAT      O67399   9.611   7.674   8.947
22386WAT     H167400   9.638   7.677   9.043
22386WAT     H267401   9.551   7.750   8.926
22387WAT      O67402   6.689   0.120   1.558
22387WAT     H167403   6.602   0.132   1.510
22387WAT     H267404   6.740   0.206   1.557
22388WAT      O67405   9.351   9.795   1.219
22388WAT     H167406   9.370   9.752   1.130
22388WAT     H267407   9.329   9.725   1.286
22389WAT      O67408   5.387   1.439   2.517
22389WAT     H167409   5.288   1.436   2.499
22389WAT     H267410   5.407   1.516   2.578
22390WAT      O67411   1.750   1.135   0.575
22390WAT     H167412   1.766   1.115   0.478
22390WAT     H267413   1.694   1.063   0.615
22391WAT      O67414   6.472   5.761   0.710
22391WAT     H167415   6.532   5.684   0.686
22391WAT     H267416   6.379   5.728   0.725
22392WAT      O67417   9.329   2.285   7.792
22392WAT     H167418   9.230   2.297   7.789
22392WAT     H267419   9.355   2.244   7.880
22393WAT      O67420   3.582   7.939   6.014
22393WAT     H167421   3.545   7.928   6.106
22393WAT     H267422   3.545   7.868   5.954
22394WAT      O67423   8.289   4.935   5.246
22394WAT     H167424   8.376   4.920   5.295
22394WAT     H267425   8.238   5.009   5.290
22395WAT      O67426   4.853   7.664   0.639
22395WAT     H167427   4.879   7.648   0.734
22395WAT     H267428   4.935   7.670   0.582
22396WAT      O67429   9.570   0.765   8.205
22396WAT     H167430   9.628   0.845   8.189
22396WAT     H267431   9.569   0.707   8.124
22397WAT      O67432   2.185   3.338   9.450
22397WAT     H167433   2.086   3.328   9.440
22397WAT     H267434   2.206   3.374   9.541
22398WAT      O67435   7.488   7.058   4.828
22398WAT     H167436   7.458   7.149   4.856
22398WAT     H267437   7.409   6.997   4.823
22399WAT      O67438   9.325   9.021   6.764
22399WAT     H167439   9.381   9.035   6.682
22399WAT     H267440   9.279   8.933   6.758
22400WAT      O67441   3.514   0.432   6.449
22400WAT     H167442   3.468   0.475   6.527
22400WAT     H267443   3.538   0.501   6.381
22401WAT      O67444   4.749   9.221   8.263
22401WAT     H167445   4.835   9.171   8.256
22401WAT     H267446   4.708   9.206   8.354
22402WAT      O67447   1.469   3.440   6.772
22402WAT     H167448   1.459   3.513   6.704
22402WAT     H267449   1.379   3.407   6.800
22403WAT      O67450   7.258   7.202   2.568
22403WAT     H167451   7.178   7.235   2.619
22403WAT     H267452   7.271   7.104   2.587
22404WAT      O67453   4.772   3.797   3.058
22404WAT     H167454   4.704   3.870   3.067
22404WAT     H267455   4.728   3.709   3.074
22405WAT      O67456   6.670   6.486   6.518
22405WAT     H167457   6.614   6.511   6.438
22405WAT     H267458   6.754   6.443   6.487
22406WAT      O67459   3.510   2.252   4.883
22406WAT     H167460   3.410   2.257   4.892
22406WAT     H267461   3.549   2.217   4.968
22407WAT      O67462   2.855   6.084   7.990
22407WAT     H167463   2.938   6.047   7.949
22407WAT     H267464   2.806   6.139   7.922
22408WAT      O67465   4.319   0.310   8.240
22408WAT     H167466   4.283   0.243   8.303
22408WAT     H267467   4.416   0.293   8.223
22409WAT      O67468   2.500   1.803   1.186
22409WAT     H167469   2.472   1.806   1.090
22409WAT     H267470   2.558   1.723   1.202
22410WAT      O67471   1.317   7.033   7.638
22410WAT     H167472   1.362   7.119   7.616
22410WAT     H267473   1.384   6.967   7.672
22411WAT      O67474   1.773   8.737   6.313
22411WAT     H167475   1.851   8.793   6.343
22411WAT     H267476   1.734   8.776   6.230
22412WAT      O67477   0.655   5.158   9.561
22412WAT     H167478   0.586   5.116   9.501
22412WAT     H267479   0.610   5.219   9.626
22413WAT      O67480   9.712   6.795   5.032
22413WAT     H167481   9.759   6.710   5.057
22413WAT     H267482   9.775   6.854   4.981
22414WAT      O67483   7.048   4.387   4.321
22414WAT     H167484   7.121   4.427   4.376
22414WAT     H267485   6.989   4.459   4.285
22415WAT      O67486   0.406   3.859   6.759
22415WAT     H167487   0.337   3.787   6.759
22415WAT     H267488   0.397   3.914   6.676
22416WAT      O67489   7.718   9.256   9.054
22416WAT     H167490   7.676   9.327   8.998
22416WAT     H267491   7.687   9.263   9.148
22417WAT      O67492   6.481   9.281   3.871
22417WAT     H167493   6.548   9.355   3.871
22417WAT     H267494   6.509   9.210   3.935
22418WAT      O67495   1.159   3.070   1.440
22418WAT     H167496   1.151   3.012   1.521
22418WAT     H267497   1.131   3.017   1.359
22419WAT      O67498   7.044   5.665   7.723
22419WAT     H167499   7.068   5.744   7.780
22419WAT     H267500   7.099   5.667   7.639
22420WAT      O67501   1.591   3.431   4.427
22420WAT     H167502   1.625   3.522   4.452
22420WAT     H267503   1.636   3.400   4.344
22421WAT      O67504   0.497   9.387   5.759
22421WAT     H167505   0.517   9.344   5.847
22421WAT     H267506   0.477   9.484   5.772
22422WAT      O67507   5.018   8.516   2.158
22422WAT     H167508   5.079   8.539   2.234
22422WAT     H267509   4.923   8.518   2.189
22423WAT      O67510   7.596   1.518   2.632
22423WAT     H167511   7.580   1.454   2.558
22423WAT     H267512   7.508   1.548   2.670
22424WAT      O67513   7.293   1.500   2.198
22424WAT     H167514   7.244   1.582   2.227
22424WAT     H267515   7.262   1.421   2.252
22425WAT      O67516   2.616   8.857   3.602
22425WAT     H167517   2.527   8.819   3.574
22425WAT     H267518   2.611   8.886   3.697
22426WAT      O67519   6.591   3.093   2.580
22426WAT     H167520   6.514   3.144   2.618
22426WAT     H267521   6.570   3.068   2.485
22427WAT      O67522   4.883   0.977   9.160
22427WAT     H167523   4.960   1.013   9.213
22427WAT     H267524   4.815   0.939   9.223
22428WAT      O67525   1.935   4.413   2.564
22428WAT     H167526   1.972   4.505   2.555
22428WAT     H267527   1.995   4.348   2.518
22429WAT      O67528   3.752   2.367   6.507
22429WAT     H167529   3.718   2.273   6.498
22429WAT     H267530   3.688   2.419   6.564
22430WAT      O67531   9.157   6.075   6.598
22430WAT     H167532   9.197   6.161   6.566
22430WAT     H267533   9.169   6.068   6.697
22431WAT      O67534   8.197   9.008   7.601
22431WAT     H167535   8.168   8.936   7.664
22431WAT     H267536   8.296   9.015   7.600
22432WAT      O67537   5.131   3.545   5.282
22432WAT     H167538   5.046   3.497   5.261
22432WAT     H267539   5.131   3.634   5.238
22433WAT      O67540   7.448   5.099   9.083
22433WAT     H167541   7.436   5.024   9.018
22433WAT     H267542   7.507   5.169   9.043
22434WAT      O67543   6.327   6.935   3.190
22434WAT     H167544   6.278   6.853   3.218
22434WAT     H267545   6.350   6.989   3.271
22435WAT      O67546   4.675   0.294   0.174
22435WAT     H167547   4.713   0.386   0.167
22435WAT     H267548   4.615   0.276   0.096
22436WAT      O67549   4.793   0.073   1.096
22436WAT     H167550   4.859   0.147   1.109
22436WAT     H267551   4.812   0.027   1.009
22437WAT      O67552   6.260   7.912   1.602
22437WAT     H167553   6.262   7.970   1.683
22437WAT     H267554   6.178   7.854   1.604
22438WAT      O67555   4.919   7.265   0.132
22438WAT     H167556   4.882   7.291   0.221
22438WAT     H267557   4.893   7.171   0.110
22439WAT      O67558   2.137   0.736   4.983
22439WAT     H167559   2.133   0.758   5.080
22439WAT     H267560   2.171   0.643   4.971
22440WAT      O67561   3.240   1.175   0.434
22440WAT     H167562   3.286   1.094   0.470
22440WAT     H267563   3.273   1.194   0.341
22441WAT      O67564   5.012   3.484   0.600
22441WAT     H167565   5.028   3.499   0.502
22441WAT     H267566   4.978   3.391   0.613
22442WAT      O67567   3.530   6.386   0.032
22442WAT     H167568   3.436   6.384  -0.001
22442WAT     H267569   3.531   6.419   0.127
22443WAT      O67570   1.243   5.323   7.443
22443WAT     H167571   1.325   5.266   7.439
22443WAT     H267572   1.176   5.282   7.505
22444WAT      O67573   3.811   6.503   9.185
22444WAT     H167574   3.873   6.437   9.144
22444WAT     H267575   3.833   6.595   9.151
22445WAT      O67576   8.331   4.836   8.527
22445WAT     H167577   8.414   4.833   8.471
22445WAT     H267578   8.325   4.752   8.581
22446WAT      O67579   3.460   8.240   6.244
22446WAT     H167580   3.441   8.150   6.283
22446WAT     H267581   3.408   8.251   6.159
22447WAT      O67582   0.233   1.583   4.209
22447WAT     H167583   0.307   1.520   4.232
22447WAT     H267584   0.216   1.581   4.111
22448WAT      O67585   3.600   6.335   3.123
22448WAT     H167586   3.647   6.423   3.129
22448WAT     H267587   3.632   6.285   3.042
22449WAT      O67588   0.449   7.821   5.098
22449WAT     H167589   0.480   7.762   5.024
22449WAT     H267590   0.450   7.769   5.184
22450WAT      O67591   3.473   5.296   0.740
22450WAT     H167592   3.384   5.316   0.698
22450WAT     H267593   3.542   5.360   0.704
22451WAT      O67594   0.843   7.980   2.409
22451WAT     H167595   0.884   8.065   2.443
22451WAT     H267596   0.841   7.912   2.482
22452WAT      O67597   3.606   5.654   9.728
22452WAT     H167598   3.635   5.749   9.720
22452WAT     H267599   3.608   5.627   9.824
22453WAT      O67600   4.252   5.928   2.656
22453WAT     H167601   4.225   6.008   2.710
22453WAT     H267602   4.341   5.895   2.686
22454WAT      O67603   1.513   4.108   6.680
22454WAT     H167604   1.423   4.101   6.724
22454WAT     H267605   1.564   4.183   6.723
22455WAT      O67606   6.205   9.816   8.358
22455WAT     H167607   6.300   9.830   8.328
22455WAT     H267608   6.190   9.719   8.375
22456WAT      O67609   0.275   0.260   3.478
22456WAT     H167610   0.347   0.221   3.536
22456WAT     H267611   0.245   0.347   3.518
22457WAT      O67612   0.596   6.868   1.937
22457WAT     H167613   0.634   6.956   1.967
22457WAT     H267614   0.550   6.823   2.014
22458WAT      O67615   0.566   1.530   4.081
22458WAT     H167616   0.525   1.581   4.006
22458WAT     H267617   0.642   1.474   4.046
22459WAT      O67618   8.867   6.561   9.844
22459WAT     H167619   8.912   6.491   9.900
22459WAT     H267620   8.917   6.571   9.758
22460WAT      O67621   8.755   8.961   4.629
22460WAT     H167622   8.852   8.971   4.654
22460WAT     H267623   8.727   8.866   4.645
22461WAT      O67624   8.385   9.348   2.242
22461WAT     H167625   8.353   9.425   2.186
22461WAT     H267626   8.413   9.382   2.332
22462WAT      O67627   7.772   3.200   4.671
22462WAT     H167628   7.846   3.260   4.640
22462WAT     H267629   7.684   3.243   4.649
22463WAT      O67630   3.296   3.439   3.501
22463WAT     H167631   3.236   3.477   3.571
22463WAT     H267632   3.340   3.513   3.450
22464WAT      O67633   2.004   7.184   8.697
22464WAT     H167634   2.079   7.193   8.763
22464WAT     H267635   2.031   7.223   8.610
22465WAT      O67636   0.835   8.697   3.503
22465WAT     H167637   0.910   8.668   3.563
22465WAT     H267638   0.773   8.757   3.554
22466WAT      O67639   6.692   2.586   4.253
22466WAT     H167640   6.739   2.624   4.174
22466WAT     H267641   6.613   2.643   4.276
22467WAT      O67642   9.677   4.239   0.539
22467WAT     H167643   9.710   4.303   0.608
22467WAT     H267644   9.644   4.290   0.459
22468WAT      O67645   8.792   1.081   6.005
22468WAT     H167646   8.787   0.982   5.992
22468WAT     H267647   8.764   1.127   5.920
22469WAT      O67648   2.372   0.850   4.212
22469WAT     H167649   2.428   0.772   4.187
22469WAT     H267650   2.399   0.883   4.303
22470WAT      O67651   7.470   6.945   3.995
22470WAT     H167652   7.499   7.010   4.066
22470WAT     H267653   7.390   6.895   4.027
22471WAT      O67654   0.524   9.220   3.221
22471WAT     H167655   0.452   9.277   3.181
22471WAT     H267656   0.533   9.241   3.318
22472WAT      O67657   3.735   8.686   9.427
22472WAT     H167658   3.666   8.735   9.374
22472WAT     H267659   3.767   8.607   9.374
22473WAT      O67660   3.257   9.512   3.051
22473WAT     H167661   3.181   9.458   3.014
22473WAT     H267662   3.225   9.604   3.072
22474WAT      O67663   5.073   4.038   9.876
22474WAT     H167664   5.138   3.981   9.926
22474WAT     H267665   5.112   4.130   9.863
22475WAT      O67666   8.270   3.797   4.050
22475WAT     H167667   8.236   3.716   4.002
22475WAT     H267668   8.301   3.771   4.142
22476WAT      O67669   7.317   2.203   5.867
22476WAT     H167670   7.334   2.176   5.772
22476WAT     H267671   7.373   2.282   5.890
22477WAT      O67672   0.169   7.442   4.238
22477WAT     H167673   0.102   7.484   4.177
22477WAT     H267674   0.240   7.508   4.261
22478WAT      O67675   7.833   1.149   6.573
22478WAT     H167676   7.908   1.083   6.572
22478WAT     H267677   7.755   1.111   6.523
22479WAT      O67678   3.401   4.930   7.310
22479WAT     H167679   3.407   4.916   7.409
22479WAT     H267680   3.324   4.879   7.273
22480WAT      O67681   2.994   4.214   1.140
22480WAT     H167682   2.988   4.125   1.186
22480WAT     H267683   3.089   4.232   1.116
22481WAT      O67684   3.618   7.367   5.895
22481WAT     H167685   3.676   7.320   5.828
22481WAT     H267686   3.621   7.316   5.982
22482WAT      O67687   4.391   3.493   6.311
22482WAT     H167688   4.445   3.409   6.314
22482WAT     H267689   4.296   3.473   6.333
22483WAT      O67690   8.180   8.503   7.401
22483WAT     H167691   8.107   8.463   7.344
22483WAT     H267692   8.188   8.600   7.379
22484WAT      O67693   2.821   8.226   1.862
22484WAT     H167694   2.747   8.159   1.863
22484WAT     H267695   2.819   8.276   1.776
22485WAT      O67696   0.462   8.482   7.250
22485WAT     H167697   0.548   8.431   7.244
22485WAT     H267698   0.399   8.450   7.180
22486WAT      O67699   5.040   3.516   9.201
22486WAT     H167700   4.976   3.573   9.150
22486WAT     H267701   5.089   3.573   9.267
22487WAT      O67702   5.291   8.387   1.461
22487WAT     H167703   5.265   8.423   1.550
22487WAT     H267704   5.211   8.387   1.400
22488WAT      O67705   7.903   9.181   5.327
22488WAT     H167706   7.820   9.199   5.380
22488WAT     H267707   7.878   9.150   5.235
22489WAT      O67708   1.555   8.353   2.758
22489WAT     H167709   1.492   8.354   2.681
22489WAT     H267710   1.578   8.258   2.781
22490WAT      O67711   4.007   3.733   6.980
22490WAT     H167712   3.954   3.690   6.906
22490WAT     H267713   3.951   3.803   7.024
22491WAT      O67714   5.120   0.413   6.360
22491WAT     H167715   5.023   0.399   6.342
22491WAT     H267716   5.174   0.355   6.299
22492WAT      O67717   3.862   6.631   4.583
22492WAT     H167718   3.807   6.549   4.594
22492WAT     H267719   3.804   6.707   4.554
22493WAT      O67720   3.303   2.145   5.833
22493WAT     H167721   3.253   2.075   5.883
22493WAT     H267722   3.239   2.200   5.780
22494WAT      O67723   3.701   1.137   1.631
22494WAT     H167724   3.724   1.233   1.649
22494WAT     H267725   3.776   1.094   1.582
22495WAT      O67726   2.917   8.425   5.559
22495WAT     H167727   2.876   8.514   5.583
22495WAT     H267728   2.927   8.419   5.460
22496WAT      O67729   8.477   0.452   8.044
22496WAT     H167730   8.440   0.516   7.978
22496WAT     H267731   8.471   0.491   8.136
22497WAT      O67732   5.966   3.141   0.650
22497WAT     H167733   5.905   3.076   0.604
22497WAT     H267734   5.961   3.126   0.749
22498WAT      O67735   9.283   6.683   9.789
22498WAT     H167736   9.366   6.736   9.777
22498WAT     H267737   9.277   6.613   9.718
22499WAT      O67738   8.253   4.293   1.816
22499WAT     H167739   8.271   4.349   1.735
22499WAT     H267740   8.240   4.198   1.788
22500WAT      O67741   7.653   3.674   6.456
22500WAT     H167742   7.676   3.608   6.385
22500WAT     H267743   7.555   3.671   6.474
22501WAT      O67744   1.486   3.910   2.992
22501WAT     H167745   1.534   3.972   2.930
22501WAT     H267746   1.551   3.863   3.051
22502WAT      O67747   8.584   5.449   4.417
22502WAT     H167748   8.569   5.541   4.454
22502WAT     H267749   8.664   5.449   4.358
22503WAT      O67750   0.941   7.460   7.631
22503WAT     H167751   0.936   7.468   7.731
22503WAT     H267752   0.912   7.369   7.603
22504WAT      O67753   0.304   4.496   3.382
22504WAT     H167754   0.240   4.568   3.408
22504WAT     H267755   0.308   4.428   3.455
22505WAT      O67756   2.262   3.999   4.399
22505WAT     H167757   2.226   4.089   4.420
22505WAT     H267758   2.209   3.929   4.446
22506WAT      O67759   8.569   9.148   0.894
22506WAT     H167760   8.609   9.059   0.872
22506WAT     H267761   8.641   9.213   0.915
22507WAT      O67762   4.442   7.719   6.469
22507WAT     H167763   4.422   7.680   6.379
22507WAT     H267764   4.452   7.646   6.536
22508WAT      O67765   3.176   5.030   9.719
22508WAT     H167766   3.233   5.052   9.798
22508WAT     H267767   3.210   4.947   9.675
22509WAT      O67768   9.797   0.594   7.582
22509WAT     H167769   9.700   0.575   7.597
22509WAT     H267770   9.809   0.641   7.495
22510WAT      O67771   9.515   5.736   4.295
22510WAT     H167772   9.537   5.833   4.304
22510WAT     H267773   9.517   5.693   4.385
22511WAT      O67774   4.681   2.787   5.552
22511WAT     H167775   4.748   2.715   5.567
22511WAT     H267776   4.617   2.759   5.480
22512WAT      O67777   8.030   6.179   1.979
22512WAT     H167778   8.015   6.128   1.895
22512WAT     H267779   7.954   6.162   2.042
22513WAT      O67780   7.414   9.163   5.658
22513WAT     H167781   7.507   9.185   5.688
22513WAT     H267782   7.355   9.155   5.738
22514WAT      O67783   0.131   9.271   5.571
22514WAT     H167784   0.080   9.341   5.521
22514WAT     H267785   0.184   9.216   5.506
22515WAT      O67786   1.582   8.680   0.208
22515WAT     H167787   1.588   8.587   0.242
22515WAT     H267788   1.563   8.742   0.284
22516WAT      O67789   0.723   1.366   4.584
22516WAT     H167790   0.689   1.459   4.593
22516WAT     H267791   0.748   1.348   4.489
22517WAT      O67792   8.314   2.115   5.600
22517WAT     H167793   8.409   2.120   5.631
22517WAT     H267794   8.298   2.185   5.530
22518WAT      O67795   4.171   4.744   1.273
22518WAT     H167796   4.218   4.675   1.328
22518WAT     H267797   4.232   4.776   1.201
22519WAT      O67798   0.328   0.260   4.094
22519WAT     H167799   0.302   0.353   4.120
22519WAT     H267800   0.292   0.195   4.161
22520WAT      O67801   5.415   8.450   4.838
22520WAT     H167802   5.497   8.505   4.846
22520WAT     H267803   5.406   8.417   4.743
22521WAT      O67804   2.485   2.872   1.709
22521WAT     H167805   2.397   2.866   1.662
22521WAT     H267806   2.497   2.964   1.746
22522WAT      O67807   8.986   4.313   3.622
22522WAT     H167808   8.898   4.356   3.603
22522WAT     H267809   9.019   4.267   3.539
22523WAT      O67810   9.114   0.184   3.986
22523WAT     H167811   9.061   0.237   3.919
22523WAT     H267812   9.211   0.205   3.975
22524WAT      O67813   9.151   9.014   7.805
22524WAT     H167814   9.136   8.971   7.715
22524WAT     H267815   9.248   9.010   7.827
22525WAT      O67816   7.935   4.037   2.434
22525WAT     H167817   7.983   3.966   2.485
22525WAT     H267818   8.000   4.103   2.397
22526WAT      O67819   0.234   3.959   1.731
22526WAT     H167820   0.311   3.900   1.708
22526WAT     H267821   0.180   3.978   1.649
22527WAT      O67822   8.943   6.431   8.536
22527WAT     H167823   8.994   6.401   8.617
22527WAT     H267824   8.917   6.351   8.481
22528WAT      O67825   1.443   6.886   9.139
22528WAT     H167826   1.533   6.924   9.116
22528WAT     H267827   1.434   6.794   9.099
22529WAT      O67828   1.882   6.912   8.739
22529WAT     H167829   1.798   6.945   8.783
22529WAT     H267830   1.933   6.990   8.702
22530WAT      O67831   3.733   1.490   0.865
22530WAT     H167832   3.647   1.511   0.913
22530WAT     H267833   3.796   1.567   0.876
22531WAT      O67834   1.509   1.774   0.053
22531WAT     H167835   1.593   1.810   0.094
22531WAT     H267836   1.500   1.677   0.075
22532WAT      O67837   7.104   7.994   1.409
22532WAT     H167838   7.200   8.021   1.416
22532WAT     H267839   7.066   7.987   1.501
22533WAT      O67840   9.565   2.410   4.535
22533WAT     H167841   9.644   2.367   4.492
22533WAT     H267842   9.489   2.413   4.470
22534WAT      O67843   5.137   6.110   3.082
22534WAT     H167844   5.188   6.192   3.109
22534WAT     H267845   5.124   6.109   2.983
22535WAT      O67846   1.773   3.849   1.476
22535WAT     H167847   1.702   3.873   1.410
22535WAT     H267848   1.765   3.752   1.500
22536WAT      O67849   6.153   6.648   0.598
22536WAT     H167850   6.175   6.555   0.570
22536WAT     H267851   6.059   6.669   0.571
22537WAT      O67852   7.731   7.754   7.430
22537WAT     H167853   7.754   7.719   7.520
22537WAT     H267854   7.636   7.729   7.408
22538WAT      O67855   1.360   5.415   0.102
22538WAT     H167856   1.388   5.394   0.196
22538WAT     H267857   1.289   5.350   0.073
22539WAT      O67858   7.418   7.575   9.457
22539WAT     H167859   7.406   7.476   9.450
22539WAT     H267860   7.406   7.602   9.553
22540WAT      O67861   5.359   6.627   6.424
22540WAT     H167862   5.428   6.590   6.486
22540WAT     H267863   5.270   6.587   6.446
22541WAT      O67864   8.315   2.039   4.323
22541WAT     H167865   8.303   1.979   4.244
22541WAT     H267866   8.229   2.044   4.374
22542WAT      O67867   5.091   0.453   5.728
22542WAT     H167868   5.001   0.461   5.771
22542WAT     H267869   5.102   0.361   5.690
22543WAT      O67870   1.519   4.454   1.035
22543WAT     H167871   1.501   4.426   0.941
22543WAT     H267872   1.609   4.499   1.039
22544WAT      O67873   2.043   3.266   0.226
22544WAT     H167874   2.049   3.281   0.128
22544WAT     H267875   2.045   3.168   0.245
22545WAT      O67876   8.961   3.330   0.985
22545WAT     H167877   8.894   3.392   1.026
22545WAT     H267878   8.988   3.261   1.052
22546WAT      O67879   4.963   1.031   0.931
22546WAT     H167880   4.881   0.974   0.941
22546WAT     H267881   5.009   1.007   0.846
22547WAT      O67882   0.444   5.557   6.524
22547WAT     H167883   0.364   5.498   6.533
22547WAT     H267884   0.508   5.538   6.598
22548WAT      O67885   7.334   0.664   5.772
22548WAT     H167886   7.425   0.681   5.808
22548WAT     H267887   7.326   0.568   5.745
22549WAT      O67888   8.029   2.791   4.276
22549WAT     H167889   8.043   2.709   4.220
22549WAT     H267890   8.047   2.769   4.372
22550WAT      O67891   7.899   7.610   0.887
22550WAT     H167892   7.815   7.664   0.878
22550WAT     H267893   7.956   7.624   0.807
22551WAT      O67894   8.730   1.435   6.060
22551WAT     H167895   8.696   1.423   5.967
22551WAT     H267896   8.824   1.468   6.057
22552WAT      O67897   0.430   2.162   1.381
22552WAT     H167898   0.405   2.244   1.433
22552WAT     H267899   0.356   2.138   1.318
22553WAT      O67900   7.408   9.161   3.845
22553WAT     H167901   7.436   9.247   3.889
22553WAT     H267902   7.312   9.142   3.868
22554WAT      O67903   4.064   1.345   7.504
22554WAT     H167904   4.084   1.367   7.599
22554WAT     H267905   4.069   1.246   7.490
22555WAT      O67906   2.321   3.719   7.209
22555WAT     H167907   2.332   3.782   7.131
22555WAT     H267908   2.285   3.770   7.287
22556WAT      O67909   4.465   6.810   8.275
22556WAT     H167910   4.405   6.738   8.310
22556WAT     H267911   4.504   6.861   8.352
22557WAT      O67912   1.311   6.285   9.756
22557WAT     H167913   1.235   6.239   9.712
22557WAT     H267914   1.355   6.347   9.691
22558WAT      O67915   1.409   5.363   5.254
22558WAT     H167916   1.485   5.347   5.192
22558WAT     H267917   1.327   5.316   5.220
22559WAT      O67918   8.481   2.471   9.557
22559WAT     H167919   8.412   2.543   9.552
22559WAT     H267920   8.543   2.479   9.479
22560WAT      O67921   3.371   3.096   3.997
22560WAT     H167922   3.387   3.010   3.948
22560WAT     H267923   3.420   3.094   4.084
22561WAT      O67924   7.743   1.784   7.771
22561WAT     H167925   7.827   1.731   7.778
22561WAT     H267926   7.741   1.853   7.844
22562WAT      O67927   7.238   6.445   4.802
22562WAT     H167928   7.184   6.491   4.731
22562WAT     H267929   7.214   6.348   4.804
22563WAT      O67930   3.439   0.028   5.585
22563WAT     H167931   3.353  -0.022   5.601
22563WAT     H267932   3.506   0.001   5.655
22564WAT      O67933   4.164   2.516   1.149
22564WAT     H167934   4.143   2.609   1.178
22564WAT     H267935   4.253   2.515   1.103
22565WAT      O67936   0.358   8.852   5.656
22565WAT     H167937   0.285   8.863   5.588
22565WAT     H267938   0.317   8.836   5.746
22566WAT      O67939   7.083   0.526   2.633
22566WAT     H167940   6.985   0.514   2.643
22566WAT     H267941   7.125   0.534   2.724
22567WAT      O67942   1.655   1.446   8.638
22567WAT     H167943   1.624   1.526   8.586
22567WAT     H267944   1.575   1.398   8.675
22568WAT      O67945   9.516   7.071   3.615
22568WAT     H167946   9.489   7.167   3.609
22568WAT     H267947   9.454   7.023   3.677
22569WAT      O67948   0.110   1.809   8.680
22569WAT     H167949   0.033   1.745   8.689
22569WAT     H267950   0.086   1.896   8.722
22570WAT      O67951   8.624   8.287   4.444
22570WAT     H167952   8.693   8.343   4.398
22570WAT     H267953   8.547   8.344   4.469
22571WAT      O67954   2.090   1.079   2.767
22571WAT     H167955   2.106   0.983   2.791
22571WAT     H267956   2.176   1.129   2.772
22572WAT      O67957   6.283   4.404   9.705
22572WAT     H167958   6.353   4.338   9.677
22572WAT     H267959   6.327   4.486   9.740
22573WAT      O67960   1.984   1.127   3.356
22573WAT     H167961   2.006   1.206   3.413
22573WAT     H267962   1.903   1.081   3.393
22574WAT      O67963   3.917   3.665   5.750
22574WAT     H167964   3.852   3.589   5.741
22574WAT     H267965   3.999   3.646   5.696
22575WAT      O67966   4.952   5.926   6.401
22575WAT     H167967   4.981   6.021   6.401
22575WAT     H267968   4.969   5.885   6.311
22576WAT      O67969   6.684   9.592   1.612
22576WAT     H167970   6.718   9.583   1.706
22576WAT     H267971   6.671   9.502   1.572
22577WAT      O67972   5.874   6.654   4.988
22577WAT     H167973   5.858   6.745   5.026
22577WAT     H267974   5.914   6.595   5.059
22578WAT      O67975   6.897   8.594   1.141
22578WAT     H167976   6.935   8.555   1.225
22578WAT     H267977   6.893   8.694   1.149
22579WAT      O67978   1.545   2.304   5.624
22579WAT     H167979   1.461   2.329   5.575
22579WAT     H267980   1.599   2.387   5.640
22580WAT      O67981   8.779   6.101   4.578
22580WAT     H167982   8.730   6.160   4.514
22580WAT     H267983   8.786   6.146   4.667
22581WAT      O67984   6.128   4.943   7.386
22581WAT     H167985   6.034   4.974   7.375
22581WAT     H267986   6.162   4.971   7.476
22582WAT      O67987   9.384   6.085   7.849
22582WAT     H167988   9.322   6.124   7.781
22582WAT     H267989   9.430   6.005   7.810
22583WAT      O67990   1.565   9.450   6.562
22583WAT     H167991   1.641   9.427   6.501
22583WAT     H267992   1.486   9.393   6.540
22584WAT      O67993   1.295   0.600   3.752
22584WAT     H167994   1.371   0.660   3.779
22584WAT     H267995   1.250   0.565   3.835
22585WAT      O67996   5.704   3.193   0.032
22585WAT     H167997   5.795   3.155   0.052
22585WAT     H267998   5.709   3.293   0.034
22586WAT      O67999   5.644   5.080   6.853
22586WAT     H168000   5.717   5.148   6.855
22586WAT     H268001   5.610   5.064   6.946
22587WAT      O68002   8.469   5.071   5.937
22587WAT     H168003   8.375   5.041   5.919
22587WAT     H268004   8.477   5.169   5.918
22588WAT      O68005   5.899   3.147   7.535
22588WAT     H168006   5.945   3.061   7.510
22588WAT     H268007   5.924   3.171   7.629
22589WAT      O68008   5.075   1.343   6.942
22589WAT     H168009   4.982   1.341   6.906
22589WAT     H268010   5.125   1.421   6.904
22590WAT      O68011   9.683   5.273   0.397
22590WAT     H168012   9.745   5.219   0.340
22590WAT     H268013   9.588   5.252   0.373
22591WAT      O68014   5.036   3.671   4.929
22591WAT     H168015   5.034   3.700   5.024
22591WAT     H268016   4.989   3.584   4.919
22592WAT      O68017   2.105   5.516   2.656
22592WAT     H168018   2.136   5.488   2.565
22592WAT     H268019   2.127   5.444   2.722
22593WAT      O68020   0.422   6.863   5.508
22593WAT     H168021   0.472   6.944   5.537
22593WAT     H268022   0.459   6.782   5.553
22594WAT      O68023   3.452   1.562   3.287
22594WAT     H168024   3.451   1.468   3.253
22594WAT     H268025   3.413   1.623   3.218
22595WAT      O68026   9.219   0.155   4.597
22595WAT     H168027   9.148   0.099   4.553
22595WAT     H268028   9.290   0.177   4.531
22596WAT      O68029   5.250   3.918   1.740
22596WAT     H168030   5.171   3.974   1.766
22596WAT     H268031   5.318   3.920   1.814
22597WAT      O68032   3.761   8.931   2.796
22597WAT     H168033   3.757   8.994   2.874
22597WAT     H268034   3.803   8.845   2.825
22598WAT      O68035   4.886   1.683   2.475
22598WAT     H168036   4.816   1.620   2.511
22598WAT     H268037   4.893   1.763   2.535
22599WAT      O68038   5.177   8.618   9.507
22599WAT     H168039   5.125   8.678   9.568
22599WAT     H268040   5.221   8.673   9.436
22600WAT      O68041   3.125   3.005   6.186
22600WAT     H168042   3.213   3.050   6.174
22600WAT     H268043   3.055   3.072   6.209
22601WAT      O68044   2.617   6.778   0.496
22601WAT     H168045   2.538   6.721   0.472
22601WAT     H268046   2.699   6.721   0.503
22602WAT      O68047   4.604   4.373   7.664
22602WAT     H168048   4.617   4.430   7.745
22602WAT     H268049   4.570   4.283   7.692
22603WAT      O68050   7.660   9.156   7.201
22603WAT     H168051   7.592   9.143   7.273
22603WAT     H268052   7.635   9.100   7.122
22604WAT      O68053   6.643   6.951   7.063
22604WAT     H168054   6.717   7.009   7.029
22604WAT     H268055   6.619   6.883   6.993
22605WAT      O68056   0.891   5.920   7.372
22605WAT     H168057   0.936   5.847   7.425
22605WAT     H268058   0.828   5.880   7.307
22606WAT      O68059   8.575   9.540   1.990
22606WAT     H168060   8.528   9.466   1.941
22606WAT     H268061   8.669   9.547   1.956
22607WAT      O68062   8.210   2.224   9.592
22607WAT     H168063   8.195   2.248   9.688
22607WAT     H268064   8.256   2.136   9.586
22608WAT      O68065   2.288   7.022   3.302
22608WAT     H168066   2.374   7.009   3.254
22608WAT     H268067   2.302   7.007   3.400
22609WAT      O68068   1.101   9.404   9.483
22609WAT     H168069   1.009   9.379   9.455
22609WAT     H268070   1.162   9.325   9.476
22610WAT      O68071   2.279   0.024   5.696
22610WAT     H168072   2.318   0.059   5.611
22610WAT     H268073   2.193   0.070   5.715
22611WAT      O68074   3.542   2.420   6.155
22611WAT     H168075   3.516   2.440   6.060
22611WAT     H268076   3.564   2.323   6.163
22612WAT      O68077   1.845   8.526   4.538
22612WAT     H168078   1.925   8.475   4.506
22612WAT     H268079   1.766   8.466   4.541
22613WAT      O68080   1.720   8.654   7.519
22613WAT     H168081   1.674   8.657   7.430
22613WAT     H268082   1.730   8.746   7.554
22614WAT      O68083   9.056   9.050   6.309
22614WAT     H168084   9.108   9.117   6.255
22614WAT     H268085   9.086   9.055   6.404
22615WAT      O68086   9.882   3.537   7.107
22615WAT     H168087   9.784   3.542   7.129
22615WAT     H268088   9.907   3.444   7.083
22616WAT      O68089   8.025   0.126   6.420
22616WAT     H168090   7.972   0.131   6.336
22616WAT     H268091   8.093   0.201   6.421
22617WAT      O68092   7.107   4.842   0.480
22617WAT     H168093   7.088   4.743   0.479
22617WAT     H268094   7.083   4.880   0.568
22618WAT      O68095   4.839   4.580   7.500
22618WAT     H168096   4.876   4.560   7.409
22618WAT     H268097   4.850   4.500   7.559
22619WAT      O68098   3.461   1.942   4.091
22619WAT     H168099   3.487   2.037   4.111
22619WAT     H268100   3.483   1.921   3.996
22620WAT      O68101   8.613   6.206   7.968
22620WAT     H168102   8.660   6.119   7.983
22620WAT     H268103   8.644   6.273   8.036
22621WAT      O68104   2.000   6.515   9.468
22621WAT     H168105   2.050   6.520   9.382
22621WAT     H268106   2.020   6.595   9.524
22622WAT      O68107   1.291   9.448   2.494
22622WAT     H168108   1.210   9.467   2.438
22622WAT     H268109   1.359   9.398   2.440
22623WAT      O68110   4.997   7.874   9.330
22623WAT     H168111   4.979   7.937   9.405
22623WAT     H268112   5.000   7.925   9.244
22624WAT      O68113   3.750   7.759   6.303
22624WAT     H168114   3.709   7.750   6.212
22624WAT     H268115   3.686   7.724   6.371
22625WAT      O68116   2.095   8.963   7.306
22625WAT     H168117   2.010   8.924   7.270
22625WAT     H268118   2.083   9.061   7.321
22626WAT      O68119   4.854   6.550   1.860
22626WAT     H168120   4.785   6.524   1.793
22626WAT     H268121   4.930   6.485   1.857
22627WAT      O68122   5.875   0.684   7.249
22627WAT     H168123   5.864   0.731   7.162
22627WAT     H268124   5.843   0.743   7.323
22628WAT      O68125   7.827   8.186   4.227
22628WAT     H168126   7.888   8.266   4.234
22628WAT     H268127   7.858   8.128   4.151
22629WAT      O68128   9.345   1.928   5.974
22629WAT     H168129   9.358   1.918   5.875
22629WAT     H268130   9.326   1.838   6.014
22630WAT      O68131   7.590   0.871   3.488
22630WAT     H168132   7.510   0.850   3.545
22630WAT     H268133   7.589   0.813   3.407
22631WAT      O68134   5.529   0.551   2.697
22631WAT     H168135   5.583   0.470   2.718
22631WAT     H268136   5.585   0.633   2.707
22632WAT      O68137   5.690   5.075   7.684
22632WAT     H168138   5.640   5.160   7.695
22632WAT     H268139   5.625   4.999   7.676
22633WAT      O68140   0.892   3.775   9.751
22633WAT     H168141   0.891   3.747   9.848
22633WAT     H268142   0.930   3.701   9.696
22634WAT      O68143   1.336   2.003   0.437
22634WAT     H168144   1.340   2.102   0.422
22634WAT     H268145   1.242   1.976   0.455
22635WAT      O68146   3.029   3.694   9.649
22635WAT     H168147   3.040   3.666   9.554
22635WAT     H268148   3.051   3.617   9.709
22636WAT      O68149   0.282   4.256   9.202
22636WAT     H168150   0.379   4.260   9.226
22636WAT     H268151   0.271   4.259   9.103
22637WAT      O68152   2.932   2.743   8.113
22637WAT     H168153   2.968   2.713   8.201
22637WAT     H268154   2.920   2.664   8.053
22638WAT      O68155   3.092   1.592   5.089
22638WAT     H168156   3.092   1.604   4.990
22638WAT     H268157   3.143   1.510   5.114
22639WAT      O68158   9.098   6.287   9.725
22639WAT     H168159   9.091   6.271   9.823
22639WAT     H268160   9.195   6.299   9.700
22640WAT      O68161   9.409   7.417   9.410
22640WAT     H168162   9.310   7.425   9.402
22640WAT     H268163   9.433   7.324   9.439
22641WAT      O68164   2.780   3.029   6.590
22641WAT     H168165   2.773   3.072   6.499
22641WAT     H268166   2.750   3.094   6.659
22642WAT      O68167   5.419   4.215   1.288
22642WAT     H168168   5.354   4.203   1.212
22642WAT     H268169   5.385   4.166   1.368
22643WAT      O68170   0.241   9.133   6.589
22643WAT     H168171   0.328   9.147   6.636
22643WAT     H268172   0.205   9.043   6.613
22644WAT      O68173   0.144   8.383   1.254
22644WAT     H168174   0.094   8.316   1.309
22644WAT     H268175   0.113   8.475   1.277
22645WAT      O68176   4.064   3.032   7.392
22645WAT     H168177   4.060   2.958   7.460
22645WAT     H268178   4.050   3.120   7.438
22646WAT      O68179   9.682   3.444   1.900
22646WAT     H168180   9.738   3.375   1.944
22646WAT     H268181   9.667   3.520   1.963
22647WAT      O68182   1.903   5.235   5.902
22647WAT     H168183   1.883   5.148   5.857
22647WAT     H268184   1.824   5.295   5.893
22648WAT      O68185   1.878   2.200   2.215
22648WAT     H168186   1.848   2.104   2.220
22648WAT     H268187   1.977   2.203   2.203
22649WAT      O68188   9.543   7.614   0.869
22649WAT     H168189   9.513   7.596   0.963
22649WAT     H268190   9.558   7.712   0.858
22650WAT      O68191   0.777   3.774   2.541
22650WAT     H168192   0.764   3.693   2.485
22650WAT     H268193   0.746   3.855   2.491
22651WAT      O68194   8.185   0.017   1.424
22651WAT     H168195   8.121  -0.058   1.445
22651WAT     H268196   8.152   0.068   1.345
22652WAT      O68197   6.899   3.421   9.645
22652WAT     H168198   6.842   3.365   9.705
22652WAT     H268199   6.848   3.503   9.617
22653WAT      O68200   4.175   7.859   3.518
22653WAT     H168201   4.268   7.865   3.483
22653WAT     H268202   4.145   7.763   3.517
22654WAT      O68203   9.088   2.828   7.250
22654WAT     H168204   9.060   2.811   7.344
22654WAT     H268205   9.100   2.741   7.202
22655WAT      O68206   2.662   0.214   8.495
22655WAT     H168207   2.679   0.277   8.420
22655WAT     H268208   2.579   0.243   8.544
22656WAT      O68209   0.662   1.692   4.882
22656WAT     H168210   0.627   1.786   4.887
22656WAT     H268211   0.647   1.657   4.790
22657WAT      O68212   3.703   5.309   6.437
22657WAT     H168213   3.608   5.302   6.408
22657WAT     H268214   3.730   5.405   6.440
22658WAT      O68215   8.372   4.830   6.620
22658WAT     H168216   8.324   4.876   6.695
22658WAT     H268217   8.308   4.774   6.568
22659WAT      O68218   6.886   0.009   3.017
22659WAT     H168219   6.960   0.065   3.055
22659WAT     H268220   6.860   0.046   2.927
22660WAT      O68221   7.233   0.855   5.274
22660WAT     H168222   7.209   0.892   5.364
22660WAT     H268223   7.151   0.822   5.228
22661WAT      O68224   4.402   2.759   7.303
22661WAT     H168225   4.311   2.725   7.279
22661WAT     H268226   4.397   2.812   7.387
22662WAT      O68227   8.221   2.651   8.820
22662WAT     H168228   8.309   2.618   8.786
22662WAT     H268229   8.161   2.671   8.742
22663WAT      O68230   6.464   2.898   7.126
22663WAT     H168231   6.484   2.836   7.050
22663WAT     H268232   6.369   2.887   7.155
22664WAT      O68233   2.885   9.443   4.122
22664WAT     H168234   2.840   9.512   4.065
22664WAT     H268235   2.955   9.487   4.179
22665WAT      O68236   1.498   1.516   0.124
22665WAT     H168237   1.512   1.441   0.058
22665WAT     H268238   1.455   1.480   0.206
22666WAT      O68239   9.772   9.598   7.833
22666WAT     H168240   9.753   9.585   7.930
22666WAT     H268241   9.708   9.665   7.795
22667WAT      O68242   9.217   8.345   8.416
22667WAT     H168243   9.271   8.429   8.411
22667WAT     H268244   9.122   8.368   8.437
22668WAT      O68245   0.854   2.642   9.577
22668WAT     H168246   0.816   2.669   9.665
22668WAT     H268247   0.810   2.694   9.504
22669WAT      O68248   3.209   5.792   8.453
22669WAT     H168249   3.256   5.821   8.369
22669WAT     H268250   3.127   5.740   8.430
22670WAT      O68251   3.110   9.666   3.566
22670WAT     H168252   3.139   9.727   3.492
22670WAT     H268253   3.047   9.715   3.627
22671WAT      O68254   1.413   2.686   1.984
22671WAT     H168255   1.489   2.696   1.920
22671WAT     H268256   1.432   2.610   2.047
22672WAT      O68257   3.758   6.683   3.421
22672WAT     H168258   3.696   6.623   3.371
22672WAT     H268259   3.760   6.655   3.517
22673WAT      O68260   3.608   2.561   2.866
22673WAT     H168261   3.696   2.533   2.904
22673WAT     H268262   3.599   2.524   2.774
22674WAT      O68263   2.168   0.014   7.550
22674WAT     H168264   2.074  -0.008   7.522
22674WAT     H268265   2.213  -0.069   7.583
22675WAT      O68266   6.042   8.154   2.571
22675WAT     H168267   5.993   8.084   2.622
22675WAT     H268268   6.021   8.146   2.474
22676WAT      O68269   3.315   7.787   8.296
22676WAT     H168270   3.234   7.734   8.324
22676WAT     H268271   3.382   7.726   8.255
22677WAT      O68272   3.970   3.238   0.997
22677WAT     H168273   3.879   3.255   0.957
22677WAT     H268274   4.005   3.323   1.036
22678WAT      O68275   1.474   9.182   6.093
22678WAT     H168276   1.517   9.139   6.014
22678WAT     H268277   1.517   9.147   6.177
22679WAT      O68278   5.855   0.603   3.415
22679WAT     H168279   5.840   0.605   3.513
22679WAT     H268280   5.945   0.563   3.396
22680WAT      O68281   8.251   0.205   6.129
22680WAT     H168282   8.187   0.195   6.204
22680WAT     H268283   8.344   0.219   6.165
22681WAT      O68284   2.126   1.103   1.716
22681WAT     H168285   2.101   1.008   1.732
22681WAT     H268286   2.139   1.149   1.804
22682WAT      O68287   4.820   4.228   5.529
22682WAT     H168288   4.824   4.239   5.430
22682WAT     H268289   4.912   4.234   5.567
22683WAT      O68290   3.255   8.014   6.979
22683WAT     H168291   3.195   8.093   6.993
22683WAT     H268292   3.235   7.974   6.889
22684WAT      O68293   1.841   4.104   0.226
22684WAT     H168294   1.923   4.060   0.190
22684WAT     H268295   1.863   4.151   0.312
22685WAT      O68296   0.767   8.888   6.801
22685WAT     H168297   0.692   8.901   6.866
22685WAT     H268298   0.733   8.901   6.708
22686WAT      O68299   5.581   7.099   5.278
22686WAT     H168300   5.488   7.066   5.297
22686WAT     H268301   5.576   7.176   5.214
22687WAT      O68302   9.417   7.956   6.369
22687WAT     H168303   9.509   7.957   6.408
22687WAT     H268304   9.383   7.862   6.367
22688WAT      O68305   1.350   7.314   7.584
22688WAT     H168306   1.446   7.341   7.579
22688WAT     H268307   1.303   7.371   7.652
22689WAT      O68308   3.597   4.702   6.564
22689WAT     H168309   3.520   4.691   6.501
22689WAT     H268310   3.624   4.612   6.599
22690WAT      O68311   6.444   6.263   1.965
22690WAT     H168312   6.440   6.229   1.871
22690WAT     H268313   6.382   6.340   1.975
22691WAT      O68314   6.085   5.032   4.991
22691WAT     H168315   6.006   5.085   4.963
22691WAT     H268316   6.104   5.047   5.088
22692WAT      O68317   4.718   5.158   3.109
22692WAT     H168318   4.754   5.249   3.088
22692WAT     H268319   4.772   5.118   3.184
22693WAT      O68320   4.683   6.010   2.883
22693WAT     H168321   4.673   6.079   2.811
22693WAT     H268322   4.730   6.051   2.962
22694WAT      O68323   1.491   8.921   8.667
22694WAT     H168324   1.547   8.858   8.722
22694WAT     H268325   1.405   8.939   8.715
22695WAT      O68326   6.500   3.526   9.728
22695WAT     H168327   6.431   3.542   9.798
22695WAT     H268328   6.464   3.552   9.638
22696WAT      O68329   0.722   7.460   4.901
22696WAT     H168330   0.780   7.391   4.945
22696WAT     H268331   0.775   7.509   4.832
22697WAT      O68332   2.361   1.422   7.233
22697WAT     H168333   2.351   1.403   7.136
22697WAT     H268334   2.271   1.426   7.277
22698WAT      O68335   6.531   8.409   6.683
22698WAT     H168336   6.588   8.381   6.760
22698WAT     H268337   6.517   8.508   6.686
22699WAT      O68338   2.630   5.098   0.127
22699WAT     H168339   2.639   5.144   0.039
22699WAT     H268340   2.656   5.002   0.118
22700WAT      O68341   0.862   4.000   6.277
22700WAT     H168342   0.801   3.929   6.243
22700WAT     H268343   0.952   3.962   6.293
22701WAT      O68344   0.823   6.357   8.481
22701WAT     H168345   0.760   6.309   8.421
22701WAT     H268346   0.772   6.424   8.536
22702WAT      O68347   5.030   1.543   2.992
22702WAT     H168348   5.000   1.526   3.086
22702WAT     H268349   5.014   1.639   2.969
22703WAT      O68350   9.467   5.770   9.008
22703WAT     H168351   9.387   5.812   9.051
22703WAT     H268352   9.540   5.762   9.076
22704WAT      O68353   7.469   7.729   7.396
22704WAT     H168354   7.426   7.657   7.342
22704WAT     H268355   7.401   7.770   7.457
22705WAT      O68356   4.816   5.080   7.243
22705WAT     H168357   4.892   5.138   7.271
22705WAT     H268358   4.730   5.132   7.249
22706WAT      O68359   3.216   6.582   9.608
22706WAT     H168360   3.280   6.658   9.597
22706WAT     H268361   3.123   6.618   9.618
22707WAT      O68362   9.810   8.174   8.807
22707WAT     H168363   9.818   8.099   8.741
22707WAT     H268364   9.786   8.258   8.759
22708WAT      O68365   0.243   7.122   2.687
22708WAT     H168366   0.327   7.078   2.652
22708WAT     H268367   0.236   7.214   2.648
22709WAT      O68368   5.986   3.642   1.400
22709WAT     H168369   5.956   3.547   1.412
22709WAT     H268370   5.949   3.677   1.314
22710WAT      O68371   4.796   8.320   0.034
22710WAT     H168372   4.886   8.281   0.056
22710WAT     H268373   4.752   8.352   0.118
22711WAT      O68374   7.860   8.968   9.638
22711WAT     H168375   7.950   8.962   9.593
22711WAT     H268376   7.872   8.994   9.734
22712WAT      O68377   5.609   2.719   9.411
22712WAT     H168378   5.638   2.806   9.451
22712WAT     H268379   5.686   2.655   9.411
22713WAT      O68380   1.963   5.191   7.756
22713WAT     H168381   1.962   5.289   7.773
22713WAT     H268382   1.949   5.173   7.659
22714WAT      O68383   6.944   8.420   4.643
22714WAT     H168384   6.871   8.399   4.708
22714WAT     H268385   6.935   8.361   4.563
22715WAT      O68386   4.000   1.212   5.634
22715WAT     H168387   3.993   1.143   5.561
22715WAT     H268388   3.928   1.195   5.702
22716WAT      O68389   3.120   5.420   4.016
22716WAT     H168390   3.161   5.331   4.035
22716WAT     H268391   3.189   5.492   4.026
22717WAT      O68392   6.732   4.021   7.321
22717WAT     H168393   6.682   3.963   7.258
22717WAT     H268394   6.738   4.114   7.284
22718WAT      O68395   3.096   6.829   5.840
22718WAT     H168396   3.152   6.747   5.829
22718WAT     H268397   3.019   6.825   5.776
22719WAT      O68398   3.266   2.384   6.513
22719WAT     H168399   3.257   2.292   6.476
22719WAT     H268400   3.354   2.423   6.487
22720WAT      O68401   3.813   7.606   5.155
22720WAT     H168402   3.788   7.562   5.069
22720WAT     H268403   3.871   7.685   5.137
22721WAT      O68404   6.948   5.224   2.098
22721WAT     H168405   6.909   5.244   2.009
22721WAT     H268406   7.047   5.242   2.096
22722WAT      O68407   5.737   3.516   2.404
22722WAT     H168408   5.695   3.478   2.487
22722WAT     H268409   5.806   3.584   2.429
22723WAT      O68410   0.915   4.069   9.365
22723WAT     H168411   0.985   4.102   9.428
22723WAT     H268412   0.938   3.976   9.336
22724WAT      O68413   1.412   6.937   4.492
22724WAT     H168414   1.325   6.963   4.450
22724WAT     H268415   1.483   7.000   4.462
22725WAT      O68416   0.520   0.865   7.512
22725WAT     H168417   0.574   0.784   7.487
22725WAT     H268418   0.576   0.925   7.569
22726WAT      O68419   2.123   2.146   2.098
22726WAT     H168420   2.119   2.080   2.023
22726WAT     H268421   2.138   2.238   2.060
22727WAT      O68422   5.237   1.678   3.989
22727WAT     H168423   5.317   1.690   4.048
22727WAT     H268424   5.261   1.621   3.910
22728WAT      O68425   0.319   0.527   0.978
22728WAT     H168426   0.260   0.589   1.031
22728WAT     H268427   0.367   0.465   1.039
22729WAT      O68428   8.560   5.475   1.939
22729WAT     H168429   8.636   5.511   1.993
22729WAT     H268430   8.478   5.529   1.957
22730WAT      O68431   3.461   8.953   5.307
22730WAT     H168432   3.491   9.037   5.263
22730WAT     H268433   3.390   8.909   5.251
22731WAT      O68434   4.552   8.560   1.761
22731WAT     H168435   4.616   8.549   1.685
22731WAT     H268436   4.589   8.626   1.827
22732WAT      O68437   6.464   2.428   9.376
22732WAT     H168438   6.372   2.393   9.392
22732WAT     H268439   6.492   2.485   9.453
22733WAT      O68440   3.295   6.181   8.127
22733WAT     H168441   3.198   6.165   8.143
22733WAT     H268442   3.308   6.228   8.039
22734WAT      O68443   8.618   4.652   6.586
22734WAT     H168444   8.700   4.708   6.595
22734WAT     H268445   8.539   4.711   6.571
22735WAT      O68446   2.606   4.604   7.601
22735WAT     H168447   2.641   4.522   7.648
22735WAT     H268448   2.590   4.676   7.668
22736WAT      O68449   2.731   2.909   5.162
22736WAT     H168450   2.759   3.005   5.158
22736WAT     H268451   2.726   2.880   5.258
22737WAT      O68452   6.430   6.313   9.398
22737WAT     H168453   6.510   6.255   9.413
22737WAT     H268454   6.380   6.324   9.484
22738WAT      O68455   0.482   2.204   8.784
22738WAT     H168456   0.568   2.254   8.771
22738WAT     H268457   0.501   2.117   8.829
22739WAT      O68458   0.924   9.491   3.833
22739WAT     H168459   0.845   9.446   3.790
22739WAT     H268460   0.925   9.471   3.930
22740WAT      O68461   8.314   6.447   5.883
22740WAT     H168462   8.304   6.449   5.783
22740WAT     H268463   8.224   6.437   5.925
22741WAT      O68464   0.048   6.483   6.470
22741WAT     H168465  -0.004   6.415   6.418
22741WAT     H268466  -0.007   6.566   6.480
22742WAT      O68467   7.319   6.872   6.435
22742WAT     H168468   7.234   6.839   6.395
22742WAT     H268469   7.309   6.882   6.534
22743WAT      O68470   6.876   2.302   5.908
22743WAT     H168471   6.819   2.322   5.987
22743WAT     H268472   6.923   2.215   5.921
22744WAT      O68473   1.802   8.240   0.929
22744WAT     H168474   1.758   8.173   0.990
22744WAT     H268475   1.771   8.225   0.835
22745WAT      O68476   8.075   3.633   3.092
22745WAT     H168477   8.120   3.544   3.082
22745WAT     H268478   8.117   3.699   3.028
22746WAT      O68479   9.505   0.514   9.685
22746WAT     H168480   9.476   0.466   9.768
22746WAT     H268481   9.432   0.574   9.654
22747WAT      O68482   6.589   5.550   1.475
22747WAT     H168483   6.651   5.611   1.525
22747WAT     H268484   6.549   5.484   1.539
22748WAT      O68485   5.481   6.338   8.124
22748WAT     H168486   5.474   6.376   8.032
22748WAT     H268487   5.408   6.374   8.181
22749WAT      O68488   6.933   7.690   9.549
22749WAT     H168489   6.904   7.644   9.466
22749WAT     H268490   6.969   7.622   9.614
22750WAT      O68491   2.185   8.031   0.427
22750WAT     H168492   2.271   8.064   0.390
22750WAT     H268493   2.121   8.107   0.436
22751WAT      O68494   8.419   6.402   4.002
22751WAT     H168495   8.518   6.395   3.990
22751WAT     H268496   8.395   6.376   4.096
22752WAT      O68497   2.425   6.270   2.140
22752WAT     H168498   2.369   6.345   2.105
22752WAT     H268499   2.420   6.193   2.077
22753WAT      O68500   2.074   9.350   2.070
22753WAT     H168501   1.983   9.389   2.076
22753WAT     H268502   2.132   9.389   2.141
22754WAT      O68503   4.163   1.563   0.866
22754WAT     H168504   4.145   1.491   0.933
22754WAT     H268505   4.182   1.523   0.777
22755WAT      O68506   1.621   5.350   7.568
22755WAT     H168507   1.625   5.296   7.484
22755WAT     H268508   1.573   5.298   7.638
22756WAT      O68509   5.114   0.190   5.653
22756WAT     H168510   5.018   0.179   5.680
22756WAT     H268511   5.121   0.188   5.553
22757WAT      O68512   7.241   4.205   8.318
22757WAT     H168513   7.198   4.181   8.231
22757WAT     H268514   7.241   4.124   8.378
22758WAT      O68515   4.084   1.620   6.531
22758WAT     H168516   4.131   1.563   6.465
22758WAT     H268517   3.986   1.625   6.508
22759WAT      O68518   2.152   1.672   1.314
22759WAT     H168519   2.181   1.767   1.326
22759WAT     H268520   2.054   1.665   1.332
22760WAT      O68521   7.460   2.950   8.017
22760WAT     H168522   7.374   2.991   7.987
22760WAT     H268523   7.501   2.900   7.941
22761WAT      O68524   8.629   0.432   3.411
22761WAT     H168525   8.581   0.517   3.431
22761WAT     H268526   8.565   0.365   3.375
22762WAT      O68527   7.546   9.770   5.715
22762WAT     H168528   7.549   9.815   5.625
22762WAT     H268529   7.472   9.810   5.770
22763WAT      O68530   5.884   7.892   4.299
22763WAT     H168531   5.969   7.912   4.347
22763WAT     H268532   5.818   7.852   4.363
22764WAT      O68533   0.281   5.993   2.548
22764WAT     H168534   0.236   5.973   2.635
22764WAT     H268535   0.212   6.007   2.477
22765WAT      O68536   5.535   4.863   7.737
22765WAT     H168537   5.564   4.783   7.685
22765WAT     H268538   5.438   4.854   7.760
22766WAT      O68539   9.758   7.549   5.749
22766WAT     H168540   9.838   7.563   5.689
22766WAT     H268541   9.692   7.491   5.702
22767WAT      O68542   4.854   9.514   5.312
22767WAT     H168543   4.914   9.484   5.238
22767WAT     H268544   4.908   9.565   5.379
22768WAT      O68545   9.019   8.505   1.144
22768WAT     H168546   8.928   8.528   1.179
22768WAT     H268547   9.088   8.542   1.206
22769WAT      O68548   7.819   4.666   2.745
22769WAT     H168549   7.813   4.654   2.845
22769WAT     H268550   7.756   4.602   2.700
22770WAT      O68551   0.431   0.628   6.065
22770WAT     H168552   0.391   0.720   6.067
22770WAT     H268553   0.429   0.589   6.157
22771WAT      O68554   8.513   8.985   8.310
22771WAT     H168555   8.425   9.017   8.345
22771WAT     H268556   8.508   8.973   8.211
22772WAT      O68557   4.410   3.662   5.530
22772WAT     H168558   4.490   3.723   5.526
22772WAT     H268559   4.439   3.574   5.567
22773WAT      O68560   3.757   7.250   6.784
22773WAT     H168561   3.826   7.315   6.815
22773WAT     H268562   3.681   7.248   6.850
22774WAT      O68563   5.175   1.717   3.575
22774WAT     H168564   5.076   1.728   3.563
22774WAT     H268565   5.193   1.659   3.654
22775WAT      O68566   5.449   7.619   7.608
22775WAT     H168567   5.487   7.616   7.701
22775WAT     H268568   5.432   7.526   7.576
22776WAT      O68569   0.286   4.773   5.984
22776WAT     H168570   0.356   4.722   5.935
22776WAT     H268571   0.310   4.779   6.081
22777WAT      O68572   4.923   0.956   8.379
22777WAT     H168573   4.991   0.882   8.377
22777WAT     H268574   4.833   0.917   8.395
22778WAT      O68575   1.365   9.801   8.710
22778WAT     H168576   1.357   9.900   8.714
22778WAT     H268577   1.280   9.759   8.742
22779WAT      O68578   1.509   5.163   8.653
22779WAT     H168579   1.509   5.084   8.593
22779WAT     H268580   1.415   5.197   8.662
22780WAT      O68581   0.620   7.519   3.955
22780WAT     H168582   0.561   7.457   3.904
22780WAT     H268583   0.644   7.597   3.897
22781WAT      O68584   3.340   4.712   0.092
22781WAT     H168585   3.392   4.749   0.015
22781WAT     H268586   3.341   4.777   0.168
22782WAT      O68587   6.629   7.710   8.246
22782WAT     H168588   6.676   7.622   8.233
22782WAT     H268589   6.570   7.727   8.167
22783WAT      O68590   5.774   4.042   2.278
22783WAT     H168591   5.755   4.064   2.182
22783WAT     H268592   5.822   3.954   2.282
22784WAT      O68593   3.245   8.104   2.936
22784WAT     H168594   3.274   8.024   2.883
22784WAT     H268595   3.202   8.171   2.875
22785WAT      O68596   1.069   6.985   2.349
22785WAT     H168597   1.145   7.050   2.355
22785WAT     H268598   1.069   6.942   2.259
22786WAT      O68599   0.327   5.459   7.804
22786WAT     H168600   0.360   5.521   7.875
22786WAT     H268601   0.350   5.365   7.829
22787WAT      O68602   3.490   2.145   6.136
22787WAT     H168603   3.398   2.144   6.175
22787WAT     H268604   3.509   2.056   6.094
22788WAT      O68605   4.818   1.597   8.717
22788WAT     H168606   4.813   1.534   8.640
22788WAT     H268607   4.913   1.613   8.742
22789WAT      O68608   1.528   1.202   2.226
22789WAT     H168609   1.507   1.111   2.192
22789WAT     H268610   1.620   1.229   2.198
22790WAT      O68611   3.853   8.563   3.511
22790WAT     H168612   3.910   8.606   3.581
22790WAT     H268613   3.766   8.612   3.503
22791WAT      O68614   6.810   8.804   4.588
22791WAT     H168615   6.798   8.901   4.567
22791WAT     H268616   6.740   8.750   4.540
22792WAT      O68617   2.230   1.552   1.069
22792WAT     H168618   2.219   1.576   1.165
22792WAT     H268619   2.271   1.461   1.061
22793WAT      O68620   3.969   7.111   8.643
22793WAT     H168621   4.041   7.075   8.704
22793WAT     H268622   3.880   7.103   8.688
22794WAT      O68623   1.073   5.365   6.945
22794WAT     H168624   1.100   5.461   6.935
22794WAT     H268625   1.119   5.310   6.875
22795WAT      O68626   4.631   1.270   5.161
22795WAT     H168627   4.568   1.237   5.091
22795WAT     H268628   4.622   1.215   5.244
22796WAT      O68629   6.246   4.704   1.424
22796WAT     H168630   6.248   4.803   1.437
22796WAT     H268631   6.196   4.661   1.499
22797WAT      O68632   9.581   2.992   7.307
22797WAT     H168633   9.533   2.919   7.356
22797WAT     H268634   9.650   2.951   7.247
22798WAT      O68635   0.914   4.287   3.076
22798WAT     H168636   0.824   4.320   3.046
22798WAT     H268637   0.902   4.203   3.129
22799WAT      O68638   0.759   4.635   5.094
22799WAT     H168639   0.779   4.552   5.043
22799WAT     H268640   0.790   4.624   5.189
22800WAT      O68641   4.105   3.852   2.123
22800WAT     H168642   4.063   3.854   2.033
22800WAT     H268643   4.143   3.942   2.144
22801WAT      O68644   1.855   0.768   2.877
22801WAT     H168645   1.781   0.835   2.887
22801WAT     H268646   1.832   0.685   2.928
22802WAT      O68647   0.515   4.010   1.344
22802WAT     H168648   0.595   4.012   1.404
22802WAT     H268649   0.443   4.069   1.383
22803WAT      O68650   0.997   6.972   6.337
22803WAT     H168651   0.992   6.873   6.322
22803WAT     H268652   1.085   6.995   6.378
22804WAT      O68653   2.764   7.062   8.289
22804WAT     H168654   2.714   7.059   8.375
22804WAT     H268655   2.840   6.997   8.291
22805WAT      O68656   3.436   3.656   4.445
22805WAT     H168657   3.413   3.670   4.348
22805WAT     H268658   3.390   3.574   4.478
22806WAT      O68659   5.891   4.130   9.219
22806WAT     H168660   5.921   4.036   9.230
22806WAT     H268661   5.863   4.167   9.307
22807WAT      O68662   7.225   4.464   9.872
22807WAT     H168663   7.247   4.542   9.814
22807WAT     H268664   7.138   4.480   9.919
22808WAT      O68665   4.610   8.315   7.294
22808WAT     H168666   4.658   8.344   7.377
22808WAT     H268667   4.538   8.382   7.273
22809WAT      O68668   7.802   0.990   1.925
22809WAT     H168669   7.804   0.918   1.855
22809WAT     H268670   7.824   1.078   1.883
22810WAT      O68671   7.017   5.140   0.554
22810WAT     H168672   7.082   5.101   0.489
22810WAT     H268673   6.998   5.072   0.626
22811WAT      O68674   7.034   9.024   3.182
22811WAT     H168675   7.059   9.067   3.269
22811WAT     H268676   7.008   9.095   3.117
22812WAT      O68677   7.983   6.741   8.488
22812WAT     H168678   7.931   6.742   8.403
22812WAT     H268679   8.077   6.770   8.470
22813WAT      O68680   1.917   1.822   8.055
22813WAT     H168681   1.963   1.758   8.117
22813WAT     H268682   1.839   1.776   8.013
22814WAT      O68683   0.945   1.618   3.021
22814WAT     H168684   0.928   1.573   3.109
22814WAT     H268685   0.933   1.552   2.947
22815WAT      O68686   0.992   6.481   4.965
22815WAT     H168687   1.011   6.560   5.024
22815WAT     H268688   0.914   6.430   5.002
22816WAT      O68689   7.383   0.774   4.636
22816WAT     H168690   7.349   0.855   4.683
22816WAT     H268691   7.374   0.787   4.537
22817WAT      O68692   8.090   1.965   7.764
22817WAT     H168693   8.007   2.017   7.784
22817WAT     H268694   8.082   1.922   7.674
22818WAT      O68695   0.457   0.110   2.257
22818WAT     H168696   0.395   0.188   2.244
22818WAT     H268697   0.410   0.025   2.234
22819WAT      O68698   9.671   9.233   3.909
22819WAT     H168699   9.642   9.169   3.980
22819WAT     H268700   9.598   9.300   3.893
22820WAT      O68701   6.449   1.863   0.826
22820WAT     H168702   6.533   1.855   0.773
22820WAT     H268703   6.376   1.897   0.767
22821WAT      O68704   7.999   2.292   4.029
22821WAT     H168705   7.972   2.285   4.125
22821WAT     H268706   8.080   2.236   4.013
22822WAT      O68707   8.091   2.063   4.488
22822WAT     H168708   8.089   2.047   4.587
22822WAT     H268709   8.026   2.002   4.443
22823WAT      O68710   8.002   6.255   6.605
22823WAT     H168711   7.924   6.310   6.575
22823WAT     H268712   8.077   6.315   6.631
22824WAT      O68713   6.801   9.075   1.569
22824WAT     H168714   6.715   9.031   1.595
22824WAT     H268715   6.867   9.067   1.644
22825WAT      O68716   9.203   7.177   6.355
22825WAT     H168717   9.131   7.202   6.419
22825WAT     H268718   9.250   7.259   6.324
22826WAT      O68719   2.969   4.884   3.700
22826WAT     H168720   3.068   4.894   3.703
22826WAT     H268721   2.930   4.956   3.643
22827WAT      O68722   1.367   6.981   7.229
22827WAT     H168723   1.426   7.033   7.167
22827WAT     H268724   1.369   7.023   7.319
22828WAT      O68725   2.458   0.640   7.351
22828WAT     H168726   2.533   0.704   7.338
22828WAT     H268727   2.476   0.583   7.432
22829WAT      O68728   6.516   8.996   5.302
22829WAT     H168729   6.454   8.939   5.248
22829WAT     H268730   6.465   9.074   5.338
22830WAT      O68731   3.412   5.786   6.914
22830WAT     H168732   3.480   5.831   6.855
22830WAT     H268733   3.456   5.713   6.965
22831WAT      O68734   4.080   3.577   9.502
22831WAT     H168735   4.139   3.499   9.479
22831WAT     H268736   4.027   3.556   9.584
22832WAT      O68737   4.015   5.775   8.656
22832WAT     H168738   4.085   5.738   8.717
22832WAT     H268739   3.927   5.731   8.675
22833WAT      O68740   7.919   1.370   8.131
22833WAT     H168741   7.986   1.400   8.198
22833WAT     H268742   7.871   1.450   8.093
22834WAT      O68743   3.179   0.580   9.300
22834WAT     H168744   3.209   0.596   9.206
22834WAT     H268745   3.123   0.497   9.303
22835WAT      O68746   2.223   8.525   0.169
22835WAT     H168747   2.213   8.470   0.252
22835WAT     H268748   2.317   8.558   0.162
22836WAT      O68749   7.979   9.503   1.109
22836WAT     H168750   7.906   9.445   1.073
22836WAT     H268751   8.048   9.517   1.038
22837WAT      O68752   9.185   0.456   9.727
22837WAT     H168753   9.184   0.473   9.628
22837WAT     H268754   9.266   0.501   9.767
22838WAT      O68755   1.570   0.340   5.150
22838WAT     H168756   1.589   0.423   5.096
22838WAT     H268757   1.594   0.260   5.095
22839WAT      O68758   9.855   3.145   3.148
22839WAT     H168759   9.774   3.107   3.193
22839WAT     H268760   9.848   3.132   3.049
22840WAT      O68761   0.420   6.254   5.719
22840WAT     H168762   0.343   6.201   5.683
22840WAT     H268763   0.490   6.192   5.753
22841WAT      O68764   8.364   6.154   8.280
22841WAT     H168765   8.436   6.177   8.346
22841WAT     H268766   8.402   6.096   8.208
22842WAT      O68767   4.241   6.310   2.181
22842WAT     H168768   4.224   6.371   2.105
22842WAT     H268769   4.292   6.358   2.253
22843WAT      O68770   8.213   0.671   1.315
22843WAT     H168771   8.269   0.665   1.232
22843WAT     H268772   8.263   0.631   1.392
22844WAT      O68773   9.794   9.705   0.287
22844WAT     H168774   9.838   9.651   0.215
22844WAT     H268775   9.806   9.660   0.375
22845WAT      O68776   0.874   7.161   4.803
22845WAT     H168777   0.875   7.184   4.900
22845WAT     H268778   0.958   7.195   4.760
22846WAT      O68779   9.817   3.220   4.423
22846WAT     H168780   9.794   3.317   4.423
22846WAT     H268781   9.756   3.170   4.484
22847WAT      O68782   7.210   2.012   1.213
22847WAT     H168783   7.230   1.914   1.210
22847WAT     H268784   7.171   2.040   1.125
22848WAT      O68785   2.227   4.797   2.679
22848WAT     H168786   2.246   4.775   2.774
22848WAT     H268787   2.310   4.829   2.634
22849WAT      O68788   7.565   1.778   5.149
22849WAT     H168789   7.646   1.757   5.094
22849WAT     H268790   7.592   1.816   5.237
22850WAT      O68791   9.815   9.679   3.171
22850WAT     H168792   9.716   9.677   3.162
22850WAT     H268793   9.848   9.773   3.161
22851WAT      O68794   4.952   7.138   9.006
22851WAT     H168795   4.905   7.172   8.924
22851WAT     H268796   4.907   7.054   9.038
22852WAT      O68797   4.052   0.081   3.659
22852WAT     H168798   4.022   0.083   3.563
22852WAT     H268799   4.127   0.015   3.669
22853WAT      O68800   7.319   5.089   0.770
22853WAT     H168801   7.268   5.060   0.851
22853WAT     H268802   7.407   5.128   0.798
22854WAT      O68803   9.155   7.703   3.774
22854WAT     H168804   9.201   7.663   3.854
22854WAT     H268805   9.058   7.682   3.778
22855WAT      O68806   3.059   2.151   3.448
22855WAT     H168807   3.067   2.188   3.355
22855WAT     H268808   2.991   2.205   3.499
22856WAT      O68809   3.569   3.332   9.697
22856WAT     H168810   3.613   3.248   9.663
22856WAT     H268811   3.470   3.326   9.680
22857WAT      O68812   6.328   3.460   0.277
22857WAT     H168813   6.382   3.529   0.230
22857WAT     H268814   6.314   3.488   0.372
22858WAT      O68815   4.838   9.734   1.749
22858WAT     H168816   4.924   9.698   1.787
22858WAT     H268817   4.770   9.661   1.748
22859WAT      O68818   4.033   8.795   0.493
22859WAT     H168819   4.050   8.765   0.587
22859WAT     H268820   4.118   8.831   0.454
22860WAT      O68821   0.906   7.153   3.795
22860WAT     H168822   1.005   7.158   3.805
22860WAT     H268823   0.870   7.244   3.772
22861WAT      O68824   3.506   0.296   8.417
22861WAT     H168825   3.518   0.239   8.498
22861WAT     H268826   3.529   0.243   8.335
22862WAT      O68827   6.467   4.151   0.272
22862WAT     H168828   6.532   4.227   0.265
22862WAT     H268829   6.395   4.163   0.203
22863WAT      O68830   7.581   3.812   8.225
22863WAT     H168831   7.551   3.906   8.241
22863WAT     H268832   7.666   3.795   8.276
22864WAT      O68833   3.561   0.184   3.551
22864WAT     H168834   3.470   0.187   3.508
22864WAT     H268835   3.627   0.147   3.485
22865WAT      O68836   1.043   1.533   1.044
22865WAT     H168837   0.954   1.555   1.006
22865WAT     H268838   1.110   1.523   0.971
22866WAT      O68839   2.903   1.423   7.414
22866WAT     H168840   2.998   1.456   7.412
22866WAT     H268841   2.883   1.374   7.329
22867WAT      O68842   2.409   9.417   6.637
22867WAT     H168843   2.500   9.387   6.665
22867WAT     H268844   2.344   9.341   6.647
22868WAT      O68845   3.540   1.684   4.646
22868WAT     H168846   3.510   1.589   4.629
22868WAT     H268847   3.497   1.718   4.730
22869WAT      O68848   3.268   2.361   3.056
22869WAT     H168849   3.304   2.430   2.992
22869WAT     H268850   3.256   2.274   3.009
22870WAT      O68851   3.301   5.106   8.508
22870WAT     H168852   3.211   5.065   8.518
22870WAT     H268853   3.301   5.198   8.548
22871WAT      O68854   4.604   4.053   7.573
22871WAT     H168855   4.570   4.043   7.480
22871WAT     H268856   4.531   4.087   7.632
22872WAT      O68857   3.207   6.624   4.727
22872WAT     H168858   3.125   6.625   4.670
22872WAT     H268859   3.231   6.530   4.750
22873WAT      O68860   0.941   8.723   3.250
22873WAT     H168861   0.890   8.781   3.187
22873WAT     H268862   0.905   8.735   3.343
22874WAT      O68863   1.999   3.394   6.275
22874WAT     H168864   1.967   3.462   6.209
22874WAT     H268865   1.940   3.314   6.271
22875WAT      O68866   0.010   0.106   9.184
22875WAT     H168867  -0.025   0.168   9.254
22875WAT     H268868   0.079   0.046   9.223
22876WAT      O68869   5.409   2.882   6.687
22876WAT     H168870   5.487   2.822   6.670
22876WAT     H268871   5.356   2.848   6.764
22877WAT      O68872   8.295   7.214   7.959
22877WAT     H168873   8.195   7.208   7.966
22877WAT     H268874   8.336   7.144   8.018
22878WAT      O68875   6.411   5.917   6.085
22878WAT     H168876   6.461   6.001   6.064
22878WAT     H268877   6.449   5.841   6.031
22879WAT      O68878   1.044   2.453   6.467
22879WAT     H168879   0.948   2.442   6.439
22879WAT     H268880   1.048   2.462   6.566
22880WAT      O68881   5.622   5.605   6.117
22880WAT     H168882   5.623   5.509   6.091
22880WAT     H268883   5.712   5.645   6.101
22881WAT      O68884   6.463   7.653   1.086
22881WAT     H168885   6.394   7.583   1.067
22881WAT     H268886   6.426   7.720   1.149
22882WAT      O68887   2.299   4.502   8.611
22882WAT     H168888   2.213   4.458   8.584
22882WAT     H268889   2.376   4.443   8.585
22883WAT      O68890   4.637   9.168   4.540
22883WAT     H168891   4.594   9.257   4.558
22883WAT     H268892   4.652   9.120   4.627
22884WAT      O68893   6.139   6.666   9.265
22884WAT     H168894   6.219   6.628   9.219
22884WAT     H268895   6.056   6.634   9.219
22885WAT      O68896   2.918   8.567   4.364
22885WAT     H168897   2.920   8.661   4.396
22885WAT     H268898   2.984   8.512   4.416
22886WAT      O68899   6.685   9.423   3.151
22886WAT     H168900   6.645   9.422   3.243
22886WAT     H268901   6.713   9.331   3.125
22887WAT      O68902   1.061   8.345   8.119
22887WAT     H168903   1.019   8.410   8.181
22887WAT     H268904   1.161   8.354   8.123
22888WAT      O68905   3.299   7.086   9.444
22888WAT     H168906   3.199   7.090   9.434
22888WAT     H268907   3.341   7.071   9.354
22889WAT      O68908   7.258   4.032   2.612
22889WAT     H168909   7.311   4.116   2.606
22889WAT     H268910   7.265   3.994   2.704
22890WAT      O68911   1.480   8.075   6.267
22890WAT     H168912   1.514   8.120   6.184
22890WAT     H268913   1.556   8.055   6.328
22891WAT      O68914   4.124   7.594   3.537
22891WAT     H168915   4.221   7.589   3.512
22891WAT     H268916   4.096   7.508   3.580
22892WAT      O68917   0.796   8.944   1.105
22892WAT     H168918   0.889   8.941   1.141
22892WAT     H268919   0.763   9.038   1.106
22893WAT      O68920   5.169   3.799   2.056
22893WAT     H168921   5.116   3.781   1.973
22893WAT     H268922   5.260   3.834   2.031
22894WAT      O68923   9.056   0.284   1.456
22894WAT     H168924   9.107   0.198   1.453
22894WAT     H268925   8.967   0.271   1.410
22895WAT      O68926   0.791   5.446   7.755
22895WAT     H168927   0.767   5.467   7.661
22895WAT     H268928   0.889   5.427   7.761
22896WAT      O68929   5.376   5.575   2.357
22896WAT     H168930   5.356   5.504   2.290
22896WAT     H268931   5.343   5.663   2.323
22897WAT      O68932   7.774   3.283   2.284
22897WAT     H168933   7.718   3.200   2.291
22897WAT     H268934   7.798   3.298   2.188
22898WAT      O68935   7.986   1.503   1.508
22898WAT     H168936   7.888   1.483   1.505
22898WAT     H268937   8.032   1.435   1.564
22899WAT      O68938   3.032   1.478   3.577
22899WAT     H168939   2.951   1.420   3.572
22899WAT     H268940   3.039   1.517   3.669
22900WAT      O68941   6.167   3.943   0.308
22900WAT     H168942   6.201   4.035   0.325
22900WAT     H268943   6.173   3.889   0.393
22901WAT      O68944   7.505   0.677   6.099
22901WAT     H168945   7.439   0.750   6.114
22901WAT     H268946   7.461   0.601   6.053
22902WAT      O68947   0.397   7.985   1.805
22902WAT     H168948   0.363   8.079   1.809
22902WAT     H268949   0.468   7.972   1.874
22903WAT      O68950   7.918   3.175   0.251
22903WAT     H168951   7.897   3.079   0.270
22903WAT     H268952   8.016   3.191   0.260
22904WAT      O68953   5.472   3.002   3.364
22904WAT     H168954   5.557   2.974   3.319
22904WAT     H268955   5.402   3.019   3.295
22905WAT      O68956   5.447   4.677   8.855
22905WAT     H168957   5.532   4.730   8.864
22905WAT     H268958   5.453   4.618   8.775
22906WAT      O68959   7.723   9.322   7.640
22906WAT     H168960   7.652   9.362   7.582
22906WAT     H268961   7.780   9.396   7.678
22907WAT      O68962   7.245   2.297   3.262
22907WAT     H168963   7.174   2.366   3.247
22907WAT     H268964   7.310   2.331   3.330
22908WAT      O68965   0.265   4.187   0.492
22908WAT     H168966   0.189   4.161   0.432
22908WAT     H268967   0.350   4.191   0.438
22909WAT      O68968   3.503   2.033   3.688
22909WAT     H168969   3.524   2.126   3.656
22909WAT     H268970   3.441   1.989   3.624
22910WAT      O68971   6.715   8.720   0.058
22910WAT     H168972   6.694   8.789   0.127
22910WAT     H268973   6.801   8.745   0.012
22911WAT      O68974   4.676   7.830   9.811
22911WAT     H168975   4.711   7.742   9.781
22911WAT     H268976   4.624   7.818   9.895
22912WAT      O68977   4.596   1.371   3.884
22912WAT     H168978   4.548   1.449   3.842
22912WAT     H268979   4.530   1.315   3.934
22913WAT      O68980   9.304   1.443   1.227
22913WAT     H168981   9.387   1.394   1.198
22913WAT     H268982   9.223   1.395   1.192
22914WAT      O68983   8.423   4.041   4.727
22914WAT     H168984   8.490   4.074   4.794
22914WAT     H268985   8.421   4.101   4.648
22915WAT      O68986   3.620   2.541   2.567
22915WAT     H168987   3.620   2.624   2.511
22915WAT     H268988   3.583   2.465   2.514
22916WAT      O68989   9.354   5.648   7.107
22916WAT     H168990   9.312   5.559   7.123
22916WAT     H268991   9.287   5.720   7.126
22917WAT      O68992   0.488   9.574   5.401
22917WAT     H168993   0.516   9.669   5.420
22917WAT     H268994   0.391   9.563   5.424
22918WAT      O68995   7.126   2.523   3.648
22918WAT     H168996   7.189   2.453   3.681
22918WAT     H268997   7.176   2.589   3.592
22919WAT      O68998   4.326   0.317   6.317
22919WAT     H168999   4.370   0.292   6.403
22919WAT     H269000   4.308   0.234   6.264
22920WAT      O69001   8.705   7.321   5.048
22920WAT     H169002   8.659   7.344   5.134
22920WAT     H269003   8.760   7.399   5.018
22921WAT      O69004   3.992   0.083   0.790
22921WAT     H169005   4.040  -0.001   0.817
22921WAT     H269006   4.024   0.159   0.845
22922WAT      O69007   9.068   3.982   5.941
22922WAT     H169008   9.109   3.894   5.966
22922WAT     H269009   8.970   3.970   5.923
22923WAT      O69010   9.871   9.313   3.738
22923WAT     H169011   9.790   9.284   3.790
22923WAT     H269012   9.854   9.402   3.696
22924WAT      O69013   9.079   1.085   2.949
22924WAT     H169014   9.023   1.162   2.919
22924WAT     H269015   9.026   1.001   2.945
22925WAT      O69016   5.122   7.616   9.361
22925WAT     H169017   5.075   7.600   9.448
22925WAT     H269018   5.083   7.696   9.315
22926WAT      O69019   8.821   8.583   8.345
22926WAT     H169020   8.791   8.540   8.431
22926WAT     H269021   8.829   8.513   8.274
22927WAT      O69022   7.238   0.648   8.935
22927WAT     H169023   7.322   0.594   8.945
22927WAT     H269024   7.159   0.593   8.965
22928WAT      O69025   7.029   2.683   6.298
22928WAT     H169026   7.121   2.702   6.265
22928WAT     H269027   6.969   2.761   6.278
22929WAT      O69028   3.593   9.439   0.414
22929WAT     H169029   3.540   9.472   0.491
22929WAT     H269030   3.683   9.409   0.446
22930WAT      O69031   7.922   6.893   3.315
22930WAT     H169032   7.991   6.821   3.324
22930WAT     H269033   7.943   6.950   3.235
22931WAT      O69034   5.643   1.976   8.066
22931WAT     H169035   5.619   1.913   7.992
22931WAT     H269036   5.560   2.022   8.099
22932WAT      O69037   3.177   1.968   7.121
22932WAT     H169038   3.259   1.931   7.077
22932WAT     H269039   3.101   1.969   7.055
22933WAT      O69040   8.965   5.210   1.150
22933WAT     H169041   9.000   5.240   1.062
22933WAT     H269042   9.040   5.208   1.217
22934WAT      O69043   3.142   3.825   8.022
22934WAT     H169044   3.220   3.886   8.008
22934WAT     H269045   3.099   3.805   7.934
22935WAT      O69046   3.949   6.533   1.315
22935WAT     H169047   4.048   6.538   1.300
22935WAT     H269048   3.922   6.597   1.387
22936WAT      O69049   6.469   5.724   8.707
22936WAT     H169050   6.454   5.691   8.800
22936WAT     H269051   6.476   5.824   8.708
22937WAT      O69052   6.937   4.061   8.174
22937WAT     H169053   6.969   3.981   8.224
22937WAT     H269054   6.982   4.065   8.085
22938WAT      O69055   7.863   6.934   4.789
22938WAT     H169056   7.895   6.897   4.702
22938WAT     H269057   7.862   7.034   4.784
22939WAT      O69058   2.219   6.772   7.146
22939WAT     H169059   2.155   6.699   7.125
22939WAT     H269060   2.292   6.774   7.077
22940WAT      O69061   2.270   3.479   9.004
22940WAT     H169062   2.351   3.529   8.976
22940WAT     H269063   2.270   3.469   9.104
22941WAT      O69064   7.620   1.429   3.460
22941WAT     H169065   7.537   1.484   3.475
22941WAT     H269066   7.691   1.488   3.421
22942WAT      O69067   4.781   0.173   1.893
22942WAT     H169068   4.831   0.091   1.921
22942WAT     H269069   4.691   0.146   1.858
22943WAT      O69070   3.843   9.327   5.700
22943WAT     H169071   3.846   9.306   5.798
22943WAT     H269072   3.873   9.421   5.685
22944WAT      O69073   7.535   4.884   1.044
22944WAT     H169074   7.443   4.911   1.073
22944WAT     H269075   7.568   4.949   0.976
22945WAT      O69076   7.749   0.109   0.434
22945WAT     H169077   7.687   0.149   0.367
22945WAT     H269078   7.796   0.031   0.393
22946WAT      O69079   5.776   1.401   8.748
22946WAT     H169080   5.752   1.426   8.654
22946WAT     H269081   5.861   1.447   8.773
22947WAT      O69082   1.914   8.555   6.511
22947WAT     H169083   1.877   8.644   6.540
22947WAT     H269084   1.918   8.551   6.411
22948WAT      O69085   7.668   2.123   7.782
22948WAT     H169086   7.570   2.141   7.787
22948WAT     H269087   7.693   2.055   7.850
22949WAT      O69088   2.408   6.576   8.679
22949WAT     H169089   2.358   6.651   8.635
22949WAT     H269090   2.505   6.599   8.684
22950WAT      O69091   3.502   6.436   6.518
22950WAT     H169092   3.596   6.461   6.493
22950WAT     H269093   3.439   6.476   6.451
22951WAT      O69094   8.631   8.998   1.631
22951WAT     H169095   8.594   8.969   1.543
22951WAT     H269096   8.686   9.081   1.618
22952WAT      O69097   3.063   9.542   4.290
22952WAT     H169098   3.015   9.532   4.377
22952WAT     H269099   3.161   9.547   4.307
22953WAT      O69100   7.803   8.011   2.791
22953WAT     H169101   7.772   8.096   2.834
22953WAT     H269102   7.826   7.944   2.861
22954WAT      O69103   1.805   4.616   0.180
22954WAT     H169104   1.825   4.543   0.114
22954WAT     H269105   1.740   4.582   0.248
22955WAT      O69106   6.204   5.621   9.588
22955WAT     H169107   6.185   5.524   9.575
22955WAT     H269108   6.298   5.633   9.618
22956WAT      O69109   4.373   6.570   0.720
22956WAT     H169110   4.385   6.625   0.803
22956WAT     H269111   4.427   6.609   0.646
22957WAT      O69112   1.368   4.218   1.484
22957WAT     H169113   1.419   4.229   1.399
22957WAT     H269114   1.408   4.145   1.538
22958WAT      O69115   1.431   4.060   5.192
22958WAT     H169116   1.400   4.153   5.176
22958WAT     H269117   1.527   4.052   5.167
22959WAT      O69118   4.789   8.082   3.476
22959WAT     H169119   4.794   7.984   3.499
22959WAT     H269120   4.695   8.115   3.491
22960WAT      O69121   2.092   3.211   2.824
22960WAT     H169122   2.045   3.265   2.894
22960WAT     H269123   2.076   3.113   2.841
22961WAT      O69124   7.140   6.640   7.199
22961WAT     H169125   7.076   6.587   7.143
22961WAT     H269126   7.105   6.732   7.212
22962WAT      O69127   7.094   1.710   1.122
22962WAT     H169128   7.100   1.752   1.032
22962WAT     H269129   7.166   1.641   1.132
22963WAT      O69130   1.618   7.351   8.920
22963WAT     H169131   1.661   7.351   8.830
22963WAT     H269132   1.686   7.330   8.990
22964WAT      O69133   8.085   6.699   3.378
22964WAT     H169134   8.149   6.712   3.454
22964WAT     H269135   8.111   6.617   3.327
22965WAT      O69136   5.749   2.112   2.167
22965WAT     H169137   5.681   2.118   2.094
22965WAT     H269138   5.798   2.199   2.175
22966WAT      O69139   7.908   2.524   7.879
22966WAT     H169140   7.956   2.461   7.939
22966WAT     H269141   7.915   2.617   7.915
22967WAT      O69142   9.433   0.297   8.526
22967WAT     H169143   9.512   0.252   8.485
22967WAT     H269144   9.372   0.329   8.453
22968WAT      O69145   2.520   0.809   9.531
22968WAT     H169146   2.583   0.750   9.480
22968WAT     H269147   2.530   0.903   9.501
22969WAT      O69148   7.758   5.052   8.396
22969WAT     H169149   7.666   5.056   8.356
22969WAT     H269150   7.795   5.144   8.405
22970WAT      O69151   9.669   4.347   6.478
22970WAT     H169152   9.716   4.418   6.531
22970WAT     H269153   9.714   4.259   6.494
22971WAT      O69154   2.153   6.932   8.251
22971WAT     H169155   2.133   6.971   8.162
22971WAT     H269156   2.119   6.838   8.255
22972WAT      O69157   0.849   1.717   4.350
22972WAT     H169158   0.755   1.733   4.382
22972WAT     H269159   0.913   1.739   4.424
22973WAT      O69160   3.392   1.465   7.529
22973WAT     H169161   3.315   1.472   7.465
22973WAT     H269162   3.356   1.458   7.622
22974WAT      O69163   8.531   6.100   6.914
22974WAT     H169164   8.474   6.130   6.838
22974WAT     H269165   8.478   6.040   6.975
22975WAT      O69166   9.427   3.020   0.327
22975WAT     H169167   9.509   2.965   0.343
22975WAT     H269168   9.348   2.960   0.321
22976WAT      O69169   1.121   2.929   6.255
22976WAT     H169170   1.169   2.857   6.205
22976WAT     H269171   1.185   3.003   6.277
22977WAT      O69172   3.337   5.765   9.173
22977WAT     H169173   3.342   5.691   9.106
22977WAT     H269174   3.408   5.833   9.152
22978WAT      O69175   8.486   2.992   5.764
22978WAT     H169176   8.443   3.049   5.694
22978WAT     H269177   8.462   3.028   5.855
22979WAT      O69178   8.453   3.205   8.195
22979WAT     H169179   8.451   3.107   8.216
22979WAT     H269180   8.541   3.243   8.221
22980WAT      O69181   8.270   7.639   7.505
22980WAT     H169182   8.176   7.612   7.486
22980WAT     H269183   8.271   7.732   7.542
22981WAT      O69184   5.369   7.546   7.963
22981WAT     H169185   5.437   7.574   7.896
22981WAT     H269186   5.335   7.455   7.941
22982WAT      O69187   1.634   4.500   7.652
22982WAT     H169188   1.633   4.417   7.595
22982WAT     H269189   1.697   4.487   7.728
22983WAT      O69190   3.494   2.247   7.672
22983WAT     H169191   3.465   2.305   7.748
22983WAT     H269192   3.421   2.183   7.649
22984WAT      O69193   6.193   7.502   5.591
22984WAT     H169194   6.178   7.451   5.676
22984WAT     H269195   6.157   7.450   5.514
22985WAT      O69196   2.416   0.967   5.128
22985WAT     H169197   2.325   0.927   5.121
22985WAT     H269198   2.430   1.005   5.219
22986WAT      O69199   3.309   9.697   2.626
22986WAT     H169200   3.210   9.711   2.626
22986WAT     H269201   3.332   9.618   2.683
22987WAT      O69202   4.515   2.261   2.703
22987WAT     H169203   4.541   2.186   2.643
22987WAT     H269204   4.519   2.348   2.653
22988WAT      O69205   3.356   6.770   9.271
22988WAT     H169206   3.409   6.756   9.355
22988WAT     H269207   3.368   6.864   9.239
22989WAT      O69208   3.241   5.671   4.991
22989WAT     H169209   3.310   5.704   5.055
22989WAT     H269210   3.271   5.690   4.897
22990WAT      O69211   7.103   3.098   8.591
22990WAT     H169212   7.200   3.091   8.568
22990WAT     H269213   7.085   3.047   8.675
22991WAT      O69214   9.473   2.579   1.471
22991WAT     H169215   9.522   2.599   1.556
22991WAT     H269216   9.375   2.575   1.489
22992WAT      O69217   1.046   5.647   4.002
22992WAT     H169218   0.969   5.683   3.949
22992WAT     H269219   1.101   5.587   3.944
22993WAT      O69220   0.433   5.504   9.047
22993WAT     H169221   0.346   5.457   9.059
22993WAT     H269222   0.468   5.488   8.955
22994WAT      O69223   4.219   0.173   5.646
22994WAT     H169224   4.281   0.252   5.643
22994WAT     H269225   4.245   0.113   5.721
22995WAT      O69226   9.088   6.125   2.651
22995WAT     H169227   9.143   6.042   2.663
22995WAT     H269228   9.148   6.204   2.637
22996WAT      O69229   6.461   0.768   7.874
22996WAT     H169230   6.418   0.811   7.795
22996WAT     H269231   6.398   0.769   7.951
22997WAT      O69232   6.361   2.031   2.873
22997WAT     H169233   6.420   1.950   2.874
22997WAT     H269234   6.416   2.113   2.882
22998WAT      O69235   5.153   0.561   6.818
22998WAT     H169236   5.112   0.569   6.728
22998WAT     H269237   5.088   0.594   6.887
22999WAT      O69238   3.064   7.965   8.102
22999WAT     H169239   3.117   8.035   8.054
22999WAT     H269240   3.112   7.877   8.096
23000WAT      O69241   1.359   7.818   0.404
23000WAT     H169242   1.397   7.734   0.366
23000WAT     H269243   1.265   7.829   0.373
23001WAT      O69244   1.398   6.532   3.916
23001WAT     H169245   1.388   6.436   3.891
23001WAT     H269246   1.491   6.563   3.893
23002WAT      O69247   6.745   6.991   0.975
23002WAT     H169248   6.711   6.897   0.968
23002WAT     H269249   6.828   6.992   1.031
23003WAT      O69250   8.892   5.255   1.749
23003WAT     H169251   8.793   5.269   1.737
23003WAT     H269252   8.921   5.179   1.692
23004WAT      O69253   6.650   2.312   1.761
23004WAT     H169254   6.722   2.338   1.825
23004WAT     H269255   6.658   2.216   1.738
23005WAT      O69256   9.170   8.756   7.358
23005WAT     H169257   9.243   8.694   7.386
23005WAT     H269258   9.196   8.803   7.274
23006WAT      O69259   9.525   7.277   9.825
23006WAT     H169260   9.557   7.274   9.920
23006WAT     H269261   9.453   7.209   9.812
23007WAT      O69262   4.582   7.131   5.088
23007WAT     H169263   4.503   7.129   5.027
23007WAT     H269264   4.644   7.055   5.066
23008WAT      O69265   5.476   1.666   7.410
23008WAT     H169266   5.524   1.685   7.324
23008WAT     H269267   5.383   1.635   7.390
23009WAT      O69268   5.585   9.612   0.513
23009WAT     H169269   5.539   9.546   0.572
23009WAT     H269270   5.679   9.582   0.496
23010WAT      O69271   2.065   9.440   9.882
23010WAT     H169272   2.003   9.473   9.811
23010WAT     H269273   2.157   9.477   9.865
23011WAT      O69274   4.659   8.293   6.741
23011WAT     H169275   4.694   8.297   6.647
23011WAT     H269276   4.561   8.276   6.739
23012WAT      O69277   4.314   0.082   2.565
23012WAT     H169278   4.217   0.071   2.542
23012WAT     H269279   4.328   0.061   2.662
23013WAT      O69280   9.482   2.512   7.838
23013WAT     H169281   9.446   2.425   7.806
23013WAT     H269282   9.476   2.580   7.765
23014WAT      O69283   9.294   7.054   9.357
23014WAT     H169284   9.215   7.058   9.418
23014WAT     H269285   9.364   7.118   9.388
23015WAT      O69286   0.089   1.903   7.453
23015WAT     H169287   0.103   1.960   7.372
23015WAT     H269288   0.016   1.942   7.509
23016WAT      O69289   4.494   6.034   2.501
23016WAT     H169290   4.443   6.058   2.418
23016WAT     H269291   4.499   5.934   2.509
23017WAT      O69292   9.750   0.543   6.413
23017WAT     H169293   9.837   0.579   6.377
23017WAT     H269294   9.675   0.577   6.357
23018WAT      O69295   8.516   1.555   3.262
23018WAT     H169296   8.456   1.499   3.205
23018WAT     H269297   8.572   1.495   3.319
23019WAT      O69298   4.536   7.942   6.597
23019WAT     H169299   4.503   7.868   6.538
23019WAT     H269300   4.635   7.950   6.589
23020WAT      O69301   7.013   2.011   6.107
23020WAT     H169302   7.051   1.999   6.015
23020WAT     H269303   7.026   2.105   6.137
23021WAT      O69304   8.216   5.872   0.099
23021WAT     H169305   8.137   5.928   0.073
23021WAT     H269306   8.190   5.808   0.171
23022WAT      O69307   3.512   7.937   3.040
23022WAT     H169308   3.570   8.017   3.052
23022WAT     H269309   3.448   7.930   3.118
23023WAT      O69310   7.563   4.573   3.312
23023WAT     H169311   7.569   4.635   3.391
23023WAT     H269312   7.479   4.520   3.317
23024WAT      O69313   9.365   8.436   3.486
23024WAT     H169314   9.281   8.392   3.455
23024WAT     H269315   9.374   8.526   3.443
23025WAT      O69316   2.294   8.419   1.700
23025WAT     H169317   2.233   8.366   1.641
23025WAT     H269318   2.367   8.359   1.734
23026WAT      O69319   2.231   2.992   7.331
23026WAT     H169320   2.256   2.986   7.427
23026WAT     H269321   2.157   2.927   7.312
23027WAT      O69322   1.343   7.058   2.422
23027WAT     H169323   1.418   7.116   2.454
23027WAT     H269324   1.368   6.962   2.435
23028WAT      O69325   0.136   4.772   0.183
23028WAT     H169326   0.162   4.770   0.279
23028WAT     H269327   0.165   4.858   0.142
23029WAT      O69328   0.854   1.252   5.287
23029WAT     H169329   0.951   1.230   5.276
23029WAT     H269330   0.825   1.310   5.211
23030WAT      O69331   0.929   7.186   1.622
23030WAT     H169332   0.963   7.234   1.703
23030WAT     H269333   0.851   7.129   1.647
23031WAT      O69334   3.347   7.047   6.417
23031WAT     H169335   3.344   7.038   6.318
23031WAT     H269336   3.441   7.032   6.449
23032WAT      O69337   5.150   9.724   5.805
23032WAT     H169338   5.087   9.693   5.876
23032WAT     H269339   5.212   9.793   5.843
23033WAT      O69340   8.179   9.560   9.349
23033WAT     H169341   8.202   9.657   9.358
23033WAT     H269342   8.185   9.516   9.438
23034WAT      O69343   3.355   5.698   3.407
23034WAT     H169344   3.451   5.669   3.403
23034WAT     H269345   3.345   5.764   3.482
23035WAT      O69346   0.050   8.135   4.503
23035WAT     H169347   0.088   8.117   4.413
23035WAT     H269348  -0.008   8.217   4.499
23036WAT      O69349   9.244   1.337   0.349
23036WAT     H169350   9.294   1.423   0.360
23036WAT     H269351   9.231   1.295   0.439
23037WAT      O69352   2.735   4.307   5.906
23037WAT     H169353   2.807   4.372   5.931
23037WAT     H269354   2.777   4.220   5.881
23038WAT      O69355   3.356   9.190   6.708
23038WAT     H169356   3.400   9.276   6.683
23038WAT     H269357   3.385   9.119   6.644
23039WAT      O69358   6.001   9.116   5.989
23039WAT     H169359   6.081   9.057   5.988
23039WAT     H269360   5.964   9.125   5.896
23040WAT      O69361   4.391   7.573   5.504
23040WAT     H169362   4.372   7.495   5.444
23040WAT     H269363   4.454   7.545   5.576
23041WAT      O69364   4.851   0.604   2.538
23041WAT     H169365   4.948   0.601   2.563
23041WAT     H269366   4.808   0.516   2.557
23042WAT      O69367   4.684   9.484   1.776
23042WAT     H169368   4.759   9.427   1.742
23042WAT     H269369   4.599   9.458   1.731
23043WAT      O69370   9.765   8.210   7.990
23043WAT     H169371   9.785   8.296   7.944
23043WAT     H269372   9.823   8.202   8.072
23044WAT      O69373   2.769   0.201   5.222
23044WAT     H169374   2.752   0.186   5.320
23044WAT     H269375   2.711   0.140   5.168
23045WAT      O69376   2.456   6.022   2.371
23045WAT     H169377   2.370   6.072   2.372
23045WAT     H269378   2.473   5.983   2.461
23046WAT      O69379   0.738   7.057   8.404
23046WAT     H169380   0.812   7.123   8.398
23046WAT     H269381   0.772   6.966   8.378
23047WAT      O69382   6.426   4.199   4.999
23047WAT     H169383   6.459   4.114   4.957
23047WAT     H269384   6.344   4.180   5.052
23048WAT      O69385   7.312   2.495   5.081
23048WAT     H169386   7.371   2.420   5.051
23048WAT     H269387   7.363   2.581   5.080
23049WAT      O69388   7.361   9.414   3.969
23049WAT     H169389   7.266   9.397   3.943
23049WAT     H269390   7.374   9.390   4.065
23050WAT      O69391   0.549   1.343   5.353
23050WAT     H169392   0.638   1.304   5.376
23050WAT     H269393   0.478   1.273   5.366
23051WAT      O69394   4.437   3.096   0.074
23051WAT     H169395   4.512   3.159   0.093
23051WAT     H269396   4.401   3.113  -0.017
23052WAT      O69397   9.359   3.173   0.873
23052WAT     H169398   9.334   3.268   0.890
23052WAT     H269399   9.384   3.130   0.960
23053WAT      O69400   3.509   9.467   6.352
23053WAT     H169401   3.424   9.479   6.301
23053WAT     H269402   3.532   9.370   6.357
23054WAT      O69403   6.918   7.065   0.621
23054WAT     H169404   6.844   7.050   0.555
23054WAT     H269405   6.905   7.154   0.665
23055WAT      O69406   6.218   6.671   7.197
23055WAT     H169407   6.211   6.685   7.098
23055WAT     H269408   6.297   6.720   7.233
23056WAT      O69409   9.112   3.441   8.926
23056WAT     H169410   9.103   3.455   9.025
23056WAT     H269411   9.120   3.530   8.881
23057WAT      O69412   0.579   2.003   5.800
23057WAT     H169413   0.481   2.008   5.781
23057WAT     H269414   0.597   2.042   5.891
23058WAT      O69415   7.436   9.481   3.728
23058WAT     H169416   7.535   9.497   3.722
23058WAT     H269417   7.413   9.455   3.822
23059WAT      O69418   0.016   0.797   5.085
23059WAT     H169419   0.100   0.755   5.050
23059WAT     H269420  -0.024   0.737   5.155
23060WAT      O69421   1.304   8.145   9.391
23060WAT     H169422   1.354   8.061   9.409
23060WAT     H269423   1.274   8.147   9.295
23061WAT      O69424   3.849   3.597   3.338
23061WAT     H169425   3.886   3.642   3.257
23061WAT     H269426   3.849   3.661   3.415
23062WAT      O69427   6.836   5.528   8.461
23062WAT     H169428   6.933   5.538   8.438
23062WAT     H269429   6.816   5.582   8.543
23063WAT      O69430   1.662   1.910   5.242
23063WAT     H169431   1.665   1.866   5.153
23063WAT     H269432   1.567   1.915   5.273
23064WAT      O69433   4.029   9.147   5.556
23064WAT     H169434   3.958   9.206   5.594
23064WAT     H269435   4.117   9.169   5.599
23065WAT      O69436   0.263   4.378   6.010
23065WAT     H169437   0.267   4.461   5.954
23065WAT     H269438   0.321   4.308   5.968
23066WAT      O69439   7.077   7.348   7.546
23066WAT     H169440   7.075   7.253   7.576
23066WAT     H269441   7.162   7.391   7.577
23067WAT      O69442   3.150   0.118   2.048
23067WAT     H169443   3.136   0.120   2.147
23067WAT     H269444   3.242   0.152   2.027
23068WAT      O69445   9.669   0.388   4.134
23068WAT     H169446   9.750   0.342   4.171
23068WAT     H269447   9.699   0.467   4.080
23069WAT      O69448   3.019   5.030   0.050
23069WAT     H169449   3.055   5.010  -0.041
23069WAT     H269450   2.981   4.947   0.090
23070WAT      O69451   1.166   7.198   5.822
23070WAT     H169452   1.144   7.165   5.913
23070WAT     H269453   1.133   7.292   5.812
23071WAT      O69454   4.068   2.938   6.248
23071WAT     H169455   4.078   2.888   6.334
23071WAT     H269456   4.042   2.874   6.175
23072WAT      O69457   6.905   2.497   9.818
23072WAT     H169458   6.951   2.458   9.897
23072WAT     H269459   6.876   2.590   9.839
23073WAT      O69460   2.163   0.812   1.425
23073WAT     H169461   2.196   0.718   1.428
23073WAT     H269462   2.094   0.824   1.497
23074WAT      O69463   1.987   5.714   9.504
23074WAT     H169464   1.947   5.736   9.415
23074WAT     H269465   2.062   5.649   9.492
23075WAT      O69466   7.088   7.452   5.494
23075WAT     H169467   7.094   7.368   5.440
23075WAT     H269468   7.165   7.512   5.472
23076WAT      O69469   4.599   7.252   2.020
23076WAT     H169470   4.671   7.194   2.059
23076WAT     H269471   4.639   7.315   1.954
23077WAT      O69472   3.552   6.117   0.631
23077WAT     H169473   3.546   6.145   0.727
23077WAT     H269474   3.642   6.077   0.614
23078WAT      O69475   9.796   7.802   8.460
23078WAT     H169476   9.813   7.705   8.474
23078WAT     H269477   9.700   7.815   8.433
23079WAT      O69478   2.489   0.985   5.394
23079WAT     H169479   2.550   0.906   5.396
23079WAT     H269480   2.527   1.058   5.450
23080WAT      O69481   8.154   0.893   2.229
23080WAT     H169482   8.104   0.960   2.174
23080WAT     H269483   8.137   0.801   2.193
23081WAT      O69484   6.981   3.094   0.218
23081WAT     H169485   7.077   3.073   0.202
23081WAT     H269486   6.937   3.017   0.264
23082WAT      O69487   2.299   0.093   7.880
23082WAT     H169488   2.281   0.182   7.840
23082WAT     H269489   2.343   0.105   7.969
23083WAT      O69490   3.808   8.835   5.301
23083WAT     H169491   3.760   8.747   5.301
23083WAT     H269492   3.838   8.856   5.394
23084WAT      O69493   9.432   8.172   4.913
23084WAT     H169494   9.395   8.245   4.970
23084WAT     H269495   9.361   8.103   4.897
23085WAT      O69496   9.412   1.551   9.398
23085WAT     H169497   9.507   1.574   9.418
23085WAT     H269498   9.405   1.517   9.305
23086WAT      O69499   9.700   6.603   4.805
23086WAT     H169500   9.731   6.698   4.797
23086WAT     H269501   9.669   6.586   4.899
23087WAT      O69502   0.951   8.799   0.634
23087WAT     H169503   0.880   8.789   0.704
23087WAT     H269504   1.021   8.729   0.649
23088WAT      O69505   1.646   7.269   0.010
23088WAT     H169506   1.591   7.187  -0.007
23088WAT     H269507   1.637   7.296   0.106
23089WAT      O69508   6.698   8.808   1.726
23089WAT     H169509   6.674   8.787   1.820
23089WAT     H269510   6.794   8.785   1.710
23090WAT      O69511   1.780   1.082   6.552
23090WAT     H169512   1.705   1.021   6.527
23090WAT     H269513   1.795   1.078   6.651
23091WAT      O69514   6.341   4.829   6.459
23091WAT     H169515   6.257   4.858   6.504
23091WAT     H269516   6.321   4.753   6.397
23092WAT      O69517   0.323   9.182   2.614
23092WAT     H169518   0.302   9.279   2.630
23092WAT     H269519   0.417   9.173   2.582
23093WAT      O69520   8.654   7.701   3.259
23093WAT     H169521   8.726   7.694   3.191
23093WAT     H269522   8.595   7.779   3.238
23094WAT      O69523   6.997   9.812   1.995
23094WAT     H169524   7.017   9.760   1.912
23094WAT     H269525   7.056   9.780   2.069
23095WAT      O69526   9.754   3.030   4.940
23095WAT     H169527   9.724   3.114   4.985
23095WAT     H269528   9.815   2.979   5.000
23096WAT      O69529   6.434   6.918   3.948
23096WAT     H169530   6.468   6.877   4.033
23096WAT     H269531   6.507   6.921   3.881
23097WAT      O69532   7.814   2.974   7.821
23097WAT     H169533   7.729   2.925   7.802
23097WAT     H269534   7.797   3.046   7.888
23098WAT      O69535   4.926   5.791   9.143
23098WAT     H169536   4.879   5.847   9.212
23098WAT     H269537   4.976   5.851   9.080
23099WAT      O69538   4.656   4.902   8.502
23099WAT     H169539   4.609   4.863   8.582
23099WAT     H269540   4.691   4.829   8.445
23100WAT      O69541   4.823   5.766   1.257
23100WAT     H169542   4.802   5.829   1.332
23100WAT     H269543   4.874   5.687   1.293
23101WAT      O69544   1.305   1.099   6.964
23101WAT     H169545   1.322   1.195   6.986
23101WAT     H269546   1.241   1.093   6.887
23102WAT      O69547   5.955   2.521   8.791
23102WAT     H169548   5.872   2.574   8.776
23102WAT     H269549   5.967   2.456   8.715
23103WAT      O69550   1.286   5.501   8.622
23103WAT     H169551   1.256   5.496   8.717
23103WAT     H269552   1.291   5.410   8.583
23104WAT      O69553   8.266   0.216   1.179
23104WAT     H169554   8.167   0.228   1.167
23104WAT     H269555   8.288   0.119   1.175
23105WAT      O69556   0.035   0.316   5.869
23105WAT     H169557   0.015   0.348   5.776
23105WAT     H269558   0.010   0.220   5.878
23106WAT      O69559   3.933   2.658   2.746
23106WAT     H169560   3.873   2.683   2.670
23106WAT     H269561   4.014   2.611   2.710
23107WAT      O69562   5.934   3.070   0.922
23107WAT     H169563   6.025   3.043   0.952
23107WAT     H269564   5.880   2.988   0.904
23108WAT      O69565   4.408   9.564   8.073
23108WAT     H169566   4.421   9.660   8.050
23108WAT     H269567   4.311   9.540   8.064
23109WAT      O69568   6.371   2.205   5.991
23109WAT     H169569   6.447   2.211   6.056
23109WAT     H269570   6.333   2.112   5.993
23110WAT      O69571   9.005   4.191   2.910
23110WAT     H169572   9.054   4.103   2.904
23110WAT     H269573   8.908   4.174   2.921
23111WAT      O69574   2.889   9.625   3.228
23111WAT     H169575   2.938   9.574   3.299
23111WAT     H269576   2.956   9.665   3.165
23112WAT      O69577   8.338   0.300   7.691
23112WAT     H169578   8.425   0.348   7.681
23112WAT     H269579   8.324   0.241   7.611
23113WAT      O69580   9.434   9.774   6.052
23113WAT     H169581   9.453   9.865   6.087
23113WAT     H269582   9.520   9.726   6.034
23114WAT      O69583   4.383   9.622   9.620
23114WAT     H169584   4.326   9.701   9.641
23114WAT     H269585   4.363   9.549   9.686
23115WAT      O69586   3.718   2.739   3.285
23115WAT     H169587   3.768   2.825   3.299
23115WAT     H269588   3.777   2.662   3.307
23116WAT      O69589   7.891   0.841   8.969
23116WAT     H169590   7.812   0.780   8.967
23116WAT     H269591   7.861   0.934   8.948
23117WAT      O69592   0.780   0.007   5.225
23117WAT     H169593   0.774   0.091   5.278
23117WAT     H269594   0.756   0.026   5.130
23118WAT      O69595   1.481   2.331   1.917
23118WAT     H169596   1.564   2.283   1.945
23118WAT     H269597   1.475   2.333   1.818
23119WAT      O69598   7.624   7.635   3.744
23119WAT     H169599   7.609   7.542   3.778
23119WAT     H269600   7.536   7.683   3.737
23120WAT      O69601   8.516   4.019   6.322
23120WAT     H169602   8.526   4.020   6.223
23120WAT     H269603   8.600   4.052   6.364
23121WAT      O69604   2.251   3.206   7.854
23121WAT     H169605   2.304   3.180   7.935
23121WAT     H269606   2.231   3.125   7.800
23122WAT      O69607   6.747   2.183   6.814
23122WAT     H169608   6.836   2.224   6.795
23122WAT     H269609   6.688   2.250   6.858
23123WAT      O69610   7.809   3.770   8.657
23123WAT     H169611   7.727   3.818   8.626
23123WAT     H269612   7.853   3.822   8.730
23124WAT      O69613   4.273   3.083   2.482
23124WAT     H169614   4.257   3.038   2.570
23124WAT     H269615   4.251   3.020   2.407
23125WAT      O69616   5.432   3.195   8.413
23125WAT     H169617   5.391   3.245   8.489
23125WAT     H269618   5.391   3.104   8.407
23126WAT      O69619   6.914   6.488   8.722
23126WAT     H169620   6.883   6.509   8.815
23126WAT     H269621   6.836   6.454   8.668
23127WAT      O69622   8.329   1.421   5.661
23127WAT     H169623   8.263   1.496   5.656
23127WAT     H269624   8.317   1.360   5.583
23128WAT      O69625   2.177   7.042   7.072
23128WAT     H169626   2.194   6.947   7.098
23128WAT     H269627   2.167   7.098   7.155
23129WAT      O69628   2.555   6.864   2.188
23129WAT     H169629   2.509   6.937   2.238
23129WAT     H269630   2.652   6.885   2.181
23130WAT      O69631   6.989   4.482   0.109
23130WAT     H169632   6.952   4.535   0.184
23130WAT     H269633   6.925   4.409   0.084
23131WAT      O69634   3.463   6.485   3.682
23131WAT     H169635   3.447   6.582   3.667
23131WAT     H269636   3.395   6.432   3.630
23132WAT      O69637   1.864   5.985   5.825
23132WAT     H169638   1.813   5.909   5.784
23132WAT     H269639   1.841   6.069   5.777
23133WAT      O69640   8.882   9.061   0.678
23133WAT     H169641   8.841   9.145   0.643
23133WAT     H269642   8.811   9.004   0.720
23134WAT      O69643   3.374   4.999   5.726
23134WAT     H169644   3.410   5.075   5.780
23134WAT     H269645   3.275   4.991   5.742
23135WAT      O69646   8.061   5.089   1.947
23135WAT     H169647   8.078   5.158   1.876
23135WAT     H269648   8.134   5.020   1.945
23136WAT      O69649   1.173   0.047   5.338
23136WAT     H169650   1.201  -0.041   5.299
23136WAT     H269651   1.099   0.033   5.404
23137WAT      O69652   0.467   3.804   3.304
23137WAT     H169653   0.407   3.782   3.228
23137WAT     H269654   0.490   3.902   3.301
23138WAT      O69655   6.828   6.436   5.518
23138WAT     H169656   6.876   6.361   5.564
23138WAT     H269657   6.833   6.518   5.574
23139WAT      O69658   3.244   7.124   7.833
23139WAT     H169659   3.239   7.069   7.917
23139WAT     H269660   3.186   7.205   7.844
23140WAT      O69661   7.835   1.223   5.129
23140WAT     H169662   7.852   1.221   5.227
23140WAT     H269663   7.916   1.257   5.081
23141WAT      O69664   7.281   6.335   2.405
23141WAT     H169665   7.329   6.255   2.441
23141WAT     H269666   7.286   6.334   2.305
23142WAT      O69667   7.515   4.777   5.230
23142WAT     H169668   7.479   4.688   5.258
23142WAT     H269669   7.478   4.848   5.289
23143WAT      O69670   2.155   8.936   3.037
23143WAT     H169671   2.124   9.030   3.051
23143WAT     H269672   2.196   8.901   3.121
23144WAT      O69673   9.744   1.259   0.466
23144WAT     H169674   9.681   1.337   0.471
23144WAT     H269675   9.753   1.218   0.557
23145WAT      O69676   0.560   8.004   2.038
23145WAT     H169677   0.485   8.004   2.103
23145WAT     H269678   0.634   8.063   2.072
23146WAT      O69679   7.932   6.590   6.915
23146WAT     H169680   7.994   6.555   6.844
23146WAT     H269681   7.860   6.644   6.872
23147WAT      O69682   5.629   9.473   4.178
23147WAT     H169683   5.663   9.432   4.093
23147WAT     H269684   5.707   9.500   4.235
23148WAT      O69685   8.068   5.206   7.339
23148WAT     H169686   8.153   5.247   7.306
23148WAT     H269687   7.990   5.263   7.312
23149WAT      O69688   4.736   9.695   5.688
23149WAT     H169689   4.755   9.731   5.780
23149WAT     H269690   4.822   9.674   5.642
23150WAT      O69691   5.983   7.433   8.490
23150WAT     H169692   6.059   7.369   8.498
23150WAT     H269693   6.015   7.526   8.510
23151WAT      O69694   7.766   4.362   4.008
23151WAT     H169695   7.696   4.327   4.071
23151WAT     H269696   7.798   4.451   4.041
23152WAT      O69697   1.146   7.600   4.775
23152WAT     H169698   1.173   7.675   4.715
23152WAT     H269699   1.047   7.602   4.788
23153WAT      O69700   8.027   2.671   5.007
23153WAT     H169701   8.099   2.704   5.069
23153WAT     H269702   7.962   2.615   5.057
23154WAT      O69703   1.590   3.146   0.885
23154WAT     H169704   1.544   3.079   0.826
23154WAT     H269705   1.551   3.141   0.977
23155WAT      O69706   0.906   8.305   3.263
23155WAT     H169707   0.848   8.374   3.305
23155WAT     H269708   0.984   8.286   3.323
23156WAT      O69709   6.855   8.092   4.203
23156WAT     H169710   6.863   8.047   4.115
23156WAT     H269711   6.792   8.041   4.262
23157WAT      O69712   5.213   2.141   6.162
23157WAT     H169713   5.300   2.164   6.119
23157WAT     H269714   5.171   2.224   6.199
23158WAT      O69715   9.461   6.894   8.769
23158WAT     H169716   9.463   6.858   8.863
23158WAT     H269717   9.543   6.863   8.720
23159WAT      O69718   0.888   2.425   7.197
23159WAT     H169719   0.824   2.477   7.254
23159WAT     H269720   0.981   2.440   7.229
23160WAT      O69721   1.782   8.118   9.628
23160WAT     H169722   1.692   8.160   9.618
23160WAT     H269723   1.812   8.081   9.540
23161WAT      O69724   3.737   3.649   1.546
23161WAT     H169725   3.685   3.657   1.630
23161WAT     H269726   3.731   3.734   1.494
23162WAT      O69727   9.201   5.424   7.160
23162WAT     H169728   9.187   5.395   7.255
23162WAT     H269729   9.114   5.453   7.121
23163WAT      O69730   6.871   3.689   7.051
23163WAT     H169731   6.798   3.738   7.004
23163WAT     H269732   6.871   3.713   7.148
23164WAT      O69733   9.393   0.575   2.479
23164WAT     H169734   9.444   0.545   2.398
23164WAT     H269735   9.430   0.662   2.511
23165WAT      O69736   8.919   9.290   9.491
23165WAT     H169737   8.911   9.214   9.426
23165WAT     H269738   8.958   9.370   9.445
23166WAT      O69739   2.255   0.918   9.307
23166WAT     H169740   2.240   0.932   9.405
23166WAT     H269741   2.326   0.982   9.275
23167WAT      O69742   9.036   2.209   8.866
23167WAT     H169743   8.975   2.285   8.888
23167WAT     H269744   9.028   2.139   8.937
23168WAT      O69745   2.049   1.899   9.463
23168WAT     H169746   2.058   1.980   9.406
23168WAT     H269747   2.140   1.861   9.481
23169WAT      O69748   4.601   2.010   8.921
23169WAT     H169749   4.657   1.928   8.904
23169WAT     H269750   4.552   1.999   9.007
23170WAT      O69751   7.967   8.937   7.424
23170WAT     H169752   7.879   8.973   7.454
23170WAT     H269753   8.036   8.956   7.494
23171WAT      O69754   1.370   2.828   2.906
23171WAT     H169755   1.275   2.805   2.928
23171WAT     H269756   1.399   2.775   2.826
23172WAT      O69757   2.416   0.355   2.407
23172WAT     H169758   2.324   0.363   2.446
23172WAT     H269759   2.432   0.261   2.378
23173WAT      O69760   9.790   8.548   1.622
23173WAT     H169761   9.860   8.594   1.567
23173WAT     H269762   9.786   8.589   1.713
23174WAT      O69763   5.315   4.883   0.612
23174WAT     H169764   5.330   4.919   0.520
23174WAT     H269765   5.268   4.795   0.607
23175WAT      O69766   3.529   7.856   2.659
23175WAT     H169767   3.450   7.836   2.717
23175WAT     H269768   3.607   7.882   2.715
23176WAT      O69769   7.129   6.662   0.380
23176WAT     H169770   7.079   6.626   0.301
23176WAT     H269771   7.064   6.685   0.452
23177WAT      O69772   6.187   9.577   8.453
23177WAT     H169773   6.252   9.527   8.395
23177WAT     H269774   6.095   9.541   8.440
23178WAT      O69775   5.348   2.831   2.340
23178WAT     H169776   5.389   2.754   2.389
23178WAT     H269777   5.420   2.887   2.300
23179WAT      O69778   8.739   3.488   4.232
23179WAT     H169779   8.729   3.486   4.133
23179WAT     H269780   8.827   3.531   4.256
23180WAT      O69781   7.290   7.031   5.172
23180WAT     H169782   7.300   6.980   5.257
23180WAT     H269783   7.380   7.067   5.145
23181WAT      O69784   3.717   3.758   4.148
23181WAT     H169785   3.637   3.718   4.102
23181WAT     H269786   3.711   3.858   4.144
23182WAT      O69787   7.580   0.666   3.947
23182WAT     H169788   7.588   0.570   3.921
23182WAT     H269789   7.487   0.684   3.979
23183WAT      O69790   0.152   3.000   3.611
23183WAT     H169791   0.213   3.074   3.583
23183WAT     H269792   0.090   2.978   3.536
23184WAT      O69793   4.750   3.143   7.137
23184WAT     H169794   4.665   3.115   7.182
23184WAT     H269795   4.759   3.242   7.141
23185WAT      O69796   9.187   3.031   2.039
23185WAT     H169797   9.165   2.934   2.055
23185WAT     H269798   9.102   3.082   2.025
23186WAT      O69799   1.548   8.512   9.002
23186WAT     H169800   1.471   8.451   8.982
23186WAT     H269801   1.633   8.469   8.970
23187WAT      O69802   3.373   4.358   4.191
23187WAT     H169803   3.404   4.379   4.098
23187WAT     H269804   3.274   4.343   4.191
23188WAT      O69805   0.260   7.262   5.407
23188WAT     H169806   0.345   7.252   5.356
23188WAT     H269807   0.182   7.265   5.344
23189WAT      O69808   3.097   8.839   9.377
23189WAT     H169809   3.028   8.774   9.408
23189WAT     H269810   3.068   8.932   9.400
23190WAT      O69811   3.039   6.982   5.121
23190WAT     H169812   2.986   6.900   5.102
23190WAT     H269813   3.078   6.977   5.214
23191WAT      O69814   4.773   8.285   0.472
23191WAT     H169815   4.814   8.198   0.446
23191WAT     H269816   4.842   8.357   0.468
23192WAT      O69817   2.260   6.738   2.313
23192WAT     H169818   2.347   6.690   2.301
23192WAT     H269819   2.272   6.834   2.287
23193WAT      O69820   8.130   8.837   9.261
23193WAT     H169821   8.038   8.867   9.287
23193WAT     H269822   8.124   8.777   9.181
23194WAT      O69823   3.301   7.204   2.494
23194WAT     H169824   3.213   7.195   2.447
23194WAT     H269825   3.320   7.300   2.512
23195WAT      O69826   1.794   2.369   3.792
23195WAT     H169827   1.870   2.421   3.831
23195WAT     H269828   1.742   2.326   3.866
23196WAT      O69829   6.793   9.279   4.249
23196WAT     H169830   6.725   9.241   4.187
23196WAT     H269831   6.874   9.306   4.197
23197WAT      O69832   0.163   3.277   4.635
23197WAT     H169833   0.089   3.227   4.591
23197WAT     H269834   0.146   3.375   4.631
23198WAT      O69835   8.320   8.432   1.991
23198WAT     H169836   8.364   8.459   1.906
23198WAT     H269837   8.318   8.510   2.054
23199WAT      O69838   1.796   0.071   6.900
23199WAT     H169839   1.733   0.133   6.947
23199WAT     H269840   1.786  -0.021   6.937
23200WAT      O69841   5.402   0.270   5.354
23200WAT     H169842   5.320   0.220   5.327
23200WAT     H269843   5.391   0.305   5.447
23201WAT      O69844   9.475   1.608   1.585
23201WAT     H169845   9.458   1.606   1.684
23201WAT     H269846   9.546   1.541   1.562
23202WAT      O69847   5.112   5.977   4.650
23202WAT     H169848   5.018   6.010   4.650
23202WAT     H269849   5.175   6.054   4.650
23203WAT      O69850   2.482   1.537   3.743
23203WAT     H169851   2.396   1.490   3.726
23203WAT     H269852   2.520   1.570   3.657
23204WAT      O69853   2.097   8.306   1.967
23204WAT     H169854   2.194   8.313   1.986
23204WAT     H269855   2.082   8.311   1.868
23205WAT      O69856   7.425   2.721   8.457
23205WAT     H169857   7.484   2.777   8.514
23205WAT     H269858   7.464   2.629   8.449
23206WAT      O69859   5.364   5.676   0.616
23206WAT     H169860   5.341   5.634   0.528
23206WAT     H269861   5.293   5.655   0.683
23207WAT      O69862   4.452   6.822   1.606
23207WAT     H169863   4.358   6.806   1.575
23207WAT     H269864   4.513   6.757   1.563
23208WAT      O69865   7.926   6.803   6.331
23208WAT     H169866   7.905   6.759   6.419
23208WAT     H269867   8.008   6.761   6.292
23209WAT      O69868   2.026   4.936   5.327
23209WAT     H169869   2.064   4.948   5.235
23209WAT     H269870   1.943   4.991   5.336
23210WAT      O69871   0.053   7.167   4.482
23210WAT     H169872   0.011   7.184   4.392
23210WAT     H269873  -0.019   7.161   4.551
23211WAT      O69874   8.011   8.023   7.567
23211WAT     H169875   7.969   8.110   7.540
23211WAT     H269876   8.050   8.033   7.659
23212WAT      O69877   5.781   8.814   5.140
23212WAT     H169878   5.782   8.721   5.104
23212WAT     H269879   5.785   8.811   5.240
23213WAT      O69880   7.114   8.210   6.776
23213WAT     H169881   7.029   8.159   6.787
23213WAT     H269882   7.106   8.298   6.823
23214WAT      O69883   2.010   2.908   9.486
23214WAT     H169884   2.094   2.864   9.453
23214WAT     H269885   1.932   2.849   9.467
23215WAT      O69886   8.675   8.972   2.771
23215WAT     H169887   8.761   8.930   2.743
23215WAT     H269888   8.635   8.919   2.846
23216WAT      O69889   9.577   9.142   5.306
23216WAT     H169890   9.481   9.155   5.280
23216WAT     H269891   9.595   9.044   5.314
23217WAT      O69892   8.210   3.639   2.715
23217WAT     H169893   8.115   3.611   2.699
23217WAT     H269894   8.212   3.708   2.788
23218WAT      O69895   0.895   9.461   5.320
23218WAT     H169896   0.965   9.390   5.310
23218WAT     H269897   0.889   9.514   5.236
23219WAT      O69898   1.379   3.836   7.025
23219WAT     H169899   1.447   3.762   7.023
23219WAT     H269900   1.307   3.813   7.090
23220WAT      O69901   5.979   9.375   2.770
23220WAT     H169902   5.946   9.314   2.698
23220WAT     H269903   5.923   9.365   2.852
23221WAT      O69904   9.091   4.924   2.445
23221WAT     H169905   9.090   4.886   2.352
23221WAT     H269906   9.125   4.854   2.508
23222WAT      O69907   6.410   1.215   5.126
23222WAT     H169908   6.427   1.289   5.191
23222WAT     H269909   6.495   1.195   5.076
23223WAT      O69910   0.921   4.813   1.957
23223WAT     H169911   0.905   4.886   2.023
23223WAT     H269912   0.927   4.725   2.005
23224WAT      O69913   5.440   4.852   0.843
23224WAT     H169914   5.516   4.787   0.836
23224WAT     H269915   5.395   4.860   0.754
23225WAT      O69916   3.862   6.071   9.407
23225WAT     H169917   3.946   6.115   9.377
23225WAT     H269918   3.809   6.136   9.462
23226WAT      O69919   5.760   2.774   0.968
23226WAT     H169920   5.694   2.703   0.944
23226WAT     H269921   5.726   2.827   1.046
23227WAT      O69922   4.794   0.381   8.832
23227WAT     H169923   4.835   0.473   8.836
23227WAT     H269924   4.728   0.371   8.907
23228WAT      O69925   9.111   3.264   3.664
23228WAT     H169926   9.012   3.278   3.662
23228WAT     H269927   9.140   3.217   3.581
23229WAT      O69928   4.208   2.044   9.034
23229WAT     H169929   4.195   1.960   8.981
23229WAT     H269930   4.202   2.023   9.131
23230WAT      O69931   7.606   4.362   0.602
23230WAT     H169932   7.522   4.371   0.655
23230WAT     H269933   7.584   4.352   0.505
23231WAT      O69934   5.979   5.693   0.642
23231WAT     H169935   5.950   5.760   0.710
23231WAT     H269936   5.921   5.611   0.650
23232WAT      O69937   0.475   4.391   1.136
23232WAT     H169938   0.406   4.368   1.067
23232WAT     H269939   0.431   4.409   1.223
23233WAT      O69940   8.490   8.147   6.488
23233WAT     H169941   8.429   8.200   6.429
23233WAT     H269942   8.585   8.168   6.465
23234WAT      O69943   1.143   5.240   0.040
23234WAT     H169944   1.170   5.157  -0.008
23234WAT     H269945   1.074   5.218   0.110
23235WAT      O69946   8.622   8.766   0.370
23235WAT     H169947   8.711   8.798   0.335
23235WAT     H269948   8.604   8.674   0.334
23236WAT      O69949   1.562   8.661   3.955
23236WAT     H169950   1.659   8.671   3.930
23236WAT     H269951   1.533   8.567   3.937
23237WAT      O69952   5.831   0.846   4.511
23237WAT     H169953   5.820   0.945   4.503
23237WAT     H269954   5.901   0.826   4.579
23238WAT      O69955   1.215   9.157   2.079
23238WAT     H169956   1.276   9.139   2.002
23238WAT     H269957   1.203   9.256   2.089
23239WAT      O69958   8.915   4.636   4.377
23239WAT     H169959   8.832   4.682   4.408
23239WAT     H269960   8.928   4.552   4.429
23240WAT      O69961   5.812   0.872   6.437
23240WAT     H169962   5.870   0.816   6.377
23240WAT     H269963   5.786   0.956   6.389
23241WAT      O69964   4.367   3.009   3.689
23241WAT     H169965   4.435   3.041   3.623
23241WAT     H269966   4.381   3.055   3.777
23242WAT      O69967   6.397   8.291   4.298
23242WAT     H169968   6.340   8.209   4.303
23242WAT     H269969   6.460   8.283   4.221
23243WAT      O69970   7.721   0.090   9.736
23243WAT     H169971   7.773   0.141   9.668
23243WAT     H269972   7.699  -0.001   9.701
23244WAT      O69973   6.853   2.509   6.844
23244WAT     H169974   6.902   2.465   6.919
23244WAT     H269975   6.755   2.514   6.866
23245WAT      O69976   8.503   3.364   3.618
23245WAT     H169977   8.485   3.306   3.698
23245WAT     H269978   8.426   3.427   3.605
23246WAT      O69979   4.040   7.863   0.179
23246WAT     H169980   3.970   7.929   0.207
23246WAT     H269981   4.059   7.800   0.254
23247WAT      O69982   4.278   0.088   1.400
23247WAT     H169983   4.295   0.180   1.435
23247WAT     H269984   4.291   0.086   1.301
23248WAT      O69985   1.254   4.280   2.012
23248WAT     H169986   1.264   4.374   2.045
23248WAT     H269987   1.336   4.228   2.034
23249WAT      O69988   2.834   2.562   3.816
23249WAT     H169989   2.912   2.568   3.754
23249WAT     H269990   2.848   2.624   3.893
23250WAT      O69991   3.730   9.191   9.335
23250WAT     H169992   3.695   9.188   9.428
23250WAT     H269993   3.654   9.177   9.271
23251WAT      O69994   2.068   4.752   9.687
23251WAT     H169995   2.128   4.705   9.752
23251WAT     H269996   2.043   4.842   9.723
23252WAT      O69997   2.467   0.263   1.687
23252WAT     H169998   2.414   0.348   1.674
23252WAT     H269999   2.507   0.236   1.600
23253WAT      O70000   5.891   4.041   6.864
23253WAT     H170001   5.928   4.062   6.774
23253WAT     H270002   5.792   4.058   6.865
23254WAT      O70003   9.261   7.981   7.752
23254WAT     H170004   9.247   7.900   7.808
23254WAT     H270005   9.324   7.959   7.677
23255WAT      O70006   9.248   2.109   7.250
23255WAT     H170007   9.249   2.052   7.332
23255WAT     H270008   9.325   2.083   7.191
23256WAT      O70009   3.740   1.730   5.298
23256WAT     H170010   3.745   1.720   5.199
23256WAT     H270011   3.665   1.674   5.333
23257WAT      O70012   4.090   5.018   2.923
23257WAT     H170013   4.186   5.042   2.940
23257WAT     H270014   4.030   5.081   2.971
23258WAT      O70015   5.566   6.800   3.881
23258WAT     H170016   5.568   6.887   3.930
23258WAT     H270017   5.521   6.812   3.793
23259WAT      O70018   0.336   2.046   5.710
23259WAT     H170019   0.256   2.103   5.728
23259WAT     H270020   0.374   2.068   5.620
23260WAT      O70021   2.106   5.854   2.504
23260WAT     H170022   2.135   5.931   2.561
23260WAT     H270023   2.147   5.770   2.539
23261WAT      O70024   1.329   6.061   1.108
23261WAT     H170025   1.304   5.979   1.158
23261WAT     H270026   1.391   6.038   1.034
23262WAT      O70027   3.491   4.482   7.229
23262WAT     H170028   3.542   4.569   7.230
23262WAT     H270029   3.555   4.406   7.236
23263WAT      O70030   2.258   2.506   0.265
23263WAT     H170031   2.247   2.418   0.311
23263WAT     H270032   2.265   2.492   0.167
23264WAT      O70033   3.565   5.586   0.101
23264WAT     H170034   3.471   5.583   0.135
23264WAT     H270035   3.621   5.639   0.164
23265WAT      O70036   3.141   4.055   5.139
23265WAT     H170037   3.148   4.057   5.238
23265WAT     H270038   3.217   4.108   5.099
23266WAT      O70039   7.459   5.235   3.651
23266WAT     H170040   7.539   5.276   3.607
23266WAT     H270041   7.469   5.240   3.750
23267WAT      O70042   6.185   6.996   2.466
23267WAT     H170043   6.283   6.999   2.486
23267WAT     H270044   6.154   6.900   2.465
23268WAT      O70045   9.168   2.880   9.464
23268WAT     H170046   9.103   2.929   9.522
23268WAT     H270047   9.171   2.784   9.491
23269WAT      O70048   7.112   0.056   5.042
23269WAT     H170049   7.101   0.054   5.141
23269WAT     H270050   7.155  -0.030   5.012
23270WAT      O70051   7.691   6.460   5.816
23270WAT     H170052   7.675   6.544   5.867
23270WAT     H270053   7.789   6.449   5.799
23271WAT      O70054   2.221   3.333   8.270
23271WAT     H170055   2.210   3.419   8.220
23271WAT     H270056   2.136   3.309   8.317
23272WAT      O70057   8.422   1.189   3.800
23272WAT     H170058   8.453   1.242   3.721
23272WAT     H270059   8.448   1.236   3.884
23273WAT      O70060   6.602   5.647   1.086
23273WAT     H170061   6.684   5.607   1.125
23273WAT     H270062   6.525   5.634   1.149
23274WAT      O70063   3.675   7.063   7.410
23274WAT     H170064   3.691   7.009   7.328
23274WAT     H270065   3.608   7.016   7.468
23275WAT      O70066   1.593   1.586   9.092
23275WAT     H170067   1.603   1.658   9.161
23275WAT     H270068   1.656   1.603   9.017
23276WAT      O70069   1.389   5.495   5.806
23276WAT     H170070   1.358   5.401   5.792
23276WAT     H270071   1.467   5.496   5.869
23277WAT      O70072   2.345   4.494   8.288
23277WAT     H170073   2.436   4.516   8.322
23277WAT     H270074   2.327   4.396   8.301
23278WAT      O70075   2.122   1.543   8.660
23278WAT     H170076   2.054   1.470   8.657
23278WAT     H270077   2.138   1.570   8.755
23279WAT      O70078   1.176   2.398   7.260
23279WAT     H170079   1.170   2.477   7.198
23279WAT     H270080   1.262   2.401   7.310
23280WAT      O70081   3.023   4.339   3.024
23280WAT     H170082   3.023   4.439   3.026
23280WAT     H270083   3.114   4.306   3.001
23281WAT      O70084   8.798   9.228   9.750
23281WAT     H170085   8.869   9.269   9.693
23281WAT     H270086   8.778   9.136   9.717
23282WAT      O70087   3.440   0.414   9.404
23282WAT     H170088   3.448   0.499   9.455
23282WAT     H270089   3.526   0.363   9.410
23283WAT      O70090   6.317   9.448   0.985
23283WAT     H170091   6.246   9.396   0.939
23283WAT     H270092   6.380   9.385   1.031
23284WAT      O70093   4.067   1.739   0.515
23284WAT     H170094   4.130   1.674   0.473
23284WAT     H270095   4.060   1.821   0.458
23285WAT      O70096   3.981   9.384   1.808
23285WAT     H170097   4.077   9.358   1.818
23285WAT     H270098   3.966   9.421   1.717
23286WAT      O70099   6.100   8.966   5.706
23286WAT     H170100   6.152   9.036   5.658
23286WAT     H270101   6.138   8.953   5.798
23287WAT      O70102   7.721   1.948   7.995
23287WAT     H170103   7.756   2.025   8.048
23287WAT     H270104   7.707   1.870   8.057
23288WAT      O70105   0.777   5.378   4.522
23288WAT     H170106   0.756   5.414   4.431
23288WAT     H270107   0.715   5.302   4.544
23289WAT      O70108   0.495   8.727   0.760
23289WAT     H170109   0.523   8.656   0.824
23289WAT     H270110   0.523   8.702   0.667
23290WAT      O70111   4.089   6.463   3.909
23290WAT     H170112   4.139   6.471   3.822
23290WAT     H270113   4.050   6.372   3.917
23291WAT      O70114   6.425   0.357   0.373
23291WAT     H170115   6.423   0.381   0.470
23291WAT     H270116   6.443   0.438   0.318
23292WAT      O70117   1.903   7.963   5.409
23292WAT     H170118   1.913   8.056   5.443
23292WAT     H270119   1.982   7.908   5.438
23293WAT      O70120   2.877   9.352   6.814
23293WAT     H170121   2.916   9.324   6.727
23293WAT     H270122   2.945   9.341   6.887
23294WAT      O70123   9.744   1.266   5.925
23294WAT     H170124   9.684   1.298   5.852
23294WAT     H270125   9.799   1.342   5.958
23295WAT      O70126   1.227   2.623   6.598
23295WAT     H170127   1.165   2.581   6.531
23295WAT     H270128   1.180   2.697   6.644
23296WAT      O70129   6.314   2.050   2.607
23296WAT     H170130   6.327   2.041   2.706
23296WAT     H270131   6.218   2.067   2.588
23297WAT      O70132   9.029   1.715   1.044
23297WAT     H170133   8.975   1.797   1.022
23297WAT     H270134   8.984   1.664   1.117
23298WAT      O70135   8.547   1.922   6.088
23298WAT     H170136   8.555   2.021   6.085
23298WAT     H270137   8.623   1.881   6.039
23299WAT      O70138   0.823   3.533   3.784
23299WAT     H170139   0.804   3.436   3.794
23299WAT     H270140   0.918   3.551   3.813
23300WAT      O70141   3.910   0.376   0.164
23300WAT     H170142   3.830   0.435   0.175
23300WAT     H270143   3.954   0.363   0.253
23301WAT      O70144   8.012   9.284   5.764
23301WAT     H170145   8.027   9.350   5.690
23301WAT     H270146   8.081   9.212   5.758
23302WAT      O70147   4.972   1.192   7.763
23302WAT     H170148   5.009   1.268   7.711
23302WAT     H270149   5.047   1.131   7.790
23303WAT      O70150   1.277   0.858   8.850
23303WAT     H170151   1.236   0.768   8.835
23303WAT     H270152   1.376   0.849   8.856
23304WAT      O70153   4.445   5.353   9.147
23304WAT     H170154   4.536   5.347   9.187
23304WAT     H270155   4.389   5.277   9.181
23305WAT      O70156   8.433   1.506   8.662
23305WAT     H170157   8.504   1.572   8.636
23305WAT     H270158   8.428   1.434   8.593
23306WAT      O70159   2.068   6.049   3.473
23306WAT     H170160   2.168   6.054   3.475
23306WAT     H270161   2.030   6.141   3.483
23307WAT      O70162   5.307   7.688   8.399
23307WAT     H170163   5.355   7.654   8.319
23307WAT     H270164   5.342   7.642   8.481
23308WAT      O70165   9.573   8.003   5.300
23308WAT     H170166   9.501   7.936   5.280
23308WAT     H270167   9.539   8.070   5.365
23309WAT      O70168   1.907   8.277   5.685
23309WAT     H170169   2.006   8.279   5.700
23309WAT     H270170   1.889   8.262   5.588
23310WAT      O70171   2.450   0.267   9.297
23310WAT     H170172   2.505   0.267   9.380
23310WAT     H270173   2.371   0.328   9.309
23311WAT      O70174   8.004   5.936   2.384
23311WAT     H170175   7.996   5.870   2.309
23311WAT     H270176   8.096   5.932   2.423
23312WAT      O70177   2.237   2.099   8.424
23312WAT     H170178   2.317   2.045   8.450
23312WAT     H270179   2.246   2.192   8.460
23313WAT      O70180   1.612   4.649   6.623
23313WAT     H170181   1.571   4.679   6.537
23313WAT     H270182   1.708   4.625   6.608
23314WAT      O70183   2.497   6.529   3.417
23314WAT     H170184   2.550   6.452   3.383
23314WAT     H270185   2.535   6.615   3.382
23315WAT      O70186   6.592   8.656   0.454
23315WAT     H170187   6.655   8.688   0.525
23315WAT     H270188   6.597   8.556   0.447
23316WAT      O70189   5.635   1.099   4.455
23316WAT     H170190   5.704   1.167   4.477
23316WAT     H270191   5.547   1.144   4.440
23317WAT      O70192   8.071   6.508   8.620
23317WAT     H170193   8.155   6.513   8.674
23317WAT     H270194   8.048   6.599   8.585
23318WAT      O70195   7.894   7.290   5.355
23318WAT     H170196   7.805   7.255   5.382
23318WAT     H270197   7.926   7.239   5.274
23319WAT      O70198   2.651   6.468   1.860
23319WAT     H170199   2.703   6.451   1.777
23319WAT     H270200   2.690   6.414   1.935
23320WAT      O70201   6.796   4.848   1.755
23320WAT     H170202   6.705   4.819   1.725
23320WAT     H270203   6.813   4.815   1.848
23321WAT      O70204   0.135   7.020   7.078
23321WAT     H170205   0.041   7.050   7.096
23321WAT     H270206   0.134   6.925   7.047
23322WAT      O70207   3.902   9.835   5.483
23322WAT     H170208   3.933   9.876   5.569
23322WAT     H270209   3.812   9.869   5.459
23323WAT      O70210   3.211   0.237   6.403
23323WAT     H170211   3.146   0.249   6.328
23323WAT     H270212   3.169   0.269   6.488
23324WAT      O70213   4.995   7.569   9.610
23324WAT     H170214   5.050   7.559   9.693
23324WAT     H270215   4.979   7.479   9.569
23325WAT      O70216   4.181   3.159   5.826
23325WAT     H170217   4.223   3.202   5.906
23325WAT     H270218   4.167   3.228   5.754
23326WAT      O70219   1.791   8.415   8.896
23326WAT     H170220   1.846   8.497   8.881
23326WAT     H270221   1.734   8.398   8.815
23327WAT      O70222   7.733   4.691   5.862
23327WAT     H170223   7.654   4.697   5.800
23327WAT     H270224   7.707   4.724   5.953
23328WAT      O70225   9.791   1.014   9.393
23328WAT     H170226   9.701   1.024   9.436
23328WAT     H270227   9.788   0.939   9.327
23329WAT      O70228   5.504   5.121   2.684
23329WAT     H170229   5.543   5.209   2.655
23329WAT     H270230   5.460   5.132   2.773
23330WAT      O70231   4.186   4.945   3.897
23330WAT     H170232   4.134   5.023   3.933
23330WAT     H270233   4.234   4.900   3.972
23331WAT      O70234   9.006   1.585   9.454
23331WAT     H170235   8.936   1.657   9.461
23331WAT     H270236   9.092   1.620   9.490
23332WAT      O70237   2.179   9.799   1.052
23332WAT     H170238   2.166   9.886   1.005
23332WAT     H270239   2.201   9.816   1.148
23333WAT      O70240   4.601   3.430   1.424
23333WAT     H170241   4.566   3.503   1.365
23333WAT     H270242   4.693   3.404   1.394
23334WAT      O70243   2.326   0.955   9.000
23334WAT     H170244   2.421   0.942   9.027
23334WAT     H270245   2.306   1.053   8.995
23335WAT      O70246   3.607   8.331   3.018
23335WAT     H170247   3.517   8.312   3.057
23335WAT     H270248   3.661   8.247   3.016
23336WAT      O70249   2.520   1.760   1.470
23336WAT     H170250   2.487   1.750   1.375
23336WAT     H270251   2.578   1.682   1.493
23337WAT      O70252   6.143   5.451   1.764
23337WAT     H170253   6.058   5.436   1.814
23337WAT     H270254   6.173   5.365   1.723
23338WAT      O70255   2.848   3.324   7.193
23338WAT     H170256   2.838   3.420   7.170
23338WAT     H270257   2.945   3.303   7.210
23339WAT      O70258   4.402   5.779   5.886
23339WAT     H170259   4.367   5.686   5.880
23339WAT     H270260   4.456   5.799   5.804
23340WAT      O70261   1.340   5.946   5.792
23340WAT     H170262   1.422   5.989   5.829
23340WAT     H270263   1.306   6.000   5.715
23341WAT      O70264   9.722   0.988   5.928
23341WAT     H170265   9.727   1.087   5.918
23341WAT     H270266   9.787   0.958   5.997
23342WAT      O70267   6.979   9.072   5.470
23342WAT     H170268   6.902   9.048   5.411
23342WAT     H270269   6.953   9.148   5.530
23343WAT      O70270   3.192   3.598   3.144
23343WAT     H170271   3.154   3.665   3.080
23343WAT     H270272   3.240   3.646   3.217
23344WAT      O70273   2.772   8.914   4.242
23344WAT     H170274   2.815   8.891   4.329
23344WAT     H270275   2.841   8.912   4.169
23345WAT      O70276   5.024   5.471   0.007
23345WAT     H170277   5.090   5.470  -0.069
23345WAT     H270278   5.057   5.411   0.080
23346WAT      O70279   4.098   4.142   8.429
23346WAT     H170280   4.058   4.110   8.515
23346WAT     H270281   4.183   4.191   8.448
23347WAT      O70282   5.777   9.241   5.323
23347WAT     H170283   5.686   9.202   5.339
23347WAT     H270284   5.768   9.336   5.296
23348WAT      O70285   3.583   5.144   7.667
23348WAT     H170286   3.649   5.174   7.736
23348WAT     H270287   3.585   5.207   7.590
23349WAT      O70288   8.391   4.681   8.050
23349WAT     H170289   8.326   4.757   8.055
23349WAT     H270290   8.346   4.601   8.012
23350WAT      O70291   2.048   9.133   5.000
23350WAT     H170292   2.051   9.175   5.091
23350WAT     H270293   2.129   9.161   4.948
23351WAT      O70294   9.238   6.337   2.609
23351WAT     H170295   9.173   6.402   2.569
23351WAT     H270296   9.330   6.356   2.575
23352WAT      O70297   6.596   2.871   2.171
23352WAT     H170298   6.560   2.941   2.233
23352WAT     H270299   6.696   2.870   2.177
23353WAT      O70300   3.565   7.036   5.116
23353WAT     H170301   3.652   7.013   5.159
23353WAT     H270302   3.564   7.002   5.022
23354WAT      O70303   1.275   4.735   5.179
23354WAT     H170304   1.322   4.820   5.157
23354WAT     H270305   1.184   4.755   5.215
23355WAT      O70306   7.898   1.158   3.398
23355WAT     H170307   7.875   1.243   3.445
23355WAT     H270308   7.846   1.152   3.313
23356WAT      O70309   6.255   2.763   3.765
23356WAT     H170310   6.335   2.823   3.758
23356WAT     H270311   6.177   2.814   3.799
23357WAT      O70312   9.532   4.714   2.786
23357WAT     H170313   9.499   4.791   2.841
23357WAT     H270314   9.604   4.666   2.836
23358WAT      O70315   0.554   8.233   3.995
23358WAT     H170316   0.615   8.186   4.060
23358WAT     H270317   0.470   8.259   4.043
23359WAT      O70318   6.411   6.012   5.702
23359WAT     H170319   6.345   5.949   5.742
23359WAT     H270320   6.458   6.063   5.774
23360WAT      O70321   8.732   8.647   2.747
23360WAT     H170322   8.823   8.605   2.750
23360WAT     H270323   8.667   8.583   2.704
23361WAT      O70324   1.322   3.248   6.550
23361WAT     H170325   1.224   3.235   6.566
23361WAT     H270326   1.348   3.340   6.579
23362WAT      O70327   0.600   2.501   1.834
23362WAT     H170328   0.619   2.422   1.892
23362WAT     H270329   0.677   2.516   1.772
23363WAT      O70330   6.537   2.530   3.949
23363WAT     H170331   6.501   2.488   4.033
23363WAT     H270332   6.619   2.481   3.920
23364WAT      O70333   7.861   8.516   0.554
23364WAT     H170334   7.776   8.556   0.519
23364WAT     H270335   7.864   8.419   0.528
23365WAT      O70336   6.780   3.990   0.690
23365WAT     H170337   6.799   4.086   0.708
23365WAT     H270338   6.771   3.941   0.777
23366WAT      O70339   7.455   6.167   1.351
23366WAT     H170340   7.421   6.207   1.266
23366WAT     H270341   7.527   6.225   1.389
23367WAT      O70342   8.381   7.373   2.717
23367WAT     H170343   8.328   7.336   2.640
23367WAT     H270344   8.351   7.331   2.802
23368WAT      O70345   1.639   6.527   7.071
23368WAT     H170346   1.559   6.540   7.013
23368WAT     H270347   1.716   6.497   7.016
23369WAT      O70348   0.016   3.542   1.749
23369WAT     H170349  -0.025   3.529   1.659
23369WAT     H270350  -0.042   3.501   1.819
23370WAT      O70351   4.461   1.944   3.562
23370WAT     H170352   4.435   1.925   3.657
23370WAT     H270353   4.415   2.027   3.531
23371WAT      O70354   2.437   5.905   6.778
23371WAT     H170355   2.528   5.943   6.760
23371WAT     H270356   2.415   5.916   6.875
23372WAT      O70357   0.082   3.999   7.079
23372WAT     H170358   0.001   4.058   7.077
23372WAT     H270359   0.064   3.921   7.139
23373WAT      O70360   3.114   0.813   6.248
23373WAT     H170361   3.127   0.732   6.306
23373WAT     H270362   3.117   0.786   6.152
23374WAT      O70363   0.356   3.539   1.371
23374WAT     H170364   0.374   3.583   1.283
23374WAT     H270365   0.441   3.497   1.404
23375WAT      O70366   1.549   6.853   6.719
23375WAT     H170367   1.562   6.948   6.689
23375WAT     H270368   1.472   6.813   6.669
23376WAT      O70369   3.980   4.798   9.066
23376WAT     H170370   4.004   4.806   9.163
23376WAT     H270371   3.916   4.871   9.042
23377WAT      O70372   9.642   2.745   8.022
23377WAT     H170373   9.605   2.686   7.950
23377WAT     H270374   9.606   2.838   8.010
23378WAT      O70375   3.485   2.908   0.409
23378WAT     H170376   3.550   2.970   0.452
23378WAT     H270377   3.396   2.916   0.454
23379WAT      O70378   7.264   2.902   7.810
23379WAT     H170379   7.231   2.808   7.807
23379WAT     H270380   7.199   2.959   7.860
23380WAT      O70381   6.752   2.508   8.124
23380WAT     H170382   6.685   2.445   8.162
23380WAT     H270383   6.800   2.464   8.048
23381WAT      O70384   0.900   2.590   2.641
23381WAT     H170385   0.806   2.620   2.658
23381WAT     H270386   0.937   2.548   2.724
23382WAT      O70387   1.435   7.576   8.888
23382WAT     H170388   1.456   7.618   8.799
23382WAT     H270389   1.499   7.500   8.904
23383WAT      O70390   3.776   2.401   2.317
23383WAT     H170391   3.829   2.317   2.306
23383WAT     H270392   3.681   2.378   2.336
23384WAT      O70393   0.552   3.308   0.529
23384WAT     H170394   0.589   3.317   0.436
23384WAT     H270395   0.622   3.336   0.595
23385WAT      O70396   5.389   8.081   4.716
23385WAT     H170397   5.410   8.043   4.625
23385WAT     H270398   5.304   8.133   4.711
23386WAT      O70399   4.443   2.317   8.801
23386WAT     H170400   4.352   2.359   8.797
23386WAT     H270401   4.458   2.279   8.892
23387WAT      O70402   0.425   6.376   7.069
23387WAT     H170403   0.517   6.402   7.038
23387WAT     H270404   0.376   6.332   6.994
23388WAT      O70405   2.531   0.964   6.251
23388WAT     H170406   2.608   0.957   6.313
23388WAT     H270407   2.457   1.016   6.294
23389WAT      O70408   7.906   4.402   8.981
23389WAT     H170409   7.883   4.382   8.885
23389WAT     H270410   7.906   4.501   8.995
23390WAT      O70411   7.044   7.222   6.008
23390WAT     H170412   7.098   7.276   6.073
23390WAT     H270413   7.031   7.275   5.924
23391WAT      O70414   5.529   3.009   2.718
23391WAT     H170415   5.463   2.940   2.688
23391WAT     H270416   5.521   3.090   2.660
23392WAT      O70417   9.851   4.690   3.938
23392WAT     H170418   9.789   4.652   4.006
23392WAT     H270419   9.833   4.787   3.926
23393WAT      O70420   1.415   5.842   1.815
23393WAT     H170421   1.320   5.814   1.824
23393WAT     H270422   1.425   5.938   1.842
23394WAT      O70423   7.119   8.968   6.713
23394WAT     H170424   7.147   9.007   6.625
23394WAT     H270425   7.045   9.023   6.752
23395WAT      O70426   8.007   7.427   7.700
23395WAT     H170427   7.979   7.386   7.614
23395WAT     H270428   8.107   7.427   7.707
23396WAT      O70429   0.624   4.773   8.811
23396WAT     H170430   0.580   4.740   8.728
23396WAT     H270431   0.710   4.723   8.825
23397WAT      O70432   1.369   1.822   1.178
23397WAT     H170433   1.362   1.911   1.224
23397WAT     H270434   1.415   1.834   1.090
23398WAT      O70435   8.427   4.928   4.134
23398WAT     H170436   8.516   4.883   4.144
23398WAT     H270437   8.440   5.018   4.092
23399WAT      O70438   3.851   4.774   6.131
23399WAT     H170439   3.871   4.856   6.077
23399WAT     H270440   3.815   4.801   6.220
23400WAT      O70441   0.654   8.975   6.559
23400WAT     H170442   0.598   8.917   6.501
23400WAT     H270443   0.741   8.994   6.513
23401WAT      O70444   3.677   3.681   7.250
23401WAT     H170445   3.643   3.762   7.201
23401WAT     H270446   3.696   3.608   7.185
23402WAT      O70447   1.143   2.757   2.676
23402WAT     H170448   1.064   2.747   2.616
23402WAT     H270449   1.113   2.752   2.772
23403WAT      O70450   6.328   1.732   0.258
23403WAT     H170451   6.324   1.655   0.193
23403WAT     H270452   6.341   1.697   0.350
23404WAT      O70453   6.466   9.286   7.632
23404WAT     H170454   6.391   9.324   7.578
23404WAT     H270455   6.433   9.264   7.724
23405WAT      O70456   4.710   5.496   7.541
23405WAT     H170457   4.691   5.458   7.450
23405WAT     H270458   4.747   5.589   7.531
23406WAT      O70459   0.221   9.756   5.087
23406WAT     H170460   0.174   9.672   5.112
23406WAT     H270461   0.311   9.758   5.131
23407WAT      O70462   0.451   0.486   7.411
23407WAT     H170463   0.473   0.388   7.411
23407WAT     H270464   0.533   0.539   7.431
23408WAT      O70465   5.586   5.358   7.407
23408WAT     H170466   5.673   5.348   7.358
23408WAT     H270467   5.587   5.444   7.458
23409WAT      O70468   8.674   1.097   2.153
23409WAT     H170469   8.645   1.013   2.106
23409WAT     H270470   8.633   1.100   2.244
23410WAT      O70471   4.686   0.725   3.884
23410WAT     H170472   4.756   0.706   3.815
23410WAT     H270473   4.723   0.708   3.975
23411WAT      O70474   9.700   8.566   0.275
23411WAT     H170475   9.653   8.514   0.204
23411WAT     H270476   9.640   8.639   0.307
23412WAT      O70477   8.277   5.514   1.358
23412WAT     H170478   8.247   5.438   1.300
23412WAT     H270479   8.311   5.588   1.300
23413WAT      O70480   3.204   1.036   3.819
23413WAT     H170481   3.178   1.126   3.786
23413WAT     H270482   3.298   1.016   3.792
23414WAT      O70483   7.873   2.817   7.300
23414WAT     H170484   7.912   2.852   7.215
23414WAT     H270485   7.894   2.879   7.376
23415WAT      O70486   0.792   8.702   7.295
23415WAT     H170487   0.742   8.779   7.335
23415WAT     H270488   0.772   8.619   7.347
23416WAT      O70489   3.877   0.398   0.453
23416WAT     H170490   3.889   0.465   0.526
23416WAT     H270491   3.780   0.386   0.434
23417WAT      O70492   1.526   0.800   8.611
23417WAT     H170493   1.469   0.725   8.579
23417WAT     H270494   1.496   0.886   8.568
23418WAT      O70495   5.250   7.308   6.514
23418WAT     H170496   5.195   7.225   6.517
23418WAT     H270497   5.332   7.297   6.570
23419WAT      O70498   3.013   8.852   1.353
23419WAT     H170499   2.922   8.880   1.325
23419WAT     H270500   3.081   8.911   1.310
23420WAT      O70501   5.609   0.502   3.853
23420WAT     H170502   5.509   0.494   3.859
23420WAT     H270503   5.651   0.419   3.891
23421WAT      O70504   7.331   3.482   1.264
23421WAT     H170505   7.294   3.574   1.252
23421WAT     H270506   7.313   3.450   1.357
23422WAT      O70507   1.668   5.472   1.307
23422WAT     H170508   1.588   5.414   1.295
23422WAT     H270509   1.708   5.455   1.397
23423WAT      O70510   8.911   1.920   8.503
23423WAT     H170511   8.974   1.855   8.544
23423WAT     H270512   8.853   1.960   8.574
23424WAT      O70513   2.874   4.217   0.607
23424WAT     H170514   2.799   4.152   0.615
23424WAT     H270515   2.845   4.307   0.641
23425WAT      O70516   2.086   6.965   7.529
23425WAT     H170517   1.991   6.936   7.532
23425WAT     H270518   2.091   7.064   7.522
23426WAT      O70519   9.118   6.494   6.611
23426WAT     H170520   9.143   6.590   6.597
23426WAT     H270521   9.078   6.457   6.527
23427WAT      O70522   0.409   7.507   4.549
23427WAT     H170523   0.376   7.551   4.633
23427WAT     H270524   0.372   7.415   4.543
23428WAT      O70525   4.382   9.736   4.853
23428WAT     H170526   4.336   9.824   4.854
23428WAT     H270527   4.364   9.689   4.766
23429WAT      O70528   3.960   3.434   9.249
23429WAT     H170529   3.949   3.402   9.343
23429WAT     H270530   3.871   3.461   9.212
23430WAT      O70531   5.420   7.657   1.866
23430WAT     H170532   5.326   7.622   1.863
23430WAT     H270533   5.470   7.624   1.786
23431WAT      O70534   8.200   3.205   2.709
23431WAT     H170535   8.167   3.229   2.800
23431WAT     H270536   8.122   3.189   2.649
23432WAT      O70537   8.989   3.196   8.135
23432WAT     H170538   8.951   3.108   8.106
23432WAT     H270539   9.052   3.181   8.211
23433WAT      O70540   1.514   7.149   4.910
23433WAT     H170541   1.545   7.114   4.999
23433WAT     H270542   1.429   7.103   4.884
23434WAT      O70543   6.939   0.672   2.953
23434WAT     H170544   6.945   0.747   2.887
23434WAT     H270545   6.921   0.710   3.044
23435WAT      O70546   2.144   4.228   4.477
23435WAT     H170547   2.072   4.263   4.537
23435WAT     H270548   2.233   4.265   4.507
23436WAT      O70549   1.092   2.744   4.738
23436WAT     H170550   1.046   2.657   4.724
23436WAT     H270551   1.054   2.812   4.674
23437WAT      O70552   1.413   7.977   5.327
23437WAT     H170553   1.356   7.957   5.247
23437WAT     H270554   1.359   7.964   5.411
23438WAT      O70555   6.252   1.953   8.812
23438WAT     H170556   6.170   2.002   8.840
23438WAT     H270557   6.298   2.005   8.739
23439WAT      O70558   8.523   4.482   9.013
23439WAT     H170559   8.515   4.576   8.979
23439WAT     H270560   8.433   4.438   9.012
23440WAT      O70561   0.969   4.675   1.563
23440WAT     H170562   0.966   4.583   1.523
23440WAT     H270563   1.063   4.709   1.562
23441WAT      O70564   0.140   6.585   4.727
23441WAT     H170565   0.058   6.533   4.707
23441WAT     H270566   0.126   6.681   4.702
23442WAT      O70567   7.479   4.904   8.905
23442WAT     H170568   7.542   4.837   8.945
23442WAT     H270569   7.489   4.904   8.806
23443WAT      O70570   8.509   1.889   7.588
23443WAT     H170571   8.563   1.973   7.592
23443WAT     H270572   8.461   1.884   7.501
23444WAT      O70573   6.730   8.277   7.669
23444WAT     H170574   6.653   8.261   7.731
23444WAT     H270575   6.794   8.340   7.711
23445WAT      O70576   9.540   7.267   4.529
23445WAT     H170577   9.463   7.330   4.521
23445WAT     H270578   9.523   7.186   4.472
23446WAT      O70579   6.903   4.618   6.970
23446WAT     H170580   6.885   4.589   6.876
23446WAT     H270581   6.882   4.715   6.980
23447WAT      O70582   4.691   2.373   6.175
23447WAT     H170583   4.622   2.327   6.119
23447WAT     H270584   4.737   2.443   6.120
23448WAT      O70585   4.272   4.068   9.371
23448WAT     H170586   4.310   4.040   9.282
23448WAT     H270587   4.314   4.153   9.400
23449WAT      O70588   3.809   9.751   4.765
23449WAT     H170589   3.784   9.787   4.855
23449WAT     H270590   3.803   9.824   4.698
23450WAT      O70591   4.767   3.535   4.009
23450WAT     H170592   4.677   3.513   3.971
23450WAT     H270593   4.835   3.473   3.970
23451WAT      O70594   1.710   1.978   1.828
23451WAT     H170595   1.693   1.961   1.731
23451WAT     H270596   1.630   1.951   1.881
23452WAT      O70597   4.109   8.743   1.615
23452WAT     H170598   4.050   8.668   1.585
23452WAT     H270599   4.158   8.780   1.537
23453WAT      O70600   1.980   2.364   7.468
23453WAT     H170601   2.065   2.370   7.521
23453WAT     H270602   1.956   2.455   7.433
23454WAT      O70603   3.771   4.812   3.896
23454WAT     H170604   3.674   4.835   3.906
23454WAT     H270605   3.823   4.850   3.973
23455WAT      O70606   1.693   3.200   7.788
23455WAT     H170607   1.643   3.261   7.727
23455WAT     H270608   1.694   3.107   7.749
23456WAT      O70609   4.943   9.390   0.686
23456WAT     H170610   4.954   9.346   0.597
23456WAT     H270611   4.864   9.350   0.734
23457WAT      O70612   5.829   3.377   4.212
23457WAT     H170613   5.813   3.464   4.260
23457WAT     H270614   5.770   3.372   4.131
23458WAT      O70615   9.445   1.921   4.539
23458WAT     H170616   9.458   1.855   4.465
23458WAT     H270617   9.532   1.967   4.558
23459WAT      O70618   9.316   2.228   4.498
23459WAT     H170619   9.331   2.130   4.490
23459WAT     H270620   9.228   2.245   4.542
23460WAT      O70621   4.737   8.600   5.779
23460WAT     H170622   4.654   8.545   5.782
23460WAT     H270623   4.811   8.550   5.824
23461WAT      O70624   9.562   5.891   9.479
23461WAT     H170625   9.463   5.905   9.480
23461WAT     H270626   9.584   5.812   9.536
23462WAT      O70627   0.004   1.068   3.904
23462WAT     H170628   0.002   1.143   3.837
23462WAT     H270629   0.098   1.049   3.931
23463WAT      O70630   6.325   2.475   8.143
23463WAT     H170631   6.231   2.458   8.115
23463WAT     H270632   6.370   2.533   8.075
23464WAT      O70633   7.903   6.538   9.813
23464WAT     H170634   7.952   6.515   9.729
23464WAT     H270635   7.806   6.551   9.792
23465WAT      O70636   5.362   1.578   9.777
23465WAT     H170637   5.454   1.597   9.742
23465WAT     H270638   5.339   1.645   9.847
23466WAT      O70639   8.470   3.220   9.554
23466WAT     H170640   8.393   3.247   9.496
23466WAT     H270641   8.546   3.190   9.496
23467WAT      O70642   8.239   4.564   6.886
23467WAT     H170643   8.318   4.569   6.947
23467WAT     H270644   8.270   4.551   6.792
23468WAT      O70645   9.735   7.639   4.385
23468WAT     H170646   9.784   7.710   4.334
23468WAT     H270647   9.798   7.593   4.448
23469WAT      O70648   6.297   3.825   4.797
23469WAT     H170649   6.217   3.885   4.798
23469WAT     H270650   6.269   3.731   4.819
23470WAT      O70651   4.900   3.131   6.486
23470WAT     H170652   4.834   3.060   6.510
23470WAT     H270653   4.992   3.093   6.491
23471WAT      O70654   6.495   0.424   8.083
23471WAT     H170655   6.476   0.332   8.117
23471WAT     H270656   6.408   0.471   8.066
23472WAT      O70657   2.549   3.575   9.093
23472WAT     H170658   2.594   3.617   9.014
23472WAT     H270659   2.548   3.475   9.082
23473WAT      O70660   1.258   2.167   0.785
23473WAT     H170661   1.328   2.220   0.737
23473WAT     H270662   1.172   2.218   0.787
23474WAT      O70663   3.848   5.584   9.056
23474WAT     H170664   3.889   5.534   8.980
23474WAT     H270665   3.753   5.606   9.034
23475WAT      O70666   0.485   0.013   5.422
23475WAT     H170667   0.532   0.100   5.435
23475WAT     H270668   0.388   0.030   5.407
23476WAT      O70669   5.254   3.929   0.150
23476WAT     H170670   5.290   3.837   0.134
23476WAT     H270671   5.213   3.933   0.241
23477WAT      O70672   5.817   9.740   9.400
23477WAT     H170673   5.866   9.766   9.317
23477WAT     H270674   5.753   9.666   9.379
23478WAT      O70675   5.021   5.197   1.901
23478WAT     H170676   4.970   5.173   1.983
23478WAT     H270677   5.026   5.297   1.892
23479WAT      O70678   8.860   7.658   1.797
23479WAT     H170679   8.762   7.671   1.780
23479WAT     H270680   8.873   7.593   1.872
23480WAT      O70681   4.911   3.510   5.738
23480WAT     H170682   4.830   3.453   5.753
23480WAT     H270683   4.933   3.559   5.823
23481WAT      O70684   3.984   2.726   7.080
23481WAT     H170685   3.906   2.758   7.026
23481WAT     H270686   4.069   2.759   7.040
23482WAT      O70687   5.335   1.510   1.543
23482WAT     H170688   5.321   1.412   1.533
23482WAT     H270689   5.366   1.530   1.636
23483WAT      O70690   7.292   3.321   6.938
23483WAT     H170691   7.293   3.421   6.932
23483WAT     H270692   7.372   3.290   6.989
23484WAT      O70693   5.898   6.278   4.678
23484WAT     H170694   5.846   6.276   4.763
23484WAT     H270695   5.840   6.249   4.602
23485WAT      O70696   2.480   4.708   2.061
23485WAT     H170697   2.487   4.764   1.978
23485WAT     H270698   2.566   4.713   2.112
23486WAT      O70699   2.160   8.781   6.941
23486WAT     H170700   2.210   8.770   7.026
23486WAT     H270701   2.074   8.731   6.946
23487WAT      O70702   8.416   4.632   4.711
23487WAT     H170703   8.486   4.662   4.645
23487WAT     H270704   8.460   4.609   4.798
23488WAT      O70705   7.239   5.999   7.486
23488WAT     H170706   7.250   6.046   7.573
23488WAT     H270707   7.179   6.052   7.426
23489WAT      O70708   7.320   1.668   5.071
23489WAT     H170709   7.288   1.582   5.112
23489WAT     H270710   7.406   1.695   5.113
23490WAT      O70711   6.686   6.647   1.636
23490WAT     H170712   6.658   6.653   1.540
23490WAT     H270713   6.739   6.564   1.650
23491WAT      O70714   6.017   3.663   3.140
23491WAT     H170715   6.003   3.732   3.069
23491WAT     H270716   5.929   3.624   3.166
23492WAT      O70717   2.025   8.389   3.194
23492WAT     H170718   2.023   8.294   3.163
23492WAT     H270719   2.035   8.391   3.294
23493WAT      O70720   1.829   2.926   3.726
23493WAT     H170721   1.873   2.967   3.646
23493WAT     H270722   1.898   2.883   3.784
23494WAT      O70723   9.864   8.462   9.875
23494WAT     H170724   9.949   8.502   9.909
23494WAT     H270725   9.861   8.366   9.900
23495WAT      O70726   1.813   1.327   5.645
23495WAT     H170727   1.835   1.407   5.701
23495WAT     H270728   1.882   1.317   5.573
23496WAT      O70729   6.262   3.106   9.169
23496WAT     H170730   6.187   3.040   9.172
23496WAT     H270731   6.293   3.119   9.075
23497WAT      O70732   4.614   1.347   0.340
23497WAT     H170733   4.707   1.367   0.371
23497WAT     H270734   4.570   1.431   0.308
23498WAT      O70735   7.667   8.818   9.210
23498WAT     H170736   7.669   8.724   9.177
23498WAT     H270737   7.573   8.854   9.203
23499WAT      O70738   5.207   8.742   1.413
23499WAT     H170739   5.305   8.729   1.431
23499WAT     H270740   5.189   8.838   1.393
23500WAT      O70741   5.252   5.655   0.994
23500WAT     H170742   5.341   5.611   0.981
23500WAT     H270743   5.188   5.622   0.924
23501WAT      O70744   2.061   9.790   5.249
23501WAT     H170745   1.978   9.817   5.298
23501WAT     H270746   2.059   9.829   5.157
23502WAT      O70747   6.078   1.447   1.973
23502WAT     H170748   5.991   1.491   1.996
23502WAT     H270749   6.106   1.475   1.881
23503WAT      O70750   5.857   3.428   9.290
23503WAT     H170751   5.801   3.380   9.222
23503WAT     H270752   5.808   3.509   9.322
23504WAT      O70753   9.511   6.790   2.822
23504WAT     H170754   9.592   6.750   2.866
23504WAT     H270755   9.540   6.849   2.747
23505WAT      O70756   7.153   5.126   2.551
23505WAT     H170757   7.123   5.119   2.456
23505WAT     H270758   7.218   5.202   2.560
23506WAT      O70759   7.864   0.428   9.259
23506WAT     H170760   7.926   0.506   9.262
23506WAT     H270761   7.772   0.459   9.237
23507WAT      O70762   4.084   2.790   5.107
23507WAT     H170763   4.005   2.802   5.047
23507WAT     H270764   4.053   2.778   5.202
23508WAT      O70765   2.394   2.801   5.463
23508WAT     H170766   2.385   2.840   5.372
23508WAT     H270767   2.380   2.873   5.531
23509WAT      O70768   6.715   9.540   2.881
23509WAT     H170769   6.683   9.632   2.909
23509WAT     H270770   6.673   9.472   2.941
23510WAT      O70771   5.360   7.798   2.564
23510WAT     H170772   5.334   7.869   2.629
23510WAT     H270773   5.341   7.708   2.604
23511WAT      O70774   0.440   3.483   8.842
23511WAT     H170775   0.521   3.540   8.830
23511WAT     H270776   0.389   3.478   8.756
23512WAT      O70777   3.962   7.120   5.972
23512WAT     H170778   3.868   7.102   5.945
23512WAT     H270779   4.021   7.044   5.945
23513WAT      O70780   8.045   0.688   0.384
23513WAT     H170781   8.111   0.719   0.316
23513WAT     H270782   8.090   0.679   0.472
23514WAT      O70783   5.302   6.272   6.427
23514WAT     H170784   5.293   6.262   6.328
23514WAT     H270785   5.288   6.183   6.471
23515WAT      O70786   4.016   7.024   1.913
23515WAT     H170787   3.957   7.060   1.985
23515WAT     H270788   4.071   6.949   1.949
23516WAT      O70789   9.133   7.605   8.783
23516WAT     H170790   9.190   7.564   8.711
23516WAT     H270791   9.125   7.542   8.860
23517WAT      O70792   9.561   1.972   3.809
23517WAT     H170793   9.568   1.966   3.710
23517WAT     H270794   9.633   2.030   3.845
23518WAT      O70795   0.287   8.125   2.744
23518WAT     H170796   0.329   8.076   2.819
23518WAT     H270797   0.357   8.156   2.680
23519WAT      O70798   2.253   6.734   1.531
23519WAT     H170799   2.255   6.779   1.620
23519WAT     H270800   2.207   6.793   1.465
23520WAT      O70801   8.678   1.246   6.729
23520WAT     H170802   8.675   1.151   6.701
23520WAT     H270803   8.737   1.255   6.809
23521WAT      O70804   2.932   1.886   9.437
23521WAT     H170805   2.950   1.874   9.535
23521WAT     H270806   2.901   1.800   9.397
23522WAT      O70807   5.585   3.197   2.994
23522WAT     H170808   5.598   3.097   2.994
23522WAT     H270809   5.673   3.242   2.985
23523WAT      O70810   5.186   8.392   3.733
23523WAT     H170811   5.125   8.345   3.670
23523WAT     H270812   5.260   8.435   3.682
23524WAT      O70813   5.413   1.274   4.721
23524WAT     H170814   5.481   1.282   4.794
23524WAT     H270815   5.327   1.241   4.760
23525WAT      O70816   2.522   8.451   9.253
23525WAT     H170817   2.466   8.450   9.336
23525WAT     H270818   2.462   8.447   9.173
23526WAT      O70819   5.673   7.677   3.671
23526WAT     H170820   5.765   7.686   3.708
23526WAT     H270821   5.677   7.673   3.571
23527WAT      O70822   2.858   0.849   5.043
23527WAT     H170823   2.772   0.828   5.090
23527WAT     H270824   2.897   0.933   5.081
23528WAT      O70825   4.697   5.941   9.309
23528WAT     H170826   4.741   5.887   9.381
23528WAT     H270827   4.734   6.034   9.310
23529WAT      O70828   5.074   9.328   7.262
23529WAT     H170829   5.014   9.334   7.342
23529WAT     H270830   5.166   9.306   7.291
23530WAT      O70831   7.871   5.129   8.846
23530WAT     H170832   7.848   5.121   8.943
23530WAT     H270833   7.822   5.060   8.794
23531WAT      O70834   7.460   4.189   0.085
23531WAT     H170835   7.386   4.208   0.021
23531WAT     H270836   7.481   4.091   0.083
23532WAT      O70837   5.900   8.021   1.168
23532WAT     H170838   5.988   8.051   1.207
23532WAT     H270839   5.912   8.003   1.070
23533WAT      O70840   4.270   6.332   7.149
23533WAT     H170841   4.366   6.355   7.163
23533WAT     H270842   4.230   6.394   7.082
23534WAT      O70843   9.325   1.355   7.619
23534WAT     H170844   9.341   1.272   7.672
23534WAT     H270845   9.366   1.433   7.666
23535WAT      O70846   1.386   0.633   1.840
23535WAT     H170847   1.327   0.607   1.764
23535WAT     H270848   1.330   0.661   1.918
23536WAT      O70849   5.458   2.098   8.890
23536WAT     H170850   5.485   2.129   8.799
23536WAT     H270851   5.406   2.170   8.936
23537WAT      O70852   0.507   4.658   8.149
23537WAT     H170853   0.436   4.590   8.140
23537WAT     H270854   0.596   4.613   8.156
23538WAT      O70855   7.084   1.821   0.168
23538WAT     H170856   7.042   1.882   0.236
23538WAT     H270857   7.139   1.752   0.215
23539WAT      O70858   5.836   1.349   8.058
23539WAT     H170859   5.902   1.424   8.053
23539WAT     H270860   5.746   1.385   8.082
23540WAT      O70861   9.105   2.193   9.496
23540WAT     H170862   9.182   2.229   9.549
23540WAT     H270863   9.019   2.218   9.541
23541WAT      O70864   5.409   4.126   0.090
23541WAT     H170865   5.343   4.058   0.121
23541WAT     H270866   5.478   4.140   0.161
23542WAT      O70867   5.785   5.378   9.669
23542WAT     H170868   5.862   5.437   9.691
23542WAT     H270869   5.710   5.433   9.632
23543WAT      O70870   4.344   1.855   6.323
23543WAT     H170871   4.378   1.782   6.263
23543WAT     H270872   4.255   1.885   6.292
23544WAT      O70873   3.070   2.562   9.394
23544WAT     H170874   3.023   2.556   9.306
23544WAT     H270875   3.116   2.476   9.413
23545WAT      O70876   7.931   4.808   7.304
23545WAT     H170877   7.980   4.800   7.390
23545WAT     H270878   7.833   4.818   7.322
23546WAT      O70879   2.120   4.177   7.828
23546WAT     H170880   2.057   4.123   7.883
23546WAT     H270881   2.070   4.226   7.758
23547WAT      O70882   4.878   9.300   6.491
23547WAT     H170883   4.963   9.264   6.528
23547WAT     H270884   4.805   9.232   6.503
23548WAT      O70885   4.227   1.042   2.888
23548WAT     H170886   4.265   0.997   2.808
23548WAT     H270887   4.185   0.973   2.948
23549WAT      O70888   8.025   8.428   5.688
23549WAT     H170889   7.940   8.408   5.738
23549WAT     H270890   8.091   8.469   5.750
23550WAT      O70891   8.523   3.845   9.340
23550WAT     H170892   8.544   3.925   9.285
23550WAT     H270893   8.467   3.873   9.419
23551WAT      O70894   0.050   9.113   5.058
23551WAT     H170895   0.016   9.167   5.135
23551WAT     H270896  -0.027   9.083   5.001
23552WAT      O70897   6.337   5.372   5.350
23552WAT     H170898   6.381   5.395   5.436
23552WAT     H270899   6.239   5.394   5.355
23553WAT      O70900   4.872   0.081   6.153
23553WAT     H170901   4.826   0.000   6.116
23553WAT     H270902   4.910   0.059   6.243
23554WAT      O70903   4.000   2.735   0.823
23554WAT     H170904   3.921   2.795   0.839
23554WAT     H270905   4.080   2.771   0.872
23555WAT      O70906   8.152   3.874   2.574
23555WAT     H170907   8.228   3.932   2.548
23555WAT     H270908   8.185   3.799   2.632
23556WAT      O70909   4.325   1.357   2.851
23556WAT     H170910   4.317   1.264   2.816
23556WAT     H270911   4.270   1.366   2.935
23557WAT      O70912   0.839   9.473   7.823
23557WAT     H170913   0.755   9.480   7.770
23557WAT     H270914   0.816   9.450   7.917
23558WAT      O70915   1.190   6.171   1.661
23558WAT     H170916   1.212   6.160   1.758
23558WAT     H270917   1.252   6.238   1.620
23559WAT      O70918   1.450   7.942   9.228
23559WAT     H170919   1.481   8.030   9.191
23559WAT     H270920   1.467   7.939   9.327
23560WAT      O70921   1.091   6.252   3.243
23560WAT     H170922   1.107   6.175   3.181
23560WAT     H270923   1.048   6.219   3.327
23561WAT      O70924   9.559   7.331   6.895
23561WAT     H170925   9.596   7.261   6.835
23561WAT     H270926   9.548   7.416   6.844
23562WAT      O70927   0.619   4.556   6.266
23562WAT     H170928   0.529   4.592   6.288
23562WAT     H270929   0.631   4.551   6.167
23563WAT      O70930   2.801   6.422   1.631
23563WAT     H170931   2.836   6.331   1.653
23563WAT     H270932   2.711   6.413   1.588
23564WAT      O70933   5.923   2.330   4.330
23564WAT     H170934   5.836   2.338   4.379
23564WAT     H270935   5.906   2.292   4.239
23565WAT      O70936   8.302   3.503   8.735
23565WAT     H170937   8.339   3.412   8.713
23565WAT     H270938   8.221   3.520   8.679
23566WAT      O70939   7.548   5.271   7.982
23566WAT     H170940   7.596   5.344   7.934
23566WAT     H270941   7.597   5.185   7.969
23567WAT      O70942   5.867   5.148   4.922
23567WAT     H170943   5.833   5.159   5.016
23567WAT     H270944   5.843   5.230   4.869
23568WAT      O70945   8.399   0.983   3.424
23568WAT     H170946   8.345   0.963   3.506
23568WAT     H270947   8.488   1.021   3.451
23569WAT      O70948   5.997   1.779   5.614
23569WAT     H170949   5.946   1.767   5.699
23569WAT     H270950   6.083   1.728   5.619
23570WAT      O70951   9.559   2.886   3.590
23570WAT     H170952   9.475   2.935   3.567
23570WAT     H270953   9.536   2.799   3.634
23571WAT      O70954   8.102   7.705   4.698
23571WAT     H170955   8.141   7.722   4.789
23571WAT     H270956   8.150   7.628   4.656
23572WAT      O70957   3.472   8.451   8.479
23572WAT     H170958   3.550   8.400   8.443
23572WAT     H270959   3.387   8.414   8.441
23573WAT      O70960   5.400   9.790   5.165
23573WAT     H170961   5.442   9.727   5.100
23573WAT     H270962   5.469   9.854   5.199
23574WAT      O70963   4.387   3.534   6.673
23574WAT     H170964   4.292   3.545   6.645
23574WAT     H270965   4.443   3.605   6.629
23575WAT      O70966   7.610   6.718   1.870
23575WAT     H170967   7.609   6.659   1.789
23575WAT     H270968   7.645   6.808   1.845
23576WAT      O70969   1.073   9.405   0.894
23576WAT     H170970   1.010   9.332   0.870
23576WAT     H270971   1.162   9.365   0.919
23577WAT      O70972   7.290   1.574   9.789
23577WAT     H170973   7.346   1.518   9.728
23577WAT     H270974   7.255   1.653   9.739
23578WAT      O70975   9.365   0.961   1.260
23578WAT     H170976   9.269   0.986   1.248
23578WAT     H270977   9.379   0.925   1.352
23579WAT      O70978   3.724   8.540   1.762
23579WAT     H170979   3.727   8.606   1.837
23579WAT     H270980   3.743   8.449   1.797
23580WAT      O70981   3.250   4.738   8.289
23580WAT     H170982   3.239   4.775   8.381
23580WAT     H270983   3.194   4.655   8.279
23581WAT      O70984   6.328   3.765   8.896
23581WAT     H170985   6.266   3.689   8.915
23581WAT     H270986   6.393   3.775   8.972
23582WAT      O70987   1.908   8.130   7.921
23582WAT     H170988   1.843   8.070   7.874
23582WAT     H270989   1.970   8.076   7.976
23583WAT      O70990   9.208   1.544   6.391
23583WAT     H170991   9.164   1.458   6.418
23583WAT     H270992   9.148   1.593   6.328
23584WAT      O70993   3.084   5.103   4.586
23584WAT     H170994   3.112   5.146   4.500
23584WAT     H270995   3.005   5.045   4.570
23585WAT      O70996   1.588   1.019   0.809
23585WAT     H170997   1.564   0.922   0.821
23585WAT     H270998   1.527   1.060   0.741
23586WAT      O70999   7.787   7.674   3.302
23586WAT     H171000   7.716   7.605   3.313
23586WAT     H271001   7.873   7.641   3.341
23587WAT      O71002   7.863   3.102   1.653
23587WAT     H171003   7.864   3.024   1.591
23587WAT     H271004   7.801   3.084   1.728
23588WAT      O71005   5.297   0.370   3.341
23588WAT     H171006   5.226   0.422   3.388
23588WAT     H271007   5.299   0.397   3.244
23589WAT      O71008   5.278   0.472   9.496
23589WAT     H171009   5.282   0.495   9.593
23589WAT     H271010   5.274   0.373   9.486
23590WAT      O71011   2.934   9.150   2.243
23590WAT     H171012   3.031   9.137   2.226
23590WAT     H271013   2.917   9.244   2.273
23591WAT      O71014   5.830   7.083   7.058
23591WAT     H171015   5.850   7.155   7.124
23591WAT     H271016   5.916   7.040   7.029
23592WAT      O71017   5.647   0.824   6.848
23592WAT     H171018   5.638   0.921   6.825
23592WAT     H271019   5.598   0.769   6.782
23593WAT      O71020   8.051   8.954   1.549
23593WAT     H171021   8.123   8.957   1.619
23593WAT     H271022   8.026   9.047   1.523
23594WAT      O71023   9.467   8.251   3.906
23594WAT     H171024   9.538   8.243   3.976
23594WAT     H271025   9.390   8.194   3.931
23595WAT      O71026   3.462   7.469   2.777
23595WAT     H171027   3.546   7.515   2.806
23595WAT     H271028   3.394   7.474   2.850
23596WAT      O71029   0.694   4.745   5.784
23596WAT     H171030   0.688   4.810   5.860
23596WAT     H271031   0.769   4.773   5.723
23597WAT      O71032   9.412   4.453   4.181
23597WAT     H171033   9.371   4.538   4.214
23597WAT     H271034   9.342   4.396   4.138
23598WAT      O71035   1.920   7.695   4.091
23598WAT     H171036   1.848   7.747   4.047
23598WAT     H271037   1.881   7.639   4.164
23599WAT      O71038   6.630   6.623   8.547
23599WAT     H171039   6.641   6.524   8.544
23599WAT     H271040   6.585   6.654   8.463
23600WAT      O71041   8.015   6.294   7.685
23600WAT     H171042   7.975   6.385   7.697
23600WAT     H271043   7.953   6.236   7.633
23601WAT      O71044   6.121   8.072   1.305
23601WAT     H171045   6.104   7.988   1.357
23601WAT     H271046   6.107   8.152   1.364
23602WAT      O71047   9.286   2.727   6.083
23602WAT     H171048   9.311   2.812   6.129
23602WAT     H271049   9.293   2.739   5.984
23603WAT      O71050   8.649   2.987   0.072
23603WAT     H171051   8.622   3.068   0.019
23603WAT     H271052   8.567   2.940   0.104
23604WAT      O71053   8.929   0.239   9.595
23604WAT     H171054   8.863   0.214   9.666
23604WAT     H271055   9.012   0.184   9.605
23605WAT      O71056   2.224   2.690   2.045
23605WAT     H171057   2.208   2.668   2.141
23605WAT     H271058   2.151   2.650   1.990
23606WAT      O71059   1.467   8.701   6.500
23606WAT     H171060   1.547   8.746   6.459
23606WAT     H271061   1.394   8.696   6.432
23607WAT      O71062   0.254   5.702   1.908
23607WAT     H171063   0.177   5.751   1.865
23607WAT     H271064   0.320   5.769   1.943
23608WAT      O71065   5.275   1.509   3.774
23608WAT     H171066   5.349   1.454   3.734
23608WAT     H271067   5.201   1.449   3.804
23609WAT      O71068   8.240   1.582   7.852
23609WAT     H171069   8.264   1.510   7.917
23609WAT     H271070   8.301   1.578   7.773
23610WAT      O71071   7.755   5.933   9.863
23610WAT     H171072   7.767   6.007   9.797
23610WAT     H271073   7.676   5.952   9.921
23611WAT      O71074   4.582   5.099   9.481
23611WAT     H171075   4.637   5.081   9.400
23611WAT     H271076   4.555   5.196   9.482
23612WAT      O71077   7.608   6.558   3.120
23612WAT     H171078   7.668   6.600   3.188
23612WAT     H271079   7.564   6.477   3.160
23613WAT      O71080   0.145   1.258   4.266
23613WAT     H171081   0.048   1.282   4.258
23613WAT     H271082   0.177   1.279   4.358
23614WAT      O71083   5.122   3.126   6.990
23614WAT     H171084   5.075   3.090   7.070
23614WAT     H271085   5.086   3.217   6.968
23615WAT      O71086   9.756   5.905   2.797
23615WAT     H171087   9.722   5.833   2.857
23615WAT     H271088   9.767   5.990   2.849
23616WAT      O71089   5.225   4.745   8.971
23616WAT     H171090   5.292   4.699   8.913
23616WAT     H271091   5.269   4.821   9.019
23617WAT      O71092   9.648   9.471   8.239
23617WAT     H171093   9.680   9.564   8.221
23617WAT     H271094   9.713   9.425   8.300
23618WAT      O71095   6.043   0.098   4.498
23618WAT     H171096   6.060   0.196   4.509
23618WAT     H271097   5.950   0.084   4.464
23619WAT      O71098   6.005   4.413   2.546
23619WAT     H171099   5.964   4.455   2.627
23619WAT     H271100   5.950   4.334   2.519
23620WAT      O71101   9.160   8.837   8.191
23620WAT     H171102   9.197   8.929   8.179
23620WAT     H271103   9.061   8.842   8.201
23621WAT      O71104   2.355   4.802   0.811
23621WAT     H171105   2.337   4.763   0.720
23621WAT     H271106   2.280   4.864   0.836
23622WAT      O71107   7.790   6.084   5.808
23622WAT     H171108   7.833   6.171   5.833
23622WAT     H271109   7.712   6.103   5.747
23623WAT      O71110   8.615   3.696   4.920
23623WAT     H171111   8.693   3.636   4.938
23623WAT     H271112   8.648   3.781   4.879
23624WAT      O71113   7.247   4.954   2.994
23624WAT     H171114   7.272   5.033   2.938
23624WAT     H271115   7.148   4.954   3.010
23625WAT      O71116   5.698   3.356   3.419
23625WAT     H171117   5.616   3.309   3.385
23625WAT     H271118   5.744   3.401   3.343
23626WAT      O71119   4.654   8.701   9.389
23626WAT     H171120   4.741   8.652   9.400
23626WAT     H271121   4.673   8.793   9.356
23627WAT      O71122   4.798   6.440   0.488
23627WAT     H171123   4.836   6.519   0.535
23627WAT     H271124   4.838   6.433   0.397
23628WAT      O71125   5.161   3.369   0.916
23628WAT     H171126   5.082   3.430   0.909
23628WAT     H271127   5.228   3.393   0.846
23629WAT      O71128   0.884   9.180   2.945
23629WAT     H171129   0.898   9.087   2.980
23629WAT     H271130   0.861   9.240   3.021
23630WAT      O71131   9.087   0.487   8.775
23630WAT     H171132   9.079   0.484   8.675
23630WAT     H271133   9.089   0.582   8.805
23631WAT      O71134   5.165   6.369   9.820
23631WAT     H171135   5.175   6.410   9.729
23631WAT     H271136   5.198   6.434   9.889
23632WAT      O71137   0.172   2.173   7.831
23632WAT     H171138   0.127   2.258   7.803
23632WAT     H271139   0.242   2.149   7.763
23633WAT      O71140   2.511   9.573   0.279
23633WAT     H171141   2.530   9.537   0.371
23633WAT     H271142   2.460   9.505   0.227
23634WAT      O71143   3.567   7.778   0.828
23634WAT     H171144   3.516   7.856   0.864
23634WAT     H271145   3.553   7.698   0.888
23635WAT      O71146   1.563   3.034   9.754
23635WAT     H171147   1.607   3.052   9.842
23635WAT     H271148   1.595   3.100   9.686
23636WAT      O71149   1.695   3.138   7.499
23636WAT     H171150   1.791   3.110   7.506
23636WAT     H271151   1.641   3.088   7.567
23637WAT      O71152   6.808   2.380   7.335
23637WAT     H171153   6.804   2.405   7.431
23637WAT     H271154   6.744   2.437   7.283
23638WAT      O71155   8.799   9.475   4.551
23638WAT     H171156   8.783   9.377   4.535
23638WAT     H271157   8.897   9.492   4.560
23639WAT      O71158   0.885   4.356   4.421
23639WAT     H171159   0.896   4.342   4.322
23639WAT     H271160   0.942   4.290   4.470
23640WAT      O71161   5.742   7.187   0.090
23640WAT     H171162   5.698   7.108   0.049
23640WAT     H271163   5.753   7.172   0.189
23641WAT      O71164   3.510   2.337   2.381
23641WAT     H171165   3.463   2.424   2.368
23641WAT     H271166   3.488   2.275   2.306
23642WAT      O71167   1.868   0.109   7.816
23642WAT     H171168   1.859   0.120   7.717
23642WAT     H271169   1.823   0.185   7.863
23643WAT      O71170   7.571   3.350   7.339
23643WAT     H171171   7.484   3.334   7.385
23643WAT     H271172   7.647   3.328   7.401
23644WAT      O71173   1.573   3.574   8.732
23644WAT     H171174   1.614   3.593   8.642
23644WAT     H271175   1.564   3.475   8.744
23645WAT      O71176   6.693   7.260   4.071
23645WAT     H171177   6.752   7.263   4.152
23645WAT     H271178   6.733   7.317   3.999
23646WAT      O71179   9.814   3.524   1.512
23646WAT     H171180   9.774   3.589   1.448
23646WAT     H271181   9.895   3.482   1.472
23647WAT      O71182   8.801   5.045   6.582
23647WAT     H171183   8.889   5.081   6.549
23647WAT     H271184   8.733   5.056   6.510
23648WAT      O71185   1.028   2.112   2.101
23648WAT     H171186   1.038   2.084   2.197
23648WAT     H271187   1.103   2.174   2.077
23649WAT      O71188   4.239   4.111   7.080
23649WAT     H171189   4.141   4.129   7.072
23649WAT     H271190   4.287   4.145   6.999
23650WAT      O71191   4.653   3.568   9.592
23650WAT     H171192   4.567   3.583   9.543
23650WAT     H271193   4.678   3.471   9.588
23651WAT      O71194   5.353   7.893   1.982
23651WAT     H171195   5.383   7.810   1.935
23651WAT     H271196   5.267   7.875   2.029
23652WAT      O71197   3.556   5.635   4.433
23652WAT     H171198   3.646   5.668   4.403
23652WAT     H271199   3.530   5.556   4.377
23653WAT      O71200   9.243   5.715   1.015
23653WAT     H171201   9.334   5.711   1.057
23653WAT     H271202   9.186   5.780   1.065
23654WAT      O71203   4.008   0.618   1.598
23654WAT     H171204   4.104   0.614   1.569
23654WAT     H271205   3.949   0.627   1.517
23655WAT      O71206   8.551   7.032   5.363
23655WAT     H171207   8.563   7.110   5.424
23655WAT     H271208   8.514   7.063   5.276
23656WAT      O71209   7.554   7.950   3.773
23656WAT     H171210   7.627   7.892   3.808
23656WAT     H271211   7.468   7.899   3.773
23657WAT      O71212   7.565   0.531   6.727
23657WAT     H171213   7.635   0.536   6.656
23657WAT     H271214   7.502   0.608   6.716
23658WAT      O71215   7.815   0.474   5.391
23658WAT     H171216   7.752   0.542   5.427
23658WAT     H271217   7.840   0.410   5.463
23659WAT      O71218   0.489   0.505   7.978
23659WAT     H171219   0.418   0.530   8.043
23659WAT     H271220   0.463   0.536   7.886
23660WAT      O71221   3.152   6.098   5.949
23660WAT     H171222   3.228   6.090   6.013
23660WAT     H271223   3.166   6.035   5.872
23661WAT      O71224   7.217   0.997   8.248
23661WAT     H171225   7.172   1.081   8.217
23661WAT     H271226   7.246   1.009   8.343
23662WAT      O71227   8.567   1.964   7.251
23662WAT     H171228   8.545   2.030   7.323
23662WAT     H271229   8.602   1.880   7.292
23663WAT      O71230   9.559   8.398   2.821
23663WAT     H171231   9.580   8.368   2.728
23663WAT     H271232   9.463   8.427   2.825
23664WAT      O71233   9.228   0.156   2.754
23664WAT     H171234   9.273   0.072   2.783
23664WAT     H271235   9.204   0.149   2.657
23665WAT      O71236   1.831   9.104   9.668
23665WAT     H171237   1.751   9.101   9.608
23665WAT     H271238   1.801   9.104   9.763
23666WAT      O71239   8.336   9.774   7.970
23666WAT     H171240   8.243   9.735   7.966
23666WAT     H271241   8.333   9.870   7.941
23667WAT      O71242   4.955   9.452   1.491
23667WAT     H171243   5.033   9.516   1.490
23667WAT     H271244   4.897   9.470   1.412
23668WAT      O71245   7.205   9.719   9.671
23668WAT     H171246   7.119   9.738   9.624
23668WAT     H271247   7.245   9.635   9.635
23669WAT      O71248   5.240   5.949   0.982
23669WAT     H171249   5.247   5.974   0.886
23669WAT     H271250   5.281   5.859   0.996
23670WAT      O71251   3.931   8.918   5.509
23670WAT     H171252   3.891   8.880   5.593
23670WAT     H271253   3.973   9.006   5.530
23671WAT      O71254   5.907   3.195   2.506
23671WAT     H171255   5.854   3.228   2.428
23671WAT     H271256   5.966   3.120   2.476
23672WAT      O71257   7.744   6.294   8.048
23672WAT     H171258   7.702   6.331   8.131
23672WAT     H271259   7.843   6.293   8.059
23673WAT      O71260   1.356   4.322   6.873
23673WAT     H171261   1.392   4.414   6.880
23673WAT     H271262   1.270   4.315   6.924
23674WAT      O71263   9.474   0.634   4.644
23674WAT     H171264   9.388   0.682   4.628
23674WAT     H271265   9.477   0.551   4.590
23675WAT      O71266   0.015   8.653   8.061
23675WAT     H171267   0.107   8.676   8.093
23675WAT     H271268   0.021   8.587   7.986
23676WAT      O71269   0.568   6.888   0.392
23676WAT     H171270   0.661   6.879   0.429
23676WAT     H271271   0.569   6.951   0.315
23677WAT      O71272   4.320   1.131   5.756
23677WAT     H171273   4.389   1.148   5.686
23677WAT     H271274   4.229   1.140   5.716
23678WAT      O71275   1.506   8.221   5.553
23678WAT     H171276   1.409   8.219   5.532
23678WAT     H271277   1.533   8.137   5.600
23679WAT      O71278   5.795   8.303   2.004
23679WAT     H171279   5.835   8.272   1.917
23679WAT     H271280   5.805   8.231   2.072
23680WAT      O71281   4.396   2.203   0.050
23680WAT     H171282   4.321   2.263   0.077
23680WAT     H271283   4.419   2.142   0.127
23681WAT      O71284   9.627   3.133   0.856
23681WAT     H171285   9.530   3.159   0.858
23681WAT     H271286   9.665   3.140   0.948
23682WAT      O71287   8.149   7.166   4.624
23682WAT     H171288   8.113   7.110   4.550
23682WAT     H271289   8.199   7.109   4.688
23683WAT      O71290   4.697   4.385   6.825
23683WAT     H171291   4.697   4.331   6.741
23683WAT     H271292   4.790   4.391   6.861
23684WAT      O71293   0.848   5.171   9.339
23684WAT     H171294   0.787   5.209   9.270
23684WAT     H271295   0.802   5.171   9.428
23685WAT      O71296   1.635   9.295   9.258
23685WAT     H171297   1.689   9.325   9.179
23685WAT     H271298   1.539   9.287   9.232
23686WAT      O71299   5.598   0.879   9.185
23686WAT     H171300   5.570   0.801   9.241
23686WAT     H271301   5.691   0.863   9.150
23687WAT      O71302   0.321   8.789   1.285
23687WAT     H171303   0.364   8.864   1.337
23687WAT     H271304   0.261   8.828   1.215
23688WAT      O71305   3.585   7.215   6.135
23688WAT     H171306   3.502   7.159   6.130
23688WAT     H271307   3.656   7.165   6.184
23689WAT      O71308   3.971   0.291   8.761
23689WAT     H171309   3.886   0.238   8.764
23689WAT     H271310   4.050   0.229   8.765
23690WAT      O71311   4.187   0.788   6.637
23690WAT     H171312   4.216   0.695   6.616
23690WAT     H271313   4.204   0.847   6.558
23691WAT      O71314   7.018   0.029   9.021
23691WAT     H171315   7.065  -0.049   9.062
23691WAT     H271316   7.075   0.068   8.949
23692WAT      O71317   5.515   0.900   6.503
23692WAT     H171318   5.612   0.883   6.522
23692WAT     H271319   5.466   0.813   6.499
23693WAT      O71320   8.007   0.911   8.125
23693WAT     H171321   8.083   0.865   8.172
23693WAT     H271322   7.924   0.856   8.135
23694WAT      O71323   6.481   4.331   5.269
23694WAT     H171324   6.434   4.297   5.188
23694WAT     H271325   6.527   4.418   5.248
23695WAT      O71326   9.321   2.929   7.587
23695WAT     H171327   9.269   2.908   7.670
23695WAT     H271328   9.316   2.852   7.524
23696WAT      O71329   2.692   6.454   6.080
23696WAT     H171330   2.662   6.390   6.151
23696WAT     H271331   2.643   6.436   5.995
23697WAT      O71332   4.326   9.777   5.770
23697WAT     H171333   4.314   9.776   5.870
23697WAT     H271334   4.264   9.711   5.729
23698WAT      O71335   1.243   7.342   9.683
23698WAT     H171336   1.217   7.305   9.594
23698WAT     H271337   1.337   7.374   9.680
23699WAT      O71338   5.841   5.383   4.469
23699WAT     H171339   5.761   5.330   4.441
23699WAT     H271340   5.882   5.342   4.551
23700WAT      O71341   8.070   8.247   5.469
23700WAT     H171342   8.072   8.325   5.531
23700WAT     H271343   7.979   8.238   5.429
23701WAT      O71344   3.104   2.505   6.968
23701WAT     H171345   3.006   2.524   6.975
23701WAT     H271346   3.154   2.565   7.031
23702WAT      O71347   0.382   3.354   3.051
23702WAT     H171348   0.313   3.393   2.990
23702WAT     H271349   0.472   3.392   3.028
23703WAT      O71350   7.240   0.995   8.531
23703WAT     H171351   7.229   0.914   8.587
23703WAT     H271352   7.193   1.073   8.574
23704WAT      O71353   8.563   8.695   4.476
23704WAT     H171354   8.614   8.720   4.559
23704WAT     H271355   8.485   8.637   4.501
23705WAT      O71356   7.848   3.511   8.757
23705WAT     H171357   7.796   3.444   8.704
23705WAT     H271358   7.824   3.603   8.727
23706WAT      O71359   2.173   0.195   8.466
23706WAT     H171360   2.178   0.231   8.372
23706WAT     H271361   2.078   0.179   8.491
23707WAT      O71362   3.885   1.650   8.123
23707WAT     H171363   3.816   1.587   8.159
23707WAT     H271364   3.844   1.740   8.109
23708WAT      O71365   6.485   6.674   2.256
23708WAT     H171366   6.505   6.761   2.301
23708WAT     H271367   6.388   6.653   2.265
23709WAT      O71368   1.181   2.074   9.864
23709WAT     H171369   1.258   2.073   9.800
23709WAT     H271370   1.203   2.015   9.942
23710WAT      O71371   4.617   6.640   1.484
23710WAT     H171372   4.669   6.719   1.453
23710WAT     H271373   4.597   6.581   1.405
23711WAT      O71374   2.662   1.429   0.071
23711WAT     H171375   2.688   1.407   0.165
23711WAT     H271376   2.615   1.518   0.069
23712WAT      O71377   6.377   8.358   1.863
23712WAT     H171378   6.408   8.362   1.958
23712WAT     H271379   6.360   8.450   1.829
23713WAT      O71380   7.050   4.332   0.866
23713WAT     H171381   7.084   4.291   0.950
23713WAT     H271382   7.072   4.430   0.865
23714WAT      O71383   2.975   8.743   8.586
23714WAT     H171384   2.986   8.654   8.544
23714WAT     H271385   2.892   8.744   8.641
23715WAT      O71386   0.958   7.652   5.418
23715WAT     H171387   0.900   7.718   5.465
23715WAT     H271388   1.014   7.603   5.485
23716WAT      O71389   8.674   7.785   3.630
23716WAT     H171390   8.674   7.795   3.730
23716WAT     H271391   8.765   7.806   3.595
23717WAT      O71392   2.891   8.653   1.625
23717WAT     H171393   2.975   8.697   1.658
23717WAT     H271394   2.812   8.692   1.673
23718WAT      O71395   3.862   4.920   0.515
23718WAT     H171396   3.870   4.871   0.428
23718WAT     H271397   3.774   4.968   0.518
23719WAT      O71398   7.206   4.204   1.073
23719WAT     H171399   7.274   4.196   1.000
23719WAT     H271400   7.222   4.133   1.141
23720WAT      O71401   0.610   8.843   3.606
23720WAT     H171402   0.554   8.823   3.686
23720WAT     H271403   0.556   8.829   3.523
23721WAT      O71404   3.348   2.651   7.810
23721WAT     H171405   3.255   2.679   7.791
23721WAT     H271406   3.379   2.695   7.895
23722WAT      O71407   4.246   9.409   4.350
23722WAT     H171408   4.296   9.474   4.407
23722WAT     H271409   4.275   9.418   4.255
23723WAT      O71410   9.331   2.918   4.280
23723WAT     H171411   9.418   2.953   4.246
23723WAT     H271412   9.339   2.820   4.298
23724WAT      O71413   7.350   9.144   2.078
23724WAT     H171414   7.379   9.114   2.169
23724WAT     H271415   7.372   9.073   2.011
23725WAT      O71416   4.955   3.059   1.322
23725WAT     H171417   5.035   3.052   1.382
23725WAT     H271418   4.920   3.153   1.325
23726WAT      O71419   5.317   2.687   9.454
23726WAT     H171420   5.411   2.697   9.488
23726WAT     H271421   5.309   2.730   9.364
23727WAT      O71422   6.135   0.447   5.702
23727WAT     H171423   6.100   0.384   5.632
23727WAT     H271424   6.228   0.419   5.727
23728WAT      O71425   6.645   3.216   8.248
23728WAT     H171426   6.589   3.274   8.307
23728WAT     H271427   6.739   3.250   8.247
23729WAT      O71428   0.462   1.632   2.453
23729WAT     H171429   0.512   1.545   2.452
23729WAT     H271430   0.427   1.651   2.361
23730WAT      O71431   0.353   1.395   8.967
23730WAT     H171432   0.332   1.473   8.907
23730WAT     H271433   0.313   1.312   8.928
23731WAT      O71434   4.909   3.678   4.690
23731WAT     H171435   4.978   3.668   4.762
23731WAT     H271436   4.915   3.601   4.627
23732WAT      O71437   8.855   0.596   7.462
23732WAT     H171438   8.929   0.663   7.460
23732WAT     H271439   8.767   0.643   7.475
23733WAT      O71440   4.803   8.705   6.831
23733WAT     H171441   4.757   8.727   6.746
23733WAT     H271442   4.882   8.646   6.812
23734WAT      O71443   8.526   5.580   4.084
23734WAT     H171444   8.461   5.592   4.009
23734WAT     H271445   8.489   5.514   4.150
23735WAT      O71446   7.015   1.902   2.516
23735WAT     H171447   7.018   1.864   2.608
23735WAT     H271448   6.920   1.913   2.487
23736WAT      O71449   5.117   5.858   6.620
23736WAT     H171450   5.063   5.843   6.538
23736WAT     H271451   5.145   5.954   6.626
23737WAT      O71452   8.534   4.599   7.554
23737WAT     H171453   8.511   4.508   7.590
23737WAT     H271454   8.462   4.629   7.492
23738WAT      O71455   3.141   4.505   2.096
23738WAT     H171456   3.116   4.434   2.030
23738WAT     H271457   3.234   4.489   2.128
23739WAT      O71458   5.320   7.203   9.851
23739WAT     H171459   5.297   7.300   9.859
23739WAT     H271460   5.239   7.151   9.825
23740WAT      O71461   6.552   3.907   3.883
23740WAT     H171462   6.472   3.849   3.872
23740WAT     H271463   6.532   4.000   3.852
23741WAT      O71464   7.629   7.760   0.188
23741WAT     H171465   7.647   7.856   0.209
23741WAT     H271466   7.713   7.717   0.153
23742WAT      O71467   2.766   8.018   6.748
23742WAT     H171468   2.678   8.006   6.703
23742WAT     H271469   2.777   7.947   6.819
23743WAT      O71470   9.861   8.204   1.350
23743WAT     H171471   9.901   8.124   1.306
23743WAT     H271472   9.850   8.186   1.448
23744WAT      O71473   8.227   3.317   1.536
23744WAT     H171474   8.303   3.252   1.527
23744WAT     H271475   8.196   3.320   1.631
23745WAT      O71476   2.056   6.909   1.798
23745WAT     H171477   2.053   6.955   1.887
23745WAT     H271478   2.150   6.887   1.775
23746WAT      O71479   6.041   1.612   4.560
23746WAT     H171480   6.019   1.649   4.470
23746WAT     H271481   6.105   1.674   4.606
23747WAT      O71482   1.616   4.911   9.640
23747WAT     H171483   1.665   4.995   9.616
23747WAT     H271484   1.656   4.833   9.592
23748WAT      O71485   9.280   7.958   3.735
23748WAT     H171486   9.270   8.022   3.811
23748WAT     H271487   9.229   7.874   3.756
23749WAT      O71488   1.897   5.296   9.363
23749WAT     H171489   1.971   5.314   9.428
23749WAT     H271490   1.822   5.362   9.380
23750WAT      O71491   2.049   3.647   5.123
23750WAT     H171492   1.952   3.639   5.143
23750WAT     H271493   2.072   3.591   5.043
23751WAT      O71494   4.206   7.316   7.135
23751WAT     H171495   4.205   7.220   7.107
23751WAT     H271496   4.112   7.347   7.153
23752WAT      O71497   9.251   3.363   4.262
23752WAT     H171498   9.153   3.380   4.268
23752WAT     H271499   9.273   3.279   4.311
23753WAT      O71500   8.282   4.160   0.462
23753WAT     H171501   8.254   4.253   0.438
23753WAT     H271502   8.237   4.132   0.547
23754WAT      O71503   5.269   9.781   2.381
23754WAT     H171504   5.348   9.757   2.324
23754WAT     H271505   5.190   9.726   2.355
23755WAT      O71506   7.643   3.640   7.985
23755WAT     H171507   7.641   3.713   8.053
23755WAT     H271508   7.678   3.676   7.898
23756WAT      O71509   1.483   7.012   3.516
23756WAT     H171510   1.551   7.017   3.589
23756WAT     H271511   1.396   7.050   3.547
23757WAT      O71512   0.907   2.326   5.605
23757WAT     H171513   0.828   2.281   5.646
23757WAT     H271514   0.991   2.293   5.649
23758WAT      O71515   7.249   9.578   8.194
23758WAT     H171516   7.251   9.559   8.292
23758WAT     H271517   7.227   9.674   8.179
23759WAT      O71518   6.370   3.865   7.941
23759WAT     H171519   6.391   3.956   7.904
23759WAT     H271520   6.387   3.865   8.040
23760WAT      O71521   7.579   3.413   1.155
23760WAT     H171522   7.488   3.435   1.191
23760WAT     H271523   7.578   3.322   1.115
23761WAT      O71524   0.579   9.817   6.908
23761WAT     H171525   0.619   9.826   6.817
23761WAT     H271526   0.480   9.833   6.902
23762WAT      O71527   6.117   4.261   3.392
23762WAT     H171528   6.108   4.226   3.485
23762WAT     H271529   6.214   4.271   3.370
23763WAT      O71530   5.856   2.306   8.980
23763WAT     H171531   5.859   2.276   9.075
23763WAT     H271532   5.929   2.372   8.963
23764WAT      O71533   9.485   5.893   9.844
23764WAT     H171534   9.436   5.820   9.796
23764WAT     H271535   9.472   5.882   9.942
23765WAT      O71536   5.224   9.522   3.204
23765WAT     H171537   5.317   9.485   3.203
23765WAT     H271538   5.221   9.608   3.153
23766WAT      O71539   2.203   8.056   5.526
23766WAT     H171540   2.175   8.027   5.618
23766WAT     H271541   2.263   7.987   5.486
23767WAT      O71542   1.335   6.124   2.844
23767WAT     H171543   1.433   6.138   2.858
23767WAT     H271544   1.284   6.165   2.920
23768WAT      O71545   1.417   5.962   0.852
23768WAT     H171546   1.341   5.919   0.803
23768WAT     H271547   1.488   5.895   0.871
23769WAT      O71548   0.345   6.201   0.052
23769WAT     H171549   0.372   6.111   0.017
23769WAT     H271550   0.261   6.230   0.006
23770WAT      O71551   6.150   4.225   7.516
23770WAT     H171552   6.053   4.234   7.495
23770WAT     H271553   6.179   4.130   7.502
23771WAT      O71554   5.500   4.628   7.566
23771WAT     H171555   5.557   4.546   7.563
23771WAT     H271556   5.474   4.654   7.473
23772WAT      O71557   0.152   5.239   7.121
23772WAT     H171558   0.126   5.303   7.193
23772WAT     H271559   0.208   5.286   7.053
23773WAT      O71560   8.142   4.077   2.161
23773WAT     H171561   8.113   3.984   2.183
23773WAT     H271562   8.063   4.137   2.162
23774WAT      O71563   8.542   2.436   7.636
23774WAT     H171564   8.487   2.429   7.553
23774WAT     H271565   8.560   2.344   7.671
23775WAT      O71566   5.535   0.316   9.684
23775WAT     H171567   5.514   0.396   9.741
23775WAT     H271568   5.628   0.286   9.703
23776WAT      O71569   6.959   4.974   7.250
23776WAT     H171570   6.882   4.980   7.187
23776WAT     H271571   6.994   5.066   7.270
23777WAT      O71572   7.935   7.940   4.679
23777WAT     H171573   7.916   7.968   4.585
23777WAT     H271574   7.985   7.853   4.678
23778WAT      O71575   1.295   2.638   1.361
23778WAT     H171576   1.259   2.587   1.284
23778WAT     H271577   1.384   2.600   1.388
23779WAT      O71578   4.380   4.436   5.533
23779WAT     H171579   4.308   4.378   5.572
23779WAT     H271580   4.405   4.507   5.600
23780WAT      O71581   0.018   0.692   7.362
23780WAT     H171582   0.022   0.788   7.336
23780WAT     H271583  -0.012   0.638   7.282
23781WAT      O71584   4.823   3.283   0.992
23781WAT     H171585   4.866   3.352   0.934
23781WAT     H271586   4.868   3.195   0.978
23782WAT      O71587   9.399   4.245   2.078
23782WAT     H171588   9.369   4.154   2.106
23782WAT     H271589   9.498   4.243   2.059
23783WAT      O71590   0.945   9.455   8.872
23783WAT     H171591   0.880   9.460   8.947
23783WAT     H271592   0.986   9.364   8.869
23784WAT      O71593   8.029   1.797   7.278
23784WAT     H171594   8.112   1.779   7.226
23784WAT     H271595   7.965   1.721   7.268
23785WAT      O71596   8.707   9.699   6.444
23785WAT     H171597   8.761   9.733   6.521
23785WAT     H271598   8.729   9.753   6.362
23786WAT      O71599   0.957   6.340   1.869
23786WAT     H171600   0.870   6.370   1.830
23786WAT     H271601   0.973   6.244   1.845
23787WAT      O71602   8.652   7.773   8.887
23787WAT     H171603   8.615   7.856   8.929
23787WAT     H271604   8.668   7.789   8.790
23788WAT      O71605   8.842   8.953   7.418
23788WAT     H171606   8.925   8.939   7.472
23788WAT     H271607   8.761   8.938   7.474
23789WAT      O71608   8.844   1.102   4.485
23789WAT     H171609   8.801   1.028   4.536
23789WAT     H271610   8.806   1.107   4.393
23790WAT      O71611   0.240   2.204   1.830
23790WAT     H171612   0.244   2.301   1.806
23790WAT     H271613   0.153   2.166   1.799
23791WAT      O71614   2.663   0.850   2.258
23791WAT     H171615   2.680   0.947   2.240
23791WAT     H271616   2.733   0.795   2.213
23792WAT      O71617   5.658   3.671   4.621
23792WAT     H171618   5.735   3.707   4.569
23792WAT     H271619   5.575   3.721   4.595
23793WAT      O71620   7.987   2.418   8.775
23793WAT     H171621   8.065   2.423   8.838
23793WAT     H271622   7.923   2.348   8.807
23794WAT      O71623   1.701   9.520   3.393
23794WAT     H171624   1.755   9.602   3.417
23794WAT     H271625   1.745   9.440   3.433
23795WAT      O71626   5.247   5.285   6.367
23795WAT     H171627   5.172   5.331   6.319
23795WAT     H271628   5.291   5.350   6.429
23796WAT      O71629   8.254   6.354   8.149
23796WAT     H171630   8.323   6.426   8.143
23796WAT     H271631   8.293   6.273   8.192
23797WAT      O71632   2.793   6.680   9.301
23797WAT     H171633   2.743   6.762   9.326
23797WAT     H271634   2.891   6.701   9.293
23798WAT      O71635   6.241   0.902   6.163
23798WAT     H171636   6.216   0.860   6.250
23798WAT     H271637   6.340   0.905   6.154
23799WAT      O71638   1.335   5.768   4.849
23799WAT     H171639   1.315   5.747   4.753
23799WAT     H271640   1.299   5.694   4.906
23800WAT      O71641   5.960   4.216   7.157
23800WAT     H171642   5.932   4.143   7.219
23800WAT     H271643   5.939   4.191   7.063
23801WAT      O71644   7.124   0.204   9.375
23801WAT     H171645   7.117   0.195   9.475
23801WAT     H271646   7.069   0.133   9.331
23802WAT      O71647   7.075   9.103   6.451
23802WAT     H171648   7.062   9.150   6.364
23802WAT     H271649   7.120   9.164   6.517
23803WAT      O71650   8.593   9.522   5.108
23803WAT     H171651   8.607   9.453   5.037
23803WAT     H271652   8.540   9.482   5.183
23804WAT      O71653   7.398   8.370   3.709
23804WAT     H171654   7.497   8.357   3.717
23804WAT     H271655   7.368   8.349   3.616
23805WAT      O71656   3.505   8.701   8.598
23805WAT     H171657   3.437   8.687   8.670
23805WAT     H271658   3.499   8.626   8.531
23806WAT      O71659   8.631   4.500   4.259
23806WAT     H171660   8.569   4.556   4.313
23806WAT     H271661   8.696   4.455   4.320
23807WAT      O71662   9.620   9.239   9.227
23807WAT     H171663   9.621   9.255   9.128
23807WAT     H271664   9.525   9.227   9.257
23808WAT      O71665   8.429   3.464   9.670
23808WAT     H171666   8.371   3.523   9.614
23808WAT     H271667   8.441   3.376   9.625
23809WAT      O71668   4.989   3.531   9.839
23809WAT     H171669   5.000   3.624   9.803
23809WAT     H271670   5.032   3.525   9.929
23810WAT      O71671   2.503   8.440   5.795
23810WAT     H171672   2.445   8.397   5.726
23810WAT     H271673   2.556   8.369   5.842
23811WAT      O71674   6.301   9.531   2.031
23811WAT     H171675   6.318   9.435   2.053
23811WAT     H271676   6.204   9.552   2.046
23812WAT      O71677   9.887   2.958   7.955
23812WAT     H171678   9.910   3.050   7.989
23812WAT     H271679   9.876   2.896   8.032
23813WAT      O71680   9.558   8.875   6.335
23813WAT     H171681   9.479   8.843   6.283
23813WAT     H271682   9.580   8.969   6.309
23814WAT      O71683   2.066   6.174   8.795
23814WAT     H171684   1.969   6.198   8.800
23814WAT     H271685   2.121   6.256   8.812
23815WAT      O71686   2.466   7.515   8.977
23815WAT     H171687   2.534   7.468   8.921
23815WAT     H271688   2.391   7.452   8.997
23816WAT      O71689   2.023   5.689   7.890
23816WAT     H171690   1.999   5.761   7.825
23816WAT     H271691   2.090   5.724   7.955
23817WAT      O71692   0.230   3.991   9.297
23817WAT     H171693   0.261   3.994   9.392
23817WAT     H271694   0.263   4.073   9.249
23818WAT      O71695   8.898   6.294   5.929
23818WAT     H171696   8.837   6.373   5.932
23818WAT     H271697   8.845   6.210   5.939
23819WAT      O71698   2.854   3.036   3.900
23819WAT     H171699   2.888   2.989   3.819
23819WAT     H271700   2.925   3.096   3.936
23820WAT      O71701   1.766   2.412   4.480
23820WAT     H171702   1.707   2.411   4.400
23820WAT     H271703   1.854   2.371   4.458
23821WAT      O71704   0.983   5.272   7.357
23821WAT     H171705   1.005   5.175   7.344
23821WAT     H271706   1.048   5.327   7.305
23822WAT      O71707   3.067   4.117   8.391
23822WAT     H171708   3.049   4.023   8.364
23822WAT     H271709   2.995   4.177   8.356
23823WAT      O71710   2.100   4.467   5.262
23823WAT     H171711   2.120   4.382   5.215
23823WAT     H271712   2.145   4.543   5.215
23824WAT      O71713   6.328   8.684   1.016
23824WAT     H171714   6.348   8.634   0.931
23824WAT     H271715   6.271   8.628   1.075
23825WAT      O71716   4.876   2.035   2.456
23825WAT     H171717   4.900   1.980   2.537
23825WAT     H271718   4.905   2.130   2.471
23826WAT      O71719   2.711   9.722   2.880
23826WAT     H171720   2.710   9.821   2.871
23826WAT     H271721   2.805   9.690   2.887
23827WAT      O71722   4.868   2.755   4.222
23827WAT     H171723   4.859   2.831   4.287
23827WAT     H271724   4.958   2.714   4.233
23828WAT      O71725   5.294   2.407   7.759
23828WAT     H171726   5.331   2.373   7.673
23828WAT     H271727   5.329   2.498   7.778
23829WAT      O71728   0.155   4.107   6.109
23829WAT     H171729   0.157   4.180   6.176
23829WAT     H271730   0.248   4.086   6.078
23830WAT      O71731   6.315   5.934   4.441
23830WAT     H171732   6.293   6.030   4.425
23830WAT     H271733   6.413   5.925   4.458
23831WAT      O71734   2.828   4.144   5.159
23831WAT     H171735   2.907   4.204   5.171
23831WAT     H271736   2.842   4.060   5.210
23832WAT      O71737   8.352   7.674   9.695
23832WAT     H171738   8.360   7.606   9.768
23832WAT     H271739   8.417   7.652   9.622
23833WAT      O71740   4.139   8.302   0.209
23833WAT     H171741   4.179   8.223   0.163
23833WAT     H271742   4.048   8.321   0.172
23834WAT      O71743   3.527   8.698   7.747
23834WAT     H171744   3.540   8.599   7.748
23834WAT     H271745   3.613   8.743   7.772
23835WAT      O71746   6.133   2.966   1.436
23835WAT     H171747   6.073   2.984   1.358
23835WAT     H271748   6.078   2.934   1.513
23836WAT      O71749   3.012   2.083   1.906
23836WAT     H171750   3.004   2.121   1.814
23836WAT     H271751   3.027   1.984   1.900
23837WAT      O71752   6.199   9.646   7.694
23837WAT     H171753   6.118   9.589   7.702
23837WAT     H271754   6.262   9.624   7.769
23838WAT      O71755   9.510   3.207   5.822
23838WAT     H171756   9.437   3.178   5.761
23838WAT     H271757   9.489   3.298   5.857
23839WAT      O71758   1.212   6.244   8.449
23839WAT     H171759   1.217   6.239   8.350
23839WAT     H271760   1.230   6.338   8.479
23840WAT      O71761   9.018   3.718   2.735
23840WAT     H171762   9.000   3.654   2.809
23840WAT     H271763   9.090   3.783   2.762
23841WAT      O71764   0.125   9.771   2.476
23841WAT     H171765   0.216   9.786   2.437
23841WAT     H271766   0.056   9.814   2.417
23842WAT      O71767   9.035   1.983   9.304
23842WAT     H171768   9.054   2.053   9.372
23842WAT     H271769   9.119   1.933   9.283
23843WAT      O71770   9.321   4.389   1.098
23843WAT     H171771   9.251   4.451   1.133
23843WAT     H271772   9.282   4.298   1.083
23844WAT      O71773   8.881   1.834   9.486
23844WAT     H171774   8.894   1.853   9.584
23844WAT     H271775   8.934   1.900   9.433
23845WAT      O71776   5.567   6.376   9.290
23845WAT     H171777   5.529   6.393   9.198
23845WAT     H271778   5.642   6.440   9.306
23846WAT      O71779   4.571   0.354   6.001
23846WAT     H171780   4.477   0.379   5.979
23846WAT     H271781   4.623   0.436   6.024
23847WAT      O71782   8.620   7.647   2.911
23847WAT     H171783   8.614   7.734   2.962
23847WAT     H271784   8.716   7.626   2.892
23848WAT      O71785   8.829   1.997   7.685
23848WAT     H171786   8.820   2.010   7.586
23848WAT     H271787   8.804   1.903   7.709
23849WAT      O71788   3.975   2.515   0.201
23849WAT     H171789   4.036   2.592   0.187
23849WAT     H271790   3.905   2.514   0.130
23850WAT      O71791   4.504   0.596   9.719
23850WAT     H171792   4.571   0.579   9.791
23850WAT     H271793   4.450   0.513   9.705
23851WAT      O71794   4.776   8.447   7.510
23851WAT     H171795   4.875   8.440   7.505
23851WAT     H271796   4.745   8.415   7.600
23852WAT      O71797   7.331   2.904   9.553
23852WAT     H171798   7.282   2.817   9.546
23852WAT     H271799   7.302   2.965   9.480
23853WAT      O71800   5.943   7.155   1.162
23853WAT     H171801   5.881   7.109   1.098
23853WAT     H271802   6.009   7.209   1.111
23854WAT      O71803   0.036   4.437   0.379
23854WAT     H171804  -0.052   4.388   0.379
23854WAT     H271805   0.036   4.503   0.454
23855WAT      O71806   2.828   4.190   7.554
23855WAT     H171807   2.831   4.281   7.511
23855WAT     H271808   2.801   4.122   7.485
23856WAT      O71809   6.829   0.929   7.643
23856WAT     H171810   6.838   0.977   7.555
23856WAT     H271811   6.743   0.878   7.645
23857WAT      O71812   9.389   5.169   4.606
23857WAT     H171813   9.442   5.130   4.530
23857WAT     H271814   9.357   5.095   4.666
23858WAT      O71815   4.004   2.827   6.027
23858WAT     H171816   3.938   2.760   5.991
23858WAT     H271817   4.003   2.909   5.968
23859WAT      O71818   5.729   3.451   0.067
23859WAT     H171819   5.737   3.494  -0.023
23859WAT     H271820   5.786   3.501   0.133
23860WAT      O71821   8.719   7.687   5.961
23860WAT     H171822   8.728   7.690   6.061
23860WAT     H271823   8.806   7.660   5.921
23861WAT      O71824   2.416   5.944   1.173
23861WAT     H171825   2.395   6.006   1.248
23861WAT     H271826   2.442   5.855   1.210
23862WAT      O71827   7.162   3.179   6.004
23862WAT     H171828   7.064   3.160   6.008
23862WAT     H271829   7.194   3.171   5.910
23863WAT      O71830   3.287   5.462   1.483
23863WAT     H171831   3.336   5.501   1.561
23863WAT     H271832   3.213   5.523   1.456
23864WAT      O71833   6.712   9.784   5.547
23864WAT     H171834   6.737   9.749   5.457
23864WAT     H271835   6.708   9.884   5.543
23865WAT      O71836   3.608   8.037   8.396
23865WAT     H171837   3.660   7.954   8.377
23865WAT     H271838   3.672   8.113   8.409
23866WAT      O71839   3.133   7.235   4.237
23866WAT     H171840   3.139   7.318   4.293
23866WAT     H271841   3.216   7.227   4.181
23867WAT      O71842   8.267   7.440   6.111
23867WAT     H171843   8.183   7.450   6.059
23867WAT     H271844   8.325   7.370   6.069
23868WAT      O71845   4.248   6.001   8.214
23868WAT     H171846   4.340   5.965   8.197
23868WAT     H271847   4.216   5.967   8.303
23869WAT      O71848   4.840   6.188   8.660
23869WAT     H171849   4.886   6.125   8.723
23869WAT     H271850   4.904   6.217   8.588
23870WAT      O71851   0.170   8.760   1.695
23870WAT     H171852   0.128   8.704   1.624
23870WAT     H271853   0.202   8.846   1.656
23871WAT      O71854   3.719   0.476   4.854
23871WAT     H171855   3.797   0.491   4.794
23871WAT     H271856   3.644   0.537   4.828
23872WAT      O71857   3.246   8.330   0.975
23872WAT     H171858   3.203   8.280   0.901
23872WAT     H271859   3.286   8.415   0.940
23873WAT      O71860   0.921   5.154   6.201
23873WAT     H171861   1.018   5.159   6.224
23873WAT     H271862   0.876   5.238   6.230
23874WAT      O71863   9.468   9.028   7.193
23874WAT     H171864   9.426   9.116   7.215
23874WAT     H271865   9.397   8.963   7.165
23875WAT      O71866   1.671   6.408   8.455
23875WAT     H171867   1.740   6.480   8.442
23875WAT     H271868   1.583   6.440   8.419
23876WAT      O71869   5.704   5.578   8.574
23876WAT     H171870   5.672   5.658   8.625
23876WAT     H271871   5.767   5.526   8.632
23877WAT      O71872   0.868   6.543   8.795
23877WAT     H171873   0.809   6.560   8.716
23877WAT     H271874   0.842   6.456   8.837
23878WAT      O71875   6.002   1.890   4.029
23878WAT     H171876   5.970   1.796   4.042
23878WAT     H271877   5.953   1.950   4.092
23879WAT      O71878   5.874   4.951   4.096
23879WAT     H171879   5.900   4.971   4.002
23879WAT     H271880   5.774   4.940   4.102
23880WAT      O71881   0.471   9.764   5.165
23880WAT     H171882   0.518   9.681   5.135
23880WAT     H271883   0.487   9.777   5.263
23881WAT      O71884   5.913   8.099   7.134
23881WAT     H171885   5.959   8.102   7.223
23881WAT     H271886   5.907   8.005   7.102
23882WAT      O71887   5.130   3.365   8.454
23882WAT     H171888   5.160   3.427   8.527
23882WAT     H271889   5.041   3.394   8.419
23883WAT      O71890   5.742   6.139   2.997
23883WAT     H171891   5.735   6.237   2.983
23883WAT     H271892   5.666   6.107   3.053
23884WAT      O71893   8.336   5.058   3.448
23884WAT     H171894   8.326   5.132   3.381
23884WAT     H271895   8.416   5.003   3.426
23885WAT      O71896   9.680   5.514   4.905
23885WAT     H171897   9.769   5.517   4.860
23885WAT     H271898   9.622   5.447   4.860
23886WAT      O71899   1.422   8.209   4.228
23886WAT     H171900   1.349   8.174   4.169
23886WAT     H271901   1.406   8.178   4.322
23887WAT      O71902   9.160   5.803   6.623
23887WAT     H171903   9.160   5.902   6.612
23887WAT     H271904   9.229   5.762   6.563
23888WAT      O71905   7.485   3.139   9.846
23888WAT     H171906   7.553   3.089   9.792
23888WAT     H271907   7.512   3.139   9.942
23889WAT      O71908   1.761   2.160   8.558
23889WAT     H171909   1.854   2.168   8.594
23889WAT     H271910   1.749   2.069   8.517
23890WAT      O71911   1.948   8.027   8.511
23890WAT     H171912   2.037   8.070   8.502
23890WAT     H271913   1.913   8.043   8.604
23891WAT      O71914   5.124   8.362   1.942
23891WAT     H171915   5.068   8.410   2.010
23891WAT     H271916   5.142   8.269   1.974
23892WAT      O71917   3.650   0.892   2.582
23892WAT     H171918   3.724   0.925   2.641
23892WAT     H271919   3.590   0.968   2.558
23893WAT      O71920   0.697   7.171   8.888
23893WAT     H171921   0.775   7.191   8.830
23893WAT     H271922   0.616   7.155   8.831
23894WAT      O71923   2.469   8.605   0.688
23894WAT     H171924   2.498   8.616   0.783
23894WAT     H271925   2.536   8.648   0.627
23895WAT      O71926   9.160   4.528   9.228
23895WAT     H171927   9.082   4.467   9.242
23895WAT     H271928   9.166   4.553   9.131
23896WAT      O71929   4.339   0.083   5.401
23896WAT     H171930   4.315   0.091   5.498
23896WAT     H271931   4.430   0.122   5.386
23897WAT      O71932   2.695   6.973   0.740
23897WAT     H171933   2.614   6.917   0.762
23897WAT     H271934   2.665   7.064   0.714
23898WAT      O71935   0.327   2.380   1.048
23898WAT     H171936   0.344   2.469   1.089
23898WAT     H271937   0.243   2.383   0.995
23899WAT      O71938   4.200   7.922   8.895
23899WAT     H171939   4.252   7.986   8.951
23899WAT     H271940   4.260   7.884   8.823
23900WAT      O71941   8.524   7.485   2.317
23900WAT     H171942   8.623   7.492   2.307
23900WAT     H271943   8.479   7.536   2.244
23901WAT      O71944   5.011   8.412   8.714
23901WAT     H171945   4.980   8.319   8.693
23901WAT     H271946   4.995   8.432   8.811
23902WAT      O71947   9.528   8.846   8.022
23902WAT     H171948   9.582   8.762   8.019
23902WAT     H271949   9.540   8.889   8.111
23903WAT      O71950   8.428   0.956   7.225
23903WAT     H171951   8.418   1.022   7.300
23903WAT     H271952   8.491   0.884   7.251
23904WAT      O71953   1.630   3.893   8.151
23904WAT     H171954   1.590   3.933   8.069
23904WAT     H271955   1.717   3.849   8.127
23905WAT      O71956   9.542   9.359   6.231
23905WAT     H171957   9.554   9.439   6.291
23905WAT     H271958   9.451   9.320   6.247
23906WAT      O71959   9.669   2.095   2.775
23906WAT     H171960   9.692   2.105   2.872
23906WAT     H271961   9.722   2.160   2.722
23907WAT      O71962   2.875   8.674   9.481
23907WAT     H171963   2.840   8.596   9.532
23907WAT     H271964   2.824   8.684   9.396
23908WAT      O71965   6.225   3.510   3.560
23908WAT     H171966   6.184   3.495   3.470
23908WAT     H271967   6.193   3.597   3.596
23909WAT      O71968   1.930   9.740   2.579
23909WAT     H171969   1.963   9.811   2.517
23909WAT     H271970   1.846   9.771   2.623
23910WAT      O71971   2.497   4.208   6.048
23910WAT     H171972   2.450   4.197   5.960
23910WAT     H271973   2.595   4.219   6.033
23911WAT      O71974   0.156   3.746   9.141
23911WAT     H171975   0.076   3.767   9.085
23911WAT     H271976   0.203   3.831   9.165
23912WAT      O71977   8.559   7.905   7.839
23912WAT     H171978   8.635   7.847   7.868
23912WAT     H271979   8.489   7.907   7.910
23913WAT      O71980   5.256   7.181   0.899
23913WAT     H171981   5.257   7.191   0.800
23913WAT     H271982   5.342   7.217   0.937
23914WAT      O71983   5.864   7.100   9.636
23914WAT     H171984   5.931   7.050   9.691
23914WAT     H271985   5.782   7.043   9.625
23915WAT      O71986   3.838   1.903   8.012
23915WAT     H171987   3.779   1.983   8.001
23915WAT     H271988   3.884   1.883   7.925
23916WAT      O71989   8.046   0.125   8.102
23916WAT     H171990   8.066   0.110   8.005
23916WAT     H271991   8.017   0.220   8.116
23917WAT      O71992   2.056   6.066   9.088
23917WAT     H171993   2.040   6.139   9.155
23917WAT     H271994   2.034   6.100   8.996
23918WAT      O71995   7.897   3.381   2.041
23918WAT     H171996   7.985   3.365   2.085
23918WAT     H271997   7.878   3.480   2.041
23919WAT      O71998   1.096   3.900   3.937
23919WAT     H171999   1.114   3.987   3.890
23919WAT     H272000   1.142   3.900   4.025
23920WAT      O72001   6.712   9.253   2.859
23920WAT     H172002   6.723   9.153   2.857
23920WAT     H272003   6.784   9.295   2.804
23921WAT      O72004   6.085   3.979   8.461
23921WAT     H172005   6.049   4.023   8.379
23921WAT     H272006   6.042   3.890   8.474
23922WAT      O72007   2.049   0.241   6.855
23922WAT     H172008   1.985   0.166   6.867
23922WAT     H272009   2.142   0.209   6.876
23923WAT      O72010   6.490   7.508   4.563
23923WAT     H172011   6.480   7.457   4.478
23923WAT     H272012   6.465   7.603   4.548
23924WAT      O72013   9.492   3.377   7.294
23924WAT     H172014   9.538   3.333   7.217
23924WAT     H272015   9.513   3.474   7.294
23925WAT      O72016   3.434   2.088   8.028
23925WAT     H172017   3.335   2.086   8.039
23925WAT     H272018   3.461   2.176   7.988
23926WAT      O72019   5.629   6.194   0.120
23926WAT     H172020   5.591   6.117   0.070
23926WAT     H272021   5.726   6.179   0.138
23927WAT      O72022   7.693   6.450   7.802
23927WAT     H172023   7.779   6.467   7.754
23927WAT     H272024   7.711   6.398   7.885
23928WAT      O72025   6.965   2.925   6.511
23928WAT     H172026   6.926   2.909   6.420
23928WAT     H272027   7.037   2.858   6.528
23929WAT      O72028   1.269   0.102   5.758
23929WAT     H172029   1.306   0.103   5.665
23929WAT     H272030   1.335   0.062   5.820
23930WAT      O72031   3.948   0.050   9.640
23930WAT     H172032   3.950   0.130   9.581
23930WAT     H272033   3.939   0.079   9.735
23931WAT      O72034   7.810   7.166   1.985
23931WAT     H172035   7.745   7.117   2.043
23931WAT     H272036   7.858   7.102   1.926
23932WAT      O72037   4.039   6.629   4.235
23932WAT     H172038   3.973   6.554   4.228
23932WAT     H272039   3.997   6.713   4.202
23933WAT      O72040   3.146   0.295   3.997
23933WAT     H172041   3.189   0.365   3.940
23933WAT     H272042   3.127   0.333   4.087
23934WAT      O72043   5.964   1.326   9.129
23934WAT     H172044   5.971   1.410   9.075
23934WAT     H272045   5.973   1.247   9.068
23935WAT      O72046   2.769   0.134   5.845
23935WAT     H172047   2.765   0.035   5.835
23935WAT     H272048   2.678   0.173   5.829
23936WAT      O72049   4.147   9.442   3.682
23936WAT     H172050   4.050   9.450   3.706
23936WAT     H272051   4.180   9.350   3.703
23937WAT      O72052   2.754   5.295   0.590
23937WAT     H172053   2.714   5.275   0.501
23937WAT     H272054   2.818   5.372   0.582
23938WAT      O72055   3.260   2.575   5.323
23938WAT     H172056   3.216   2.598   5.236
23938WAT     H272057   3.295   2.482   5.319
23939WAT      O72058   8.919   5.525   6.752
23939WAT     H172059   8.842   5.465   6.777
23939WAT     H272060   8.894   5.620   6.771
23940WAT      O72061   9.784   7.534   1.540
23940WAT     H172062   9.868   7.581   1.514
23940WAT     H272063   9.705   7.588   1.511
23941WAT      O72064   4.721   2.890   6.800
23941WAT     H172065   4.685   2.866   6.890
23941WAT     H272066   4.796   2.956   6.811
23942WAT      O72067   5.035   3.937   7.433
23942WAT     H172068   4.993   3.997   7.502
23942WAT     H272069   5.003   3.843   7.447
23943WAT      O72070   6.576   7.310   0.027
23943WAT     H172071   6.629   7.288  -0.056
23943WAT     H272072   6.586   7.407   0.047
23944WAT      O72073   9.338   2.985   3.437
23944WAT     H172074   9.360   2.919   3.365
23944WAT     H272075   9.254   3.034   3.412
23945WAT      O72076   9.279   2.597   3.069
23945WAT     H172077   9.274   2.536   2.990
23945WAT     H272078   9.201   2.660   3.068
23946WAT      O72079   4.359   4.034   1.233
23946WAT     H172080   4.425   4.028   1.158
23946WAT     H272081   4.277   4.083   1.201
23947WAT      O72082   7.167   8.430   9.695
23947WAT     H172083   7.093   8.383   9.743
23947WAT     H272084   7.220   8.364   9.643
23948WAT      O72085   9.728   0.797   7.755
23948WAT     H172086   9.753   0.707   7.719
23948WAT     H272087   9.788   0.821   7.831
23949WAT      O72088   3.412   2.567   2.330
23949WAT     H172089   3.425   2.611   2.241
23949WAT     H272090   3.325   2.595   2.369
23950WAT      O72091   3.649   4.691   5.964
23950WAT     H172092   3.738   4.680   6.009
23950WAT     H272093   3.659   4.751   5.885
23951WAT      O72094   9.438   2.884   2.449
23951WAT     H172095   9.370   2.909   2.518
23951WAT     H272096   9.465   2.966   2.398
23952WAT      O72097   8.786   8.815   1.350
23952WAT     H172098   8.818   8.791   1.442
23952WAT     H272099   8.773   8.731   1.296
23953WAT      O72100   2.616   4.259   5.054
23953WAT     H172101   2.622   4.352   5.017
23953WAT     H272102   2.706   4.233   5.091
23954WAT      O72103   6.328   6.913   7.302
23954WAT     H172104   6.348   6.957   7.215
23954WAT     H272105   6.260   6.966   7.352
23955WAT      O72106   1.275   0.042   3.020
23955WAT     H172107   1.311   0.123   3.065
23955WAT     H272108   1.350  -0.022   3.000
23956WAT      O72109   9.191   0.689   5.958
23956WAT     H172110   9.272   0.708   5.903
23956WAT     H272111   9.114   0.670   5.897
23957WAT      O72112   8.838   5.649   9.672
23957WAT     H172113   8.818   5.551   9.680
23957WAT     H272114   8.752   5.700   9.666
23958WAT      O72115   0.707   1.301   6.271
23958WAT     H172116   0.647   1.243   6.216
23958WAT     H272117   0.777   1.341   6.213
23959WAT      O72118   9.551   5.544   2.577
23959WAT     H172119   9.486   5.557   2.652
23959WAT     H272120   9.525   5.601   2.500
23960WAT      O72121   9.618   1.330   5.701
23960WAT     H172122   9.683   1.332   5.625
23960WAT     H272123   9.583   1.422   5.718
23961WAT      O72124   7.348   7.971   8.827
23961WAT     H172125   7.305   7.886   8.858
23961WAT     H272126   7.294   8.012   8.754
23962WAT      O72127   5.063   5.708   4.531
23962WAT     H172128   5.034   5.704   4.436
23962WAT     H272129   5.055   5.801   4.565
23963WAT      O72130   0.084   4.393   9.562
23963WAT     H172131   0.083   4.377   9.463
23963WAT     H272132  -0.010   4.409   9.594
23964WAT      O72133   9.230   3.926   9.082
23964WAT     H172134   9.218   3.871   9.164
23964WAT     H272135   9.166   3.895   9.011
23965WAT      O72136   1.637   6.991   2.703
23965WAT     H172137   1.544   7.021   2.723
23965WAT     H272138   1.638   6.940   2.616
23966WAT      O72139   8.463   6.254   5.198
23966WAT     H172140   8.367   6.243   5.224
23966WAT     H272141   8.519   6.191   5.252
23967WAT      O72142   5.993   7.332   0.076
23967WAT     H172143   5.906   7.284   0.084
23967WAT     H272144   6.060   7.273   0.030
23968WAT      O72145   2.437   0.784   0.225
23968WAT     H172146   2.450   0.738   0.313
23968WAT     H272147   2.385   0.724   0.163
23969WAT      O72148   4.865   5.561   1.706
23969WAT     H172149   4.909   5.547   1.617
23969WAT     H272150   4.879   5.656   1.735
23970WAT      O72151   2.827   8.616   0.356
23970WAT     H172152   2.787   8.594   0.267
23970WAT     H272153   2.925   8.632   0.346
23971WAT      O72154   5.124   9.320   9.681
23971WAT     H172155   5.158   9.231   9.649
23971WAT     H272156   5.160   9.338   9.773
23972WAT      O72157   6.621   5.991   3.410
23972WAT     H172158   6.524   5.967   3.405
23972WAT     H272159   6.638   6.071   3.353
23973WAT      O72160   0.006   7.874   6.203
23973WAT     H172161   0.029   7.799   6.140
23973WAT     H272162   0.053   7.859   6.290
23974WAT      O72163   5.687   8.978   3.481
23974WAT     H172164   5.632   8.991   3.564
23974WAT     H272165   5.706   8.880   3.469
23975WAT      O72166   5.264   5.319   1.452
23975WAT     H172167   5.208   5.239   1.432
23975WAT     H272168   5.296   5.359   1.366
23976WAT      O72169   4.563   2.007   2.042
23976WAT     H172170   4.555   1.913   2.075
23976WAT     H272171   4.524   2.069   2.110
23977WAT      O72172   3.125   5.278   4.368
23977WAT     H172173   3.221   5.306   4.374
23977WAT     H272174   3.066   5.357   4.382
23978WAT      O72175   1.702   1.986   3.248
23978WAT     H172176   1.781   2.021   3.197
23978WAT     H272177   1.698   1.886   3.238
23979WAT      O72178   8.276   5.898   4.171
23979WAT     H172179   8.297   5.800   4.166
23979WAT     H272180   8.183   5.914   4.138
23980WAT      O72181   6.467   3.761   6.248
23980WAT     H172182   6.467   3.679   6.191
23980WAT     H272183   6.559   3.800   6.249
23981WAT      O72184   3.868   2.478   2.948
23981WAT     H172185   3.911   2.526   3.025
23981WAT     H272186   3.882   2.530   2.864
23982WAT      O72187   9.718   4.154   8.176
23982WAT     H172188   9.808   4.182   8.210
23982WAT     H272189   9.650   4.168   8.247
23983WAT      O72190   0.666   2.272   3.729
23983WAT     H172191   0.602   2.344   3.702
23983WAT     H272192   0.616   2.189   3.753
23984WAT      O72193   7.365   7.388   7.922
23984WAT     H172194   7.445   7.364   7.977
23984WAT     H272195   7.357   7.488   7.916
23985WAT      O72196   2.677   6.421   8.088
23985WAT     H172197   2.701   6.428   8.185
23985WAT     H272198   2.745   6.363   8.042
23986WAT      O72199   8.571   6.156   6.314
23986WAT     H172200   8.490   6.180   6.367
23986WAT     H272201   8.600   6.063   6.335
23987WAT      O72202   7.763   7.954   9.829
23987WAT     H172203   7.749   7.944   9.928
23987WAT     H272204   7.837   8.018   9.812
23988WAT      O72205   4.141   2.447   4.320
23988WAT     H172206   4.229   2.409   4.292
23988WAT     H272207   4.116   2.412   4.410
23989WAT      O72208   0.324   2.520   1.754
23989WAT     H172209   0.267   2.522   1.836
23989WAT     H272210   0.420   2.509   1.781
23990WAT      O72211   1.967   7.513   5.226
23990WAT     H172212   1.871   7.502   5.201
23990WAT     H272213   2.025   7.481   5.151
23991WAT      O72214   4.309   3.741   9.626
23991WAT     H172215   4.218   3.782   9.631
23991WAT     H272216   4.302   3.649   9.589
23992WAT      O72217   5.940   7.949   3.883
23992WAT     H172218   5.892   7.971   3.798
23992WAT     H272219   5.908   8.009   3.957
23993WAT      O72220   3.203   5.072   3.763
23993WAT     H172221   3.199   5.108   3.669
23993WAT     H272222   3.217   5.148   3.827
23994WAT      O72223   8.749   5.078   1.052
23994WAT     H172224   8.838   5.109   1.086
23994WAT     H272225   8.762   5.021   0.971
23995WAT      O72226   5.466   1.546   3.210
23995WAT     H172227   5.405   1.590   3.276
23995WAT     H272228   5.424   1.550   3.119
23996WAT      O72229   5.477   0.284   1.324
23996WAT     H172230   5.546   0.250   1.260
23996WAT     H272231   5.434   0.206   1.370
23997WAT      O72232   0.304   0.543   7.196
23997WAT     H172233   0.337   0.630   7.160
23997WAT     H272234   0.358   0.517   7.277
23998WAT      O72235   0.947   2.218   7.034
23998WAT     H172236   1.039   2.214   6.995
23998WAT     H272237   0.933   2.306   7.079
23999WAT      O72238   6.490   4.259   7.360
23999WAT     H172239   6.466   4.170   7.319
23999WAT     H272240   6.489   4.251   7.459
24000WAT      O72241   2.210   7.196   5.751
24000WAT     H172242   2.229   7.231   5.660
24000WAT     H272243   2.294   7.160   5.792
24001WAT      O72244   1.517   5.600   7.553
24001WAT     H172245   1.546   5.504   7.555
24001WAT     H272246   1.529   5.641   7.643
24002WAT      O72247   0.338   5.309   6.928
24002WAT     H172248   0.290   5.387   6.887
24002WAT     H272249   0.347   5.236   6.860
24003WAT      O72250   0.090   3.099   2.570
24003WAT     H172251   0.134   3.188   2.581
24003WAT     H272252   0.075   3.081   2.473
24004WAT      O72253   1.889   7.292   3.238
24004WAT     H172254   1.948   7.217   3.207
24004WAT     H272255   1.941   7.354   3.296
24005WAT      O72256   4.564   3.034   4.257
24005WAT     H172257   4.611   3.075   4.335
24005WAT     H272258   4.542   3.106   4.191
24006WAT      O72259   4.200   9.812   9.641
24006WAT     H172260   4.108   9.851   9.637
24006WAT     H272261   4.260   9.862   9.578
24007WAT      O72262   5.572   4.795   4.541
24007WAT     H172263   5.655   4.850   4.546
24007WAT     H272264   5.536   4.796   4.448
24008WAT      O72265   3.137   2.503   2.182
24008WAT     H172266   3.229   2.515   2.144
24008WAT     H272267   3.140   2.433   2.253
24009WAT      O72268   2.056   1.253   7.233
24009WAT     H172269   1.965   1.211   7.231
24009WAT     H272270   2.119   1.194   7.283
24010WAT      O72271   8.542   5.859   3.490
24010WAT     H172272   8.512   5.834   3.582
24010WAT     H272273   8.631   5.905   3.496
24011WAT      O72274   2.683   2.973   1.526
24011WAT     H172275   2.644   2.919   1.601
24011WAT     H272276   2.652   2.936   1.439
24012WAT      O72277   8.237   4.156   9.548
24012WAT     H172278   8.282   4.149   9.637
24012WAT     H272279   8.208   4.250   9.532
24013WAT      O72280   2.807   7.644   9.023
24013WAT     H172281   2.731   7.709   9.026
24013WAT     H272282   2.843   7.631   9.115
24014WAT      O72283   7.529   3.520   1.499
24014WAT     H172284   7.541   3.589   1.427
24014WAT     H272285   7.598   3.448   1.488
24015WAT      O72286   4.017   1.297   6.107
24015WAT     H172287   3.940   1.256   6.158
24015WAT     H272288   4.078   1.224   6.076
24016WAT      O72289   1.477   9.237   8.158
24016WAT     H172290   1.560   9.182   8.159
24016WAT     H272291   1.464   9.278   8.068
24017WAT      O72292   1.128   4.560   4.654
24017WAT     H172293   1.158   4.480   4.602
24017WAT     H272294   1.031   4.551   4.675
24018WAT      O72295   3.043   1.799   2.714
24018WAT     H172296   3.124   1.818   2.658
24018WAT     H272297   2.977   1.745   2.661
24019WAT      O72298   4.572   6.055   5.003
24019WAT     H172299   4.650   6.064   5.065
24019WAT     H272300   4.487   6.059   5.057
24020WAT      O72301   8.962   3.606   8.767
24020WAT     H172302   8.912   3.634   8.685
24020WAT     H272303   8.897   3.580   8.838
24021WAT      O72304   5.543   2.551   4.174
24021WAT     H172305   5.611   2.555   4.247
24021WAT     H272306   5.514   2.456   4.161
24022WAT      O72307   6.395   0.844   2.857
24022WAT     H172308   6.344   0.796   2.785
24022WAT     H272309   6.330   0.894   2.915
24023WAT      O72310   3.138   3.365   3.260
24023WAT     H172311   3.174   3.375   3.353
24023WAT     H272312   3.135   3.454   3.215
24024WAT      O72313   5.012   3.344   0.283
24024WAT     H172314   5.076   3.267   0.277
24024WAT     H272315   5.059   3.429   0.262
24025WAT      O72316   5.658   0.131   5.156
24025WAT     H172317   5.754   0.101   5.154
24025WAT     H272318   5.651   0.214   5.211
24026WAT      O72319   0.240   3.829   8.244
24026WAT     H172320   0.329   3.794   8.214
24026WAT     H272321   0.169   3.764   8.218
24027WAT      O72322   6.049   5.686   7.062
24027WAT     H172323   5.956   5.722   7.066
24027WAT     H272324   6.077   5.676   6.966
24028WAT      O72325   7.403   3.943   7.591
24028WAT     H172326   7.403   4.042   7.572
24028WAT     H272327   7.366   3.894   7.512
24029WAT      O72328   8.159   9.303   0.417
24029WAT     H172329   8.074   9.253   0.429
24029WAT     H272330   8.210   9.264   0.341
24030WAT      O72331   1.787   8.073   1.164
24030WAT     H172332   1.712   8.019   1.202
24030WAT     H272333   1.827   8.129   1.237
24031WAT      O72334   9.069   2.424   0.825
24031WAT     H172335   9.051   2.452   0.919
24031WAT     H272336   9.166   2.434   0.805
24032WAT      O72337   8.619   4.846   8.479
24032WAT     H172338   8.661   4.812   8.563
24032WAT     H272339   8.677   4.916   8.439
24033WAT      O72340   7.226   8.979   1.810
24033WAT     H172341   7.271   8.918   1.876
24033WAT     H272342   7.292   9.046   1.777
24034WAT      O72343   3.547   7.676   7.300
24034WAT     H172344   3.489   7.755   7.276
24034WAT     H272345   3.540   7.607   7.228
24035WAT      O72346   5.763   6.058   9.214
24035WAT     H172347   5.828   5.982   9.207
24035WAT     H272348   5.781   6.124   9.140
24036WAT      O72349   5.544   5.355   1.427
24036WAT     H172350   5.610   5.289   1.464
24036WAT     H272351   5.452   5.331   1.458
24037WAT      O72352   3.387   7.900   9.856
24037WAT     H172353   3.355   7.841   9.782
24037WAT     H272354   3.345   7.871   9.942
24038WAT      O72355   3.874   7.880   6.018
24038WAT     H172356   3.921   7.959   5.979
24038WAT     H272357   3.776   7.899   6.023
24039WAT      O72358   6.427   1.422   3.424
24039WAT     H172359   6.387   1.493   3.482
24039WAT     H272360   6.510   1.388   3.466
24040WAT      O72361   8.937   6.126   6.243
24040WAT     H172362   8.965   6.041   6.288
24040WAT     H272363   9.018   6.180   6.220
24041WAT      O72364   0.272   7.986   4.085
24041WAT     H172365   0.211   7.989   4.005
24041WAT     H272366   0.290   8.079   4.116
24042WAT      O72367   8.890   0.545   4.636
24042WAT     H172368   8.859   0.479   4.567
24042WAT     H272369   8.960   0.502   4.693
24043WAT      O72370   4.915   1.537   3.252
24043WAT     H172371   4.823   1.556   3.216
24043WAT     H272372   4.907   1.507   3.348
24044WAT      O72373   3.566   5.416   7.260
24044WAT     H172374   3.666   5.409   7.261
24044WAT     H272375   3.526   5.325   7.264
24045WAT      O72376   2.423   9.172   6.909
24045WAT     H172377   2.486   9.230   6.960
24045WAT     H272378   2.451   9.076   6.918
24046WAT      O72379   3.322   8.347   4.481
24046WAT     H172380   3.342   8.336   4.579
24046WAT     H272381   3.404   8.380   4.434
24047WAT      O72382   7.873   2.442   5.099
24047WAT     H172383   7.822   2.452   5.184
24047WAT     H272384   7.818   2.476   5.023
24048WAT      O72385   6.174   3.958   7.207
24048WAT     H172386   6.107   3.912   7.148
24048WAT     H272387   6.145   3.951   7.302
24049WAT      O72388   0.853   3.250   6.362
24049WAT     H172389   0.898   3.210   6.282
24049WAT     H272390   0.776   3.193   6.389
24050WAT      O72391   1.371   4.308   4.197
24050WAT     H172392   1.274   4.333   4.188
24050WAT     H272393   1.416   4.373   4.257
24051WAT      O72394   6.682   1.643   5.335
24051WAT     H172395   6.743   1.721   5.350
24051WAT     H272396   6.626   1.629   5.417
24052WAT      O72397   5.112   3.330   3.220
24052WAT     H172398   5.191   3.339   3.158
24052WAT     H272399   5.037   3.385   3.184
24053WAT      O72400   1.684   4.187   8.839
24053WAT     H172401   1.754   4.126   8.802
24053WAT     H272402   1.632   4.138   8.910
24054WAT      O72403   5.079   1.648   8.749
24054WAT     H172404   5.122   1.579   8.692
24054WAT     H272405   5.087   1.738   8.706
24055WAT      O72406   7.720   0.835   8.141
24055WAT     H172407   7.654   0.839   8.216
24055WAT     H272408   7.712   0.747   8.095
24056WAT      O72409   1.273   4.665   6.699
24056WAT     H172410   1.349   4.637   6.757
24056WAT     H272411   1.295   4.642   6.604
24057WAT      O72412   7.206   7.530   4.348
24057WAT     H172413   7.206   7.591   4.269
24057WAT     H272414   7.113   7.500   4.367
24058WAT      O72415   3.954   4.920   9.348
24058WAT     H172416   4.053   4.912   9.342
24058WAT     H272417   3.925   5.008   9.312
24059WAT      O72418   7.995   6.038   0.006
24059WAT     H172419   7.976   6.136   0.013
24059WAT     H272420   7.910   5.987   0.005
24060WAT      O72421   4.781   1.584   4.364
24060WAT     H172422   4.851   1.543   4.307
24060WAT     H272423   4.790   1.684   4.361
24061WAT      O72424   3.055   5.748   1.704
24061WAT     H172425   3.094   5.836   1.677
24061WAT     H272426   3.127   5.690   1.743
24062WAT      O72427   6.689   7.315   7.023
24062WAT     H172428   6.774   7.286   7.067
24062WAT     H272429   6.706   7.333   6.926
24063WAT      O72430   2.630   8.627   2.887
24063WAT     H172431   2.590   8.717   2.869
24063WAT     H272432   2.557   8.559   2.894
24064WAT      O72433   6.428   8.350   1.605
24064WAT     H172434   6.349   8.404   1.574
24064WAT     H272435   6.410   8.316   1.697
24065WAT      O72436   2.274   5.741   2.833
24065WAT     H172437   2.196   5.681   2.814
24065WAT     H272438   2.357   5.686   2.838
24066WAT      O72439   3.356   8.293   3.122
24066WAT     H172440   3.335   8.297   3.220
24066WAT     H272441   3.309   8.215   3.081
24067WAT      O72442   0.567   5.150   8.403
24067WAT     H172443   0.495   5.210   8.369
24067WAT     H272444   0.642   5.148   8.336
24068WAT      O72445   3.255   9.299   0.590
24068WAT     H172446   3.325   9.370   0.589
24068WAT     H272447   3.199   9.307   0.507
24069WAT      O72448   8.408   8.274   7.952
24069WAT     H172449   8.425   8.359   8.002
24069WAT     H272450   8.434   8.285   7.857
24070WAT      O72451   3.161   2.072   3.891
24070WAT     H172452   3.084   2.015   3.864
24070WAT     H272453   3.180   2.139   3.818
24071WAT      O72454   6.390   7.068   6.745
24071WAT     H172455   6.335   7.040   6.666
24071WAT     H272456   6.330   7.099   6.819
24072WAT      O72457   6.093   5.239   6.428
24072WAT     H172458   6.134   5.205   6.514
24072WAT     H272459   6.110   5.173   6.355
24073WAT      O72460   5.944   4.332   5.947
24073WAT     H172461   5.982   4.334   6.040
24073WAT     H272462   5.949   4.423   5.906
24074WAT      O72463   1.669   0.083   6.191
24074WAT     H172464   1.707   0.009   6.135
24074WAT     H272465   1.570   0.070   6.201
24075WAT      O72466   4.066   3.197   0.447
24075WAT     H172467   3.981   3.210   0.395
24075WAT     H272468   4.121   3.281   0.443
24076WAT      O72469   1.894   3.349   4.266
24076WAT     H172470   1.908   3.279   4.336
24076WAT     H272471   1.805   3.335   4.222
24077WAT      O72472   3.100   7.786   3.382
24077WAT     H172473   3.052   7.748   3.304
24077WAT     H272474   3.145   7.871   3.355
24078WAT      O72475   5.703   0.188   1.148
24078WAT     H172476   5.704   0.089   1.157
24078WAT     H272477   5.797   0.223   1.152
24079WAT      O72478   6.386   6.475   0.083
24079WAT     H172479   6.308   6.461   0.022
24079WAT     H272480   6.399   6.393   0.139
24080WAT      O72481   7.499   2.754   3.728
24080WAT     H172482   7.500   2.683   3.798
24080WAT     H272483   7.526   2.841   3.768
24081WAT      O72484   5.756   4.411   3.906
24081WAT     H172485   5.708   4.338   3.956
24081WAT     H272486   5.851   4.415   3.936
24082WAT      O72487   4.643   1.276   1.612
24082WAT     H172488   4.702   1.316   1.542
24082WAT     H272489   4.673   1.184   1.633
24083WAT      O72490   6.083   2.331   1.138
24083WAT     H172491   6.075   2.423   1.177
24083WAT     H272492   6.171   2.323   1.091
24084WAT      O72493   6.447   1.929   5.203
24084WAT     H172494   6.445   1.887   5.294
24084WAT     H272495   6.521   1.888   5.150
24085WAT      O72496   8.595   1.085   0.398
24085WAT     H172497   8.523   1.077   0.468
24085WAT     H272498   8.559   1.054   0.310
24086WAT      O72499   8.336   0.091   8.674
24086WAT     H172500   8.375   0.160   8.734
24086WAT     H272501   8.357  -0.000   8.711
24087WAT      O72502   2.582   3.807   9.203
24087WAT     H172503   2.493   3.850   9.196
24087WAT     H272504   2.573   3.708   9.191
24088WAT      O72505   3.432   7.262   2.070
24088WAT     H172506   3.351   7.294   2.119
24088WAT     H272507   3.403   7.211   1.988
24089WAT      O72508   1.537   5.040   4.477
24089WAT     H172509   1.628   5.002   4.496
24089WAT     H272510   1.525   5.050   4.378
24090WAT      O72511   4.481   7.408   3.103
24090WAT     H172512   4.385   7.429   3.085
24090WAT     H272513   4.498   7.406   3.202
24091WAT      O72514   8.014   6.363   7.998
24091WAT     H172515   8.101   6.351   8.046
24091WAT     H272516   8.017   6.316   7.910
24092WAT      O72517   0.147   0.166   8.084
24092WAT     H172518   0.107   0.181   7.994
24092WAT     H272519   0.169   0.254   8.126
24093WAT      O72520   9.186   0.961   6.065
24093WAT     H172521   9.282   0.974   6.039
24093WAT     H272522   9.152   0.876   6.026
24094WAT      O72523   2.670   7.050   0.351
24094WAT     H172524   2.643   6.989   0.426
24094WAT     H272525   2.686   6.996   0.268
24095WAT      O72526   8.056   0.541   6.617
24095WAT     H172527   8.009   0.475   6.676
24095WAT     H272528   8.109   0.493   6.547
24096WAT      O72529   5.473   6.554   7.260
24096WAT     H172530   5.524   6.536   7.344
24096WAT     H272531   5.398   6.488   7.253
24097WAT      O72532   8.004   3.489   1.718
24097WAT     H172533   8.036   3.399   1.748
24097WAT     H272534   7.956   3.534   1.793
24098WAT      O72535   8.071   0.507   2.432
24098WAT     H172536   8.021   0.455   2.501
24098WAT     H272537   8.089   0.600   2.466
24099WAT      O72538   1.589   2.430   8.289
24099WAT     H172539   1.489   2.427   8.289
24099WAT     H272540   1.625   2.350   8.243
24100WAT      O72541   4.299   1.155   3.572
24100WAT     H172542   4.309   1.209   3.656
24100WAT     H272543   4.332   1.062   3.589
24101WAT      O72544   0.639   8.851   8.679
24101WAT     H172545   0.668   8.900   8.761
24101WAT     H272546   0.539   8.838   8.681
24102WAT      O72547   5.617   6.392   0.402
24102WAT     H172548   5.660   6.450   0.332
24102WAT     H272549   5.545   6.337   0.360
24103WAT      O72550   5.887   6.301   6.616
24103WAT     H172551   5.966   6.360   6.598
24103WAT     H272552   5.867   6.247   6.534
24104WAT      O72553   2.404   1.728   3.912
24104WAT     H172554   2.410   1.644   3.859
24104WAT     H272555   2.422   1.807   3.853
24105WAT      O72556   9.840   6.508   5.089
24105WAT     H172557   9.825   6.415   5.056
24105WAT     H272558   9.932   6.539   5.063
24106WAT      O72559   0.330   2.322   8.558
24106WAT     H172560   0.385   2.291   8.635
24106WAT     H272561   0.378   2.302   8.473
24107WAT      O72562   9.272   3.911   0.244
24107WAT     H172563   9.290   4.008   0.260
24107WAT     H272564   9.238   3.898   0.151
24108WAT      O72565   2.349   4.375   7.245
24108WAT     H172566   2.293   4.310   7.194
24108WAT     H272567   2.446   4.352   7.234
24109WAT      O72568   9.442   4.610   4.446
24109WAT     H172569   9.532   4.608   4.403
24109WAT     H272570   9.445   4.561   4.533
24110WAT      O72571   7.854   2.524   5.961
24110WAT     H172572   7.759   2.555   5.959
24110WAT     H272573   7.882   2.495   5.869
24111WAT      O72574   8.491   2.139   6.668
24111WAT     H172575   8.457   2.145   6.762
24111WAT     H272576   8.550   2.059   6.659
24112WAT      O72577   9.162   1.728   7.199
24112WAT     H172578   9.196   1.678   7.120
24112WAT     H272579   9.231   1.727   7.272
24113WAT      O72580   0.924   3.375   5.374
24113WAT     H172581   0.895   3.279   5.369
24113WAT     H272582   0.850   3.430   5.412
24114WAT      O72583   5.663   1.930   1.530
24114WAT     H172584   5.651   1.833   1.549
24114WAT     H272585   5.578   1.979   1.550
24115WAT      O72586   0.050   0.630   2.864
24115WAT     H172587   0.049   0.664   2.958
24115WAT     H272588   0.065   0.531   2.864
24116WAT      O72589   7.736   9.380   1.036
24116WAT     H172590   7.729   9.350   1.131
24116WAT     H272591   7.678   9.460   1.022
24117WAT      O72592   0.733   1.850   6.469
24117WAT     H172593   0.710   1.865   6.565
24117WAT     H272594   0.825   1.812   6.462
24118WAT      O72595   8.591   0.147   1.439
24118WAT     H172596   8.685   0.183   1.434
24118WAT     H272597   8.527   0.221   1.418
24119WAT      O72598   6.764   4.147   4.466
24119WAT     H172599   6.779   4.243   4.445
24119WAT     H272600   6.791   4.129   4.560
24120WAT      O72601   0.212   1.875   4.162
24120WAT     H172602   0.202   1.940   4.238
24120WAT     H272603   0.201   1.782   4.197
24121WAT      O72604   0.251   6.497   9.752
24121WAT     H172605   0.207   6.426   9.807
24121WAT     H272606   0.192   6.521   9.675
24122WAT      O72607   5.735   0.822   1.930
24122WAT     H172608   5.746   0.908   1.881
24122WAT     H272609   5.692   0.755   1.870
24123WAT      O72610   1.949   7.523   2.504
24123WAT     H172611   1.924   7.501   2.598
24123WAT     H272612   1.925   7.618   2.484
24124WAT      O72613   3.043   5.920   2.126
24124WAT     H172614   2.962   5.975   2.146
24124WAT     H272615   3.089   5.958   2.045
24125WAT      O72616   4.999   3.724   1.580
24125WAT     H172617   5.073   3.783   1.547
24125WAT     H272618   4.912   3.774   1.575
24126WAT      O72619   4.895   1.651   3.554
24126WAT     H172620   4.803   1.666   3.518
24126WAT     H272621   4.920   1.555   3.544
24127WAT      O72622   2.798   5.195   9.042
24127WAT     H172623   2.763   5.253   8.968
24127WAT     H272624   2.742   5.210   9.124
24128WAT      O72625   8.923   7.921   6.543
24128WAT     H172626   8.997   7.880   6.490
24128WAT     H272627   8.880   7.851   6.600
24129WAT      O72628   0.874   7.939   0.746
24129WAT     H172629   0.827   7.864   0.793
24129WAT     H272630   0.887   8.016   0.809
24130WAT      O72631   9.629   4.312   8.971
24130WAT     H172632   9.660   4.398   9.013
24130WAT     H272633   9.585   4.255   9.040
24131WAT      O72634   5.308   8.384   5.778
24131WAT     H172635   5.287   8.335   5.693
24131WAT     H272636   5.265   8.474   5.777
24132WAT      O72637   1.543   9.618   2.801
24132WAT     H172638   1.454   9.574   2.785
24132WAT     H272639   1.616   9.552   2.783
24133WAT      O72640   8.567   8.493   2.609
24133WAT     H172641   8.524   8.414   2.652
24133WAT     H272642   8.636   8.461   2.543
24134WAT      O72643   5.737   2.428   2.469
24134WAT     H172644   5.697   2.339   2.448
24134WAT     H272645   5.664   2.492   2.492
24135WAT      O72646   7.223   7.887   5.475
24135WAT     H172647   7.257   7.863   5.566
24135WAT     H272648   7.128   7.919   5.483
24136WAT      O72649   0.583   9.569   5.973
24136WAT     H172650   0.617   9.583   6.067
24136WAT     H272651   0.659   9.581   5.909
24137WAT      O72652   7.239   7.458   6.832
24137WAT     H172653   7.167   7.494   6.891
24137WAT     H272654   7.327   7.495   6.862
24138WAT      O72655   0.713   9.672   8.538
24138WAT     H172656   0.639   9.690   8.602
24138WAT     H272657   0.793   9.726   8.564
24139WAT      O72658   4.532   9.228   6.469
24139WAT     H172659   4.565   9.263   6.381
24139WAT     H272660   4.441   9.187   6.456
24140WAT      O72661   8.508   1.750   4.769
24140WAT     H172662   8.588   1.807   4.748
24140WAT     H272663   8.461   1.788   4.849
24141WAT      O72664   0.473   1.644   7.215
24141WAT     H172665   0.464   1.703   7.134
24141WAT     H272666   0.505   1.698   7.293
24142WAT      O72667   3.269   4.045   2.997
24142WAT     H172668   3.214   4.024   3.078
24142WAT     H272669   3.348   4.099   3.024
24143WAT      O72670   2.195   3.627   7.894
24143WAT     H172671   2.144   3.683   7.828
24143WAT     H272672   2.248   3.558   7.845
24144WAT      O72673   7.382   0.971   6.102
24144WAT     H172674   7.331   0.896   6.059
24144WAT     H272675   7.335   1.001   6.184
24145WAT      O72676   3.187   7.613   8.692
24145WAT     H172677   3.176   7.659   8.604
24145WAT     H272678   3.132   7.660   8.761
24146WAT      O72679   8.939   0.888   9.386
24146WAT     H172680   8.902   0.826   9.455
24146WAT     H272681   9.010   0.840   9.333
24147WAT      O72682   9.660   2.758   6.020
24147WAT     H172683   9.725   2.755   6.096
24147WAT     H272684   9.614   2.846   6.020
24148WAT      O72685   5.685   7.599   6.296
24148WAT     H172686   5.629   7.633   6.220
24148WAT     H272687   5.773   7.568   6.261
24149WAT      O72688   4.582   4.231   2.669
24149WAT     H172689   4.628   4.214   2.756
24149WAT     H272690   4.484   4.220   2.681
24150WAT      O72691   2.714   9.570   2.199
24150WAT     H172692   2.774   9.597   2.124
24150WAT     H272693   2.650   9.499   2.168
24151WAT      O72694   6.802   9.030   3.602
24151WAT     H172695   6.808   9.086   3.520
24151WAT     H272696   6.715   9.046   3.648
24152WAT      O72697   3.394   5.167   9.886
24152WAT     H172698   3.397   5.262   9.855
24152WAT     H272699   3.476   5.147   9.939
24153WAT      O72700   6.098   5.557   9.065
24153WAT     H172701   6.169   5.558   9.136
24153WAT     H272702   6.017   5.511   9.101
24154WAT      O72703   3.682   3.524   1.033
24154WAT     H172704   3.712   3.519   1.128
24154WAT     H272705   3.587   3.553   1.029
24155WAT      O72706   8.379   1.281   2.097
24155WAT     H172707   8.473   1.247   2.110
24155WAT     H272708   8.380   1.381   2.097
24156WAT      O72709   4.007   5.821   9.141
24156WAT     H172710   4.090   5.791   9.187
24156WAT     H272711   3.937   5.750   9.148
24157WAT      O72712   6.721   3.928   5.083
24157WAT     H172713   6.623   3.923   5.064
24157WAT     H272714   6.737   3.993   5.158
24158WAT      O72715   1.171   8.136   1.785
24158WAT     H172716   1.084   8.104   1.824
24158WAT     H272717   1.161   8.146   1.686
24159WAT      O72718   8.883   7.818   7.699
24159WAT     H172719   8.875   7.868   7.786
24159WAT     H272720   8.973   7.774   7.694
24160WAT      O72721   8.756   1.295   0.393
24160WAT     H172722   8.713   1.386   0.391
24160WAT     H272723   8.687   1.225   0.375
24161WAT      O72724   5.176   8.852   0.898
24161WAT     H172725   5.121   8.889   0.823
24161WAT     H272726   5.118   8.795   0.957
24162WAT      O72727   5.269   8.898   8.187
24162WAT     H172728   5.356   8.853   8.207
24162WAT     H272729   5.235   8.943   8.269
24163WAT      O72730   6.629   7.589   2.023
24163WAT     H172731   6.674   7.595   1.934
24163WAT     H272732   6.624   7.493   2.051
24164WAT      O72733   3.777   7.910   3.601
24164WAT     H172734   3.801   7.836   3.538
24164WAT     H272735   3.802   7.883   3.694
24165WAT      O72736   9.509   8.014   3.366
24165WAT     H172737   9.511   7.915   3.352
24165WAT     H272738   9.551   8.036   3.455
24166WAT      O72739   1.305   5.507   3.102
24166WAT     H172740   1.319   5.436   3.034
24166WAT     H272741   1.385   5.513   3.162
24167WAT      O72742   9.499   0.589   1.233
24167WAT     H172743   9.430   0.623   1.169
24167WAT     H272744   9.585   0.574   1.183
24168WAT      O72745   0.209   9.563   6.955
24168WAT     H172746   0.243   9.601   7.041
24168WAT     H272747   0.123   9.515   6.972
24169WAT      O72748   6.560   2.607   4.660
24169WAT     H172749   6.529   2.683   4.718
24169WAT     H272750   6.644   2.634   4.612
24170WAT      O72751   5.231   7.493   3.786
24170WAT     H172752   5.203   7.446   3.870
24170WAT     H272753   5.158   7.489   3.719
24171WAT      O72754   3.162   3.969   8.833
24171WAT     H172755   3.222   3.890   8.824
24171WAT     H272756   3.197   4.030   8.904
24172WAT      O72757   4.961   9.658   7.378
24172WAT     H172758   5.043   9.606   7.352
24172WAT     H272759   4.886   9.636   7.315
24173WAT      O72760   9.247   9.607   1.411
24173WAT     H172761   9.154   9.586   1.378
24173WAT     H272762   9.283   9.529   1.462
24174WAT      O72763   5.455   6.258   5.269
24174WAT     H172764   5.532   6.322   5.261
24174WAT     H272765   5.480   6.171   5.224
24175WAT      O72766   8.605   4.697   4.502
24175WAT     H172767   8.529   4.747   4.461
24175WAT     H272768   8.679   4.761   4.524
24176WAT      O72769   4.107   0.577   5.597
24176WAT     H172770   4.041   0.501   5.597
24176WAT     H272771   4.085   0.640   5.522
24177WAT      O72772   8.927   2.543   2.646
24177WAT     H172773   9.002   2.582   2.700
24177WAT     H272774   8.861   2.499   2.707
24178WAT      O72775   9.757   1.991   5.777
24178WAT     H172776   9.754   1.943   5.689
24178WAT     H272777   9.841   1.968   5.825
24179WAT      O72778   8.337   2.547   2.303
24179WAT     H172779   8.245   2.528   2.269
24179WAT     H272780   8.375   2.625   2.253
24180WAT      O72781   8.644   4.005   1.727
24180WAT     H172782   8.647   3.909   1.700
24180WAT     H272783   8.738   4.042   1.730
24181WAT      O72784   1.103   3.044   3.784
24181WAT     H172785   1.070   2.951   3.798
24181WAT     H272786   1.058   3.105   3.850
24182WAT      O72787   1.340   6.567   4.729
24182WAT     H172788   1.298   6.550   4.640
24182WAT     H272789   1.396   6.650   4.724
24183WAT      O72790   5.723   8.398   8.905
24183WAT     H172791   5.713   8.346   8.821
24183WAT     H272792   5.635   8.438   8.931
24184WAT      O72793   0.849   4.031   6.687
24184WAT     H172794   0.796   4.003   6.607
24184WAT     H272795   0.801   4.002   6.770
24185WAT      O72796   3.004   5.232   8.100
24185WAT     H172797   2.987   5.179   8.184
24185WAT     H272798   3.037   5.170   8.028
24186WAT      O72799   5.774   6.416   1.292
24186WAT     H172800   5.759   6.432   1.390
24186WAT     H272801   5.688   6.422   1.243
24187WAT      O72802   0.055   8.825   5.156
24187WAT     H172803   0.150   8.798   5.143
24187WAT     H272804   0.044   8.923   5.134
24188WAT      O72805   5.649   0.611   0.760
24188WAT     H172806   5.583   0.676   0.798
24188WAT     H272807   5.722   0.594   0.827
24189WAT      O72808   2.057   2.302   4.709
24189WAT     H172809   2.146   2.302   4.754
24189WAT     H272810   2.067   2.334   4.615
24190WAT      O72811   8.679   8.947   8.082
24190WAT     H172812   8.683   9.042   8.114
24190WAT     H272813   8.768   8.904   8.092
24191WAT      O72814   6.079   0.810   5.724
24191WAT     H172815   6.164   0.794   5.774
24191WAT     H272816   6.086   0.769   5.633
24192WAT      O72817   1.624   8.920   7.044
24192WAT     H172818   1.706   8.971   7.017
24192WAT     H272819   1.556   8.984   7.081
24193WAT      O72820   1.745   0.228   5.959
24193WAT     H172821   1.766   0.161   5.888
24193WAT     H272822   1.701   0.182   6.036
24194WAT      O72823   3.427   7.263   5.158
24194WAT     H172824   3.428   7.316   5.073
24194WAT     H272825   3.483   7.181   5.146
24195WAT      O72826   3.487   3.930   0.809
24195WAT     H172827   3.472   3.877   0.893
24195WAT     H272828   3.402   3.975   0.783
24196WAT      O72829   3.345   3.316   9.431
24196WAT     H172830   3.410   3.393   9.427
24196WAT     H272831   3.287   3.318   9.350
24197WAT      O72832   4.324   7.008   8.103
24197WAT     H172833   4.384   6.964   8.170
24197WAT     H272834   4.277   7.085   8.147
24198WAT      O72835   4.908   4.629   8.122
24198WAT     H172836   4.872   4.572   8.196
24198WAT     H272837   4.991   4.587   8.085
24199WAT      O72838   0.271   5.596   6.007
24199WAT     H172839   0.285   5.681   6.059
24199WAT     H272840   0.345   5.584   5.941
24200WAT      O72841   4.064   9.233   1.158
24200WAT     H172842   4.145   9.196   1.113
24200WAT     H272843   4.007   9.281   1.091
24201WAT      O72844   9.252   0.504   4.107
24201WAT     H172845   9.295   0.419   4.076
24201WAT     H272846   9.243   0.503   4.206
24202WAT      O72847   4.321   0.266   0.145
24202WAT     H172848   4.238   0.218   0.116
24202WAT     H272849   4.399   0.204   0.137
24203WAT      O72850   6.414   0.055   7.463
24203WAT     H172851   6.446   0.121   7.394
24203WAT     H272852   6.314   0.056   7.466
24204WAT      O72853   3.866   8.639   2.209
24204WAT     H172854   3.854   8.540   2.206
24204WAT     H272855   3.963   8.662   2.200
24205WAT      O72856   0.476   7.102   8.464
24205WAT     H172857   0.417   7.032   8.423
24205WAT     H272858   0.570   7.090   8.431
24206WAT      O72859   5.552   9.330   1.212
24206WAT     H172860   5.500   9.305   1.130
24206WAT     H272861   5.525   9.422   1.242
24207WAT      O72862   0.676   7.864   3.251
24207WAT     H172863   0.719   7.946   3.212
24207WAT     H272864   0.698   7.858   3.348
24208WAT      O72865   4.059   1.014   9.190
24208WAT     H172866   4.053   0.997   9.289
24208WAT     H272867   4.110   0.939   9.147
24209WAT      O72868   1.089   7.622   7.438
24209WAT     H172869   1.062   7.555   7.507
24209WAT     H272870   1.137   7.698   7.482
24210WAT      O72871   4.511   2.508   2.559
24210WAT     H172872   4.482   2.533   2.466
24210WAT     H272873   4.573   2.579   2.594
24211WAT      O72874   1.186   0.787   1.978
24211WAT     H172875   1.185   0.876   1.934
24211WAT     H272876   1.178   0.798   2.077
24212WAT      O72877   9.029   5.670   2.171
24212WAT     H172878   9.065   5.579   2.150
24212WAT     H272879   9.058   5.734   2.100
24213WAT      O72880   5.204   0.218   9.508
24213WAT     H172881   5.137   0.188   9.575
24213WAT     H272882   5.217   0.146   9.439
24214WAT      O72883   6.496   2.201   5.739
24214WAT     H172884   6.440   2.187   5.820
24214WAT     H272885   6.524   2.298   5.733
24215WAT      O72886   3.509   5.500   4.824
24215WAT     H172887   3.533   5.467   4.916
24215WAT     H272888   3.590   5.538   4.780
24216WAT      O72889   4.813   9.103   2.078
24216WAT     H172890   4.895   9.120   2.132
24216WAT     H272891   4.835   9.110   1.981
24217WAT      O72892   8.443   8.422   7.338
24217WAT     H172893   8.353   8.454   7.367
24217WAT     H272894   8.514   8.471   7.389
24218WAT      O72895   5.090   0.593   1.018
24218WAT     H172896   5.162   0.524   1.028
24218WAT     H272897   5.069   0.605   0.921
24219WAT      O72898   6.445   2.124   1.974
24219WAT     H172899   6.461   2.060   1.899
24219WAT     H272900   6.523   2.123   2.036
24220WAT      O72901   2.397   0.622   9.276
24220WAT     H172902   2.311   0.574   9.294
24220WAT     H272903   2.393   0.713   9.319
24221WAT      O72904   3.998   8.335   4.927
24221WAT     H172905   4.075   8.363   4.871
24221WAT     H272906   3.936   8.413   4.940
24222WAT      O72907   1.394   6.948   9.586
24222WAT     H172908   1.456   6.940   9.507
24222WAT     H272909   1.308   6.990   9.556
24223WAT      O72910   6.502   2.779   4.849
24223WAT     H172911   6.456   2.853   4.900
24223WAT     H272912   6.600   2.795   4.849
24224WAT      O72913   5.826   4.289   4.612
24224WAT     H172914   5.881   4.330   4.685
24224WAT     H272915   5.884   4.273   4.532
24225WAT      O72916   9.600   1.985   3.292
24225WAT     H172917   9.559   1.904   3.251
24225WAT     H272918   9.676   1.958   3.351
24226WAT      O72919   5.446   7.811   4.121
24226WAT     H172920   5.429   7.904   4.155
24226WAT     H272921   5.363   7.757   4.132
24227WAT      O72922   3.668   9.260   2.236
24227WAT     H172923   3.728   9.249   2.157
24227WAT     H272924   3.592   9.195   2.230
24228WAT      O72925   1.551   0.825   8.874
24228WAT     H172926   1.616   0.895   8.906
24228WAT     H272927   1.555   0.819   8.774
24229WAT      O72928   3.940   9.515   4.892
24229WAT     H172929   3.875   9.590   4.875
24229WAT     H272930   3.900   9.450   4.956
24230WAT      O72931   6.445   1.428   9.879
24230WAT     H172932   6.528   1.473   9.846
24230WAT     H272933   6.386   1.497   9.922
24231WAT      O72934   7.335   1.864   6.286
24231WAT     H172935   7.294   1.781   6.246
24231WAT     H272936   7.360   1.927   6.212
24232WAT      O72937   4.629   8.406   0.257
24232WAT     H172938   4.536   8.440   0.273
24232WAT     H272939   4.666   8.369   0.342
24233WAT      O72940   5.677   9.060   3.086
24233WAT     H172941   5.599   8.998   3.097
24233WAT     H272942   5.685   9.117   3.168
24234WAT      O72943   2.752   3.172   5.129
24234WAT     H172944   2.667   3.181   5.180
24234WAT     H272945   2.756   3.244   5.059
24235WAT      O72946   2.679   8.025   8.099
24235WAT     H172947   2.628   8.111   8.107
24235WAT     H272948   2.721   8.004   8.187
24236WAT      O72949   7.042   7.805   9.107
24236WAT     H172950   7.068   7.711   9.129
24236WAT     H272951   7.080   7.867   9.176
24237WAT      O72952   5.878   8.807   6.746
24237WAT     H172953   5.952   8.754   6.788
24237WAT     H272954   5.828   8.857   6.817
24238WAT      O72955   4.011   0.538   2.458
24238WAT     H172956   4.061   0.478   2.395
24238WAT     H272957   3.915   0.509   2.461
24239WAT      O72958   5.360   8.366   6.511
24239WAT     H172959   5.450   8.408   6.497
24239WAT     H272960   5.298   8.432   6.553
24240WAT      O72961   0.191   7.350   7.809
24240WAT     H172962   0.116   7.303   7.857
24240WAT     H272963   0.173   7.448   7.807
24241WAT      O72964   8.117   5.781   3.243
24241WAT     H172965   8.180   5.836   3.187
24241WAT     H272966   8.108   5.690   3.203
24242WAT      O72967   0.305   9.125   8.961
24242WAT     H172968   0.242   9.190   8.917
24242WAT     H272969   0.335   9.162   9.048
24243WAT      O72970   4.988   1.502   2.091
24243WAT     H172971   5.059   1.556   2.137
24243WAT     H272972   4.898   1.528   2.126
24244WAT      O72973   8.807   0.111   0.833
24244WAT     H172974   8.794   0.014   0.815
24244WAT     H272975   8.725   0.150   0.874
24245WAT      O72976   6.032   2.730   2.746
24245WAT     H172977   6.042   2.781   2.661
24245WAT     H272978   5.988   2.642   2.728
24246WAT      O72979   5.617   4.166   4.423
24246WAT     H172980   5.627   4.169   4.522
24246WAT     H272981   5.611   4.070   4.393
24247WAT      O72982   5.646   6.539   3.530
24247WAT     H172983   5.590   6.493   3.599
24247WAT     H272984   5.663   6.477   3.454
24248WAT      O72985   7.879   7.815   8.442
24248WAT     H172986   7.882   7.875   8.362
24248WAT     H272987   7.879   7.870   8.526
24249WAT      O72988   1.343   9.437   0.484
24249WAT     H172989   1.375   9.520   0.438
24249WAT     H272990   1.270   9.461   0.548
24250WAT      O72991   0.560   5.905   7.462
24250WAT     H172992   0.567   5.955   7.376
24250WAT     H272993   0.599   5.814   7.451
24251WAT      O72994   5.461   2.281   5.445
24251WAT     H172995   5.465   2.268   5.345
24251WAT     H272996   5.547   2.322   5.476
24252WAT      O72997   1.210   1.333   2.714
24252WAT     H172998   1.155   1.298   2.790
24252WAT     H272999   1.279   1.265   2.688
24253WAT      O73000   3.615   3.063   0.092
24253WAT     H173001   3.546   2.994   0.069
24253WAT     H273002   3.703   3.034   0.054
24254WAT      O73003   4.873   8.782   5.367
24254WAT     H173004   4.876   8.865   5.421
24254WAT     H273005   4.817   8.713   5.413
24255WAT      O73006   8.618   0.090   8.147
24255WAT     H173007   8.551   0.128   8.083
24255WAT     H273008   8.612   0.139   8.234
24256WAT      O73009   2.950   2.755   0.907
24256WAT     H173010   2.928   2.801   0.994
24256WAT     H273011   2.874   2.769   0.843
24257WAT      O73012   0.855   9.581   9.295
24257WAT     H173013   0.835   9.491   9.336
24257WAT     H273014   0.808   9.589   9.207
24258WAT      O73015   5.807   1.040   8.077
24258WAT     H173016   5.804   1.140   8.084
24258WAT     H273017   5.732   1.001   8.130
24259WAT      O73018   1.604   3.106   3.631
24259WAT     H173019   1.598   3.115   3.731
24259WAT     H273020   1.678   3.044   3.607
24260WAT      O73021   7.294   0.807   2.951
24260WAT     H173022   7.229   0.881   2.937
24260WAT     H273023   7.252   0.720   2.924
24261WAT      O73024   5.926   6.578   9.853
24261WAT     H173025   5.886   6.562   9.762
24261WAT     H273026   5.858   6.622   9.911
24262WAT      O73027   9.292   1.976   0.151
24262WAT     H173028   9.219   1.942   0.210
24262WAT     H273029   9.379   1.970   0.199
24263WAT      O73030   0.304   3.008   4.642
24263WAT     H173031   0.275   2.915   4.620
24263WAT     H273032   0.224   3.066   4.654
24264WAT      O73033   8.883   0.124   3.746
24264WAT     H173034   8.885   0.024   3.751
24264WAT     H273035   8.966   0.156   3.700
24265WAT      O73036   9.393   5.931   6.382
24265WAT     H173037   9.354   5.937   6.474
24265WAT     H273038   9.487   5.897   6.387
24266WAT      O73039   1.189   2.352   9.874
24266WAT     H173040   1.180   2.253   9.888
24266WAT     H273041   1.172   2.374   9.778
24267WAT      O73042   7.983   2.461   2.511
24267WAT     H173043   7.930   2.537   2.475
24267WAT     H273044   8.027   2.488   2.597
24268WAT      O73045   0.240   0.757   5.584
24268WAT     H173046   0.319   0.720   5.535
24268WAT     H273047   0.270   0.791   5.674
24269WAT      O73048   3.256   6.520   2.535
24269WAT     H173049   3.171   6.549   2.490
24269WAT     H273050   3.250   6.541   2.632
24270WAT      O73051   2.262   4.337   9.490
24270WAT     H173052   2.283   4.239   9.491
24270WAT     H273053   2.189   4.354   9.424
24271WAT      O73054   8.863   6.201   1.115
24271WAT     H173055   8.766   6.181   1.099
24271WAT     H273056   8.875   6.299   1.129
24272WAT      O73057   0.963   6.352   5.357
24272WAT     H173058   0.875   6.399   5.349
24272WAT     H273059   0.977   6.296   5.276
24273WAT      O73060   5.226   5.797   2.230
24273WAT     H173061   5.194   5.838   2.145
24273WAT     H273062   5.270   5.867   2.287
24274WAT      O73063   9.493   5.952   4.033
24274WAT     H173064   9.507   5.853   4.025
24274WAT     H273065   9.545   5.987   4.110
24275WAT      O73066   9.203   1.104   9.690
24275WAT     H173067   9.153   1.174   9.741
24275WAT     H273068   9.299   1.130   9.683
24276WAT      O73069   3.856   9.422   8.539
24276WAT     H173070   3.899   9.346   8.491
24276WAT     H273071   3.771   9.447   8.494
24277WAT      O73072   7.236   6.239   0.322
24277WAT     H173073   7.170   6.214   0.252
24277WAT     H273074   7.194   6.305   0.385
24278WAT      O73075   9.478   3.047   6.663
24278WAT     H173076   9.402   3.015   6.720
24278WAT     H273077   9.556   3.069   6.721
24279WAT      O73078   7.999   9.160   3.193
24279WAT     H173079   7.925   9.092   3.194
24279WAT     H273080   8.012   9.195   3.101
24280WAT      O73081   2.835   4.358   0.954
24280WAT     H173082   2.773   4.415   1.008
24280WAT     H273083   2.877   4.289   1.013
24281WAT      O73084   3.491   4.938   6.109
24281WAT     H173085   3.545   5.022   6.114
24281WAT     H273086   3.537   4.872   6.050
24282WAT      O73087   2.090   9.279   8.848
24282WAT     H173088   2.073   9.264   8.946
24282WAT     H273089   2.186   9.301   8.834
24283WAT      O73090   5.922   8.158   4.536
24283WAT     H173091   5.978   8.237   4.510
24283WAT     H273092   5.900   8.164   4.634
24284WAT      O73093   1.952   8.045   4.051
24284WAT     H173094   2.043   8.023   4.086
24284WAT     H273095   1.932   7.987   3.972
24285WAT      O73096   3.676   7.343   8.532
24285WAT     H173097   3.658   7.391   8.618
24285WAT     H273098   3.593   7.342   8.477
24286WAT      O73099   1.499   8.267   1.901
24286WAT     H173100   1.510   8.361   1.932
24286WAT     H273101   1.423   8.261   1.836
24287WAT      O73102   1.994   9.636   3.135
24287WAT     H173103   1.974   9.608   3.229
24287WAT     H273104   2.090   9.665   3.129
24288WAT      O73105   8.950   7.784   3.512
24288WAT     H173106   8.982   7.725   3.586
24288WAT     H273107   8.984   7.749   3.425
24289WAT      O73108   9.036   1.231   9.049
24289WAT     H173109   9.010   1.294   9.122
24289WAT     H273110   8.980   1.248   8.968
24290WAT      O73111   7.744   9.495   8.100
24290WAT     H173112   7.789   9.457   8.181
24290WAT     H273113   7.647   9.471   8.101
24291WAT      O73114   3.605   5.637   8.982
24291WAT     H173115   3.524   5.579   8.997
24291WAT     H273116   3.592   5.690   8.898
24292WAT      O73117   1.435   4.764   2.683
24292WAT     H173118   1.428   4.828   2.759
24292WAT     H273119   1.353   4.707   2.679
24293WAT      O73120   2.119   5.301   5.641
24293WAT     H173121   2.115   5.401   5.638
24293WAT     H273122   2.201   5.273   5.691
24294WAT      O73123   5.648   9.585   8.093
24294WAT     H173124   5.630   9.682   8.106
24294WAT     H273125   5.617   9.557   8.002
24295WAT      O73126   7.661   1.294   8.989
24295WAT     H173127   7.756   1.264   8.987
24295WAT     H273128   7.639   1.326   9.081
24296WAT      O73129   2.577   8.278   3.045
24296WAT     H173130   2.578   8.181   3.021
24296WAT     H273131   2.490   8.318   3.018
24297WAT      O73132   0.956   3.075   5.877
24297WAT     H173133   0.950   3.094   5.778
24297WAT     H273134   0.947   2.977   5.892
24298WAT      O73135   8.258   5.897   2.824
24298WAT     H173136   8.305   5.809   2.819
24298WAT     H273137   8.173   5.892   2.771
24299WAT      O73138   4.007   6.282   2.980
24299WAT     H173139   3.944   6.205   2.983
24299WAT     H273140   4.042   6.300   3.072
24300WAT      O73141   8.894   8.838   0.201
24300WAT     H173142   8.984   8.824   0.159
24300WAT     H273143   8.903   8.840   0.301
24301WAT      O73144   4.039   3.266   8.421
24301WAT     H173145   4.106   3.248   8.348
24301WAT     H273146   4.063   3.352   8.467
24302WAT      O73147   6.367   9.574   8.160
24302WAT     H173148   6.460   9.580   8.123
24302WAT     H273149   6.361   9.495   8.221
24303WAT      O73150   5.585   4.410   5.085
24303WAT     H173151   5.664   4.356   5.056
24303WAT     H273152   5.520   4.418   5.009
24304WAT      O73153   4.736   0.056   6.472
24304WAT     H173154   4.684   0.086   6.552
24304WAT     H273155   4.681  -0.007   6.417
24305WAT      O73156   1.194   4.643   3.797
24305WAT     H173157   1.106   4.596   3.787
24305WAT     H273158   1.264   4.595   3.743
24306WAT      O73159   1.200   5.186   5.170
24306WAT     H173160   1.111   5.160   5.207
24306WAT     H273161   1.188   5.226   5.079
24307WAT      O73162   3.794   1.544   1.324
24307WAT     H173163   3.730   1.613   1.291
24307WAT     H273164   3.886   1.563   1.288
24308WAT      O73165   3.350   9.473   1.783
24308WAT     H173166   3.393   9.495   1.695
24308WAT     H273167   3.416   9.426   1.842
24309WAT      O73168   4.483   2.691   0.858
24309WAT     H173169   4.398   2.643   0.836
24309WAT     H273170   4.560   2.630   0.844
24310WAT      O73171   4.945   3.503   0.861
24310WAT     H173172   4.976   3.503   0.766
24310WAT     H273173   4.932   3.597   0.892
24311WAT      O73174   8.164   1.392   7.081
24311WAT     H173175   8.212   1.351   7.003
24311WAT     H273176   8.193   1.488   7.091
24312WAT      O73177   5.002   4.005   5.327
24312WAT     H173178   5.008   3.957   5.415
24312WAT     H273179   5.046   4.094   5.335
24313WAT      O73180   7.663   7.250   7.646
24313WAT     H173181   7.569   7.282   7.653
24313WAT     H273182   7.717   7.291   7.719
24314WAT      O73183   3.516   6.798   6.704
24314WAT     H173184   3.467   6.883   6.723
24314WAT     H273185   3.508   6.776   6.607
24315WAT      O73186   0.864   3.062   1.466
24315WAT     H173187   0.850   3.147   1.517
24315WAT     H273188   0.962   3.051   1.447
24316WAT      O73189   6.160   0.152   9.625
24316WAT     H173190   6.205   0.131   9.538
24316WAT     H273191   6.061   0.159   9.610
24317WAT      O73192   1.274   7.871   5.133
24317WAT     H173193   1.293   7.775   5.112
24317WAT     H273194   1.181   7.880   5.169
24318WAT      O73195   3.562   6.952   4.856
24318WAT     H173196   3.534   7.040   4.816
24318WAT     H273197   3.535   6.878   4.796
24319WAT      O73198   5.151   6.106   6.226
24319WAT     H173199   5.114   6.199   6.223
24319WAT     H273200   5.088   6.044   6.178
24320WAT      O73201   7.636   0.014   4.540
24320WAT     H173202   7.735   0.025   4.541
24320WAT     H273203   7.599   0.037   4.630
24321WAT      O73204   6.784   2.070   4.934
24321WAT     H173205   6.846   2.139   4.894
24321WAT     H273206   6.726   2.113   5.003
24322WAT      O73207   4.410   6.107   0.325
24322WAT     H173208   4.360   6.078   0.244
24322WAT     H273209   4.376   6.058   0.405
24323WAT      O73210   2.790   4.608   2.655
24323WAT     H173211   2.805   4.520   2.611
24323WAT     H273212   2.705   4.605   2.708
24324WAT      O73213   5.370   6.861   8.097
24324WAT     H173214   5.444   6.927   8.091
24324WAT     H273215   5.385   6.800   8.175
24325WAT      O73216   4.117   9.078   2.391
24325WAT     H173217   4.046   9.033   2.445
24325WAT     H273218   4.183   9.010   2.359
24326WAT      O73219   9.145   5.743   7.763
24326WAT     H173220   9.173   5.670   7.701
24326WAT     H273221   9.175   5.721   7.856
24327WAT      O73222   8.565   2.536   4.311
24327WAT     H173223   8.584   2.447   4.352
24327WAT     H273224   8.552   2.604   4.384
24328WAT      O73225   7.995   2.813   1.662
24328WAT     H173226   8.052   2.882   1.707
24328WAT     H273227   7.906   2.808   1.708
24329WAT      O73228   1.325   3.729   5.770
24329WAT     H173229   1.287   3.678   5.848
24329WAT     H273230   1.310   3.678   5.686
24330WAT      O73231   3.105   8.583   1.393
24330WAT     H173232   3.083   8.524   1.315
24330WAT     H273233   3.076   8.676   1.374
24331WAT      O73234   4.150   7.586   0.238
24331WAT     H173235   4.236   7.622   0.201
24331WAT     H273236   4.078   7.593   0.170
24332WAT      O73237   8.438   7.173   1.463
24332WAT     H173238   8.495   7.185   1.544
24332WAT     H273239   8.470   7.094   1.410
24333WAT      O73240   2.771   9.152   6.152
24333WAT     H173241   2.773   9.053   6.165
24333WAT     H273242   2.722   9.174   6.068
24334WAT      O73243   8.323   7.237   2.959
24334WAT     H173244   8.308   7.193   3.047
24334WAT     H273245   8.353   7.331   2.974
24335WAT      O73246   2.174   5.638   5.561
24335WAT     H173247   2.241   5.712   5.564
24335WAT     H273248   2.105   5.659   5.492
24336WAT      O73249   9.290   3.748   4.783
24336WAT     H173250   9.339   3.668   4.818
24336WAT     H273251   9.307   3.827   4.841
24337WAT      O73252   5.980   5.162   5.623
24337WAT     H173253   6.066   5.130   5.583
24337WAT     H273254   5.992   5.257   5.654
24338WAT      O73255   6.870   2.002   4.050
24338WAT     H173256   6.882   1.943   4.130
24338WAT     H273257   6.903   2.094   4.072
24339WAT      O73258   1.831   5.143   5.322
24339WAT     H173259   1.752   5.091   5.289
24339WAT     H273260   1.803   5.237   5.341
24340WAT      O73261   7.512   8.365   3.280
24340WAT     H173262   7.595   8.318   3.310
24340WAT     H273263   7.435   8.336   3.337
24341WAT      O73264   1.361   8.688   7.632
24341WAT     H173265   1.399   8.721   7.718
24341WAT     H273266   1.410   8.606   7.603
24342WAT      O73267   8.885   2.423   5.824
24342WAT     H173268   8.870   2.508   5.874
24342WAT     H273269   8.822   2.418   5.746
24343WAT      O73270   1.259   0.227   7.514
24343WAT     H173271   1.290   0.165   7.442
24343WAT     H273272   1.320   0.220   7.593
24344WAT      O73273   7.840   5.770   3.755
24344WAT     H173274   7.912   5.713   3.715
24344WAT     H273275   7.845   5.862   3.717
24345WAT      O73276   1.615   2.709   6.548
24345WAT     H173277   1.701   2.724   6.501
24345WAT     H273278   1.539   2.743   6.492
24346WAT      O73279   7.039   7.242   7.936
24346WAT     H173280   7.078   7.326   7.897
24346WAT     H273281   7.081   7.225   8.025
24347WAT      O73282   1.494   0.662   5.876
24347WAT     H173283   1.501   0.569   5.911
24347WAT     H273284   1.455   0.721   5.947
24348WAT      O73285   9.747   6.957   8.981
24348WAT     H173286   9.822   6.921   9.036
24348WAT     H273287   9.783   7.023   8.915
24349WAT      O73288   3.817   7.756   2.253
24349WAT     H173289   3.870   7.671   2.266
24349WAT     H273290   3.732   7.734   2.205
24350WAT      O73291   8.216   9.074   6.566
24350WAT     H173292   8.148   9.021   6.616
24350WAT     H273293   8.307   9.053   6.602
24351WAT      O73294   4.474   3.592   1.253
24351WAT     H173295   4.418   3.649   1.314
24351WAT     H273296   4.424   3.577   1.167
24352WAT      O73297   2.750   5.737   5.816
24352WAT     H173298   2.743   5.728   5.916
24352WAT     H273299   2.774   5.649   5.776
24353WAT      O73300   7.693   3.192   1.933
24353WAT     H173301   7.635   3.130   1.986
24353WAT     H273302   7.711   3.275   1.985
24354WAT      O73303   6.034   8.323   1.390
24354WAT     H173304   5.968   8.341   1.463
24354WAT     H273305   6.100   8.398   1.385
24355WAT      O73306   0.453   8.991   4.271
24355WAT     H173307   0.468   8.963   4.366
24355WAT     H273308   0.523   9.057   4.244
24356WAT      O73309   0.238   0.843   8.338
24356WAT     H173310   0.219   0.877   8.430
24356WAT     H273311   0.332   0.865   8.313
24357WAT      O73312   7.947   4.950   6.183
24357WAT     H173313   7.915   4.930   6.275
24357WAT     H273314   7.999   4.872   6.148
24358WAT      O73315   6.439   2.788   6.232
24358WAT     H173316   6.372   2.714   6.245
24358WAT     H273317   6.419   2.862   6.295
24359WAT      O73318   4.850   0.235   8.625
24359WAT     H173319   4.836   0.291   8.707
24359WAT     H273320   4.777   0.167   8.619
24360WAT      O73321   3.661   8.499   2.546
24360WAT     H173322   3.577   8.536   2.587
24360WAT     H273323   3.708   8.441   2.612
24361WAT      O73324   2.676   5.184   9.760
24361WAT     H173325   2.773   5.199   9.740
24361WAT     H273326   2.624   5.264   9.730
24362WAT      O73327   1.540   7.583   4.681
24362WAT     H173328   1.553   7.604   4.585
24362WAT     H273329   1.513   7.666   4.731
24363WAT      O73330   0.553   5.752   2.074
24363WAT     H173331   0.644   5.790   2.090
24363WAT     H273332   0.559   5.675   2.011
24364WAT      O73333   2.428   9.731   4.717
24364WAT     H173334   2.499   9.681   4.667
24364WAT     H273335   2.392   9.674   4.791
24365WAT      O73336   0.260   1.786   8.422
24365WAT     H173337   0.337   1.850   8.425
24365WAT     H273338   0.209   1.792   8.508
24366WAT      O73339   6.238   0.289   7.821
24366WAT     H173340   6.325   0.254   7.785
24366WAT     H273341   6.258   0.355   7.894
24367WAT      O73342   2.252   2.406   4.873
24367WAT     H173343   2.349   2.426   4.856
24367WAT     H273344   2.213   2.477   4.932
24368WAT      O73345   4.996   9.730   6.335
24368WAT     H173346   5.082   9.693   6.301
24368WAT     H273347   5.010   9.771   6.425
24369WAT      O73348   8.013   6.242   2.492
24369WAT     H173349   7.913   6.243   2.493
24369WAT     H273350   8.047   6.336   2.488
24370WAT      O73351   9.600   1.750   5.951
24370WAT     H173352   9.566   1.684   5.883
24370WAT     H273353   9.594   1.842   5.912
24371WAT      O73354   6.488   7.261   3.732
24371WAT     H173355   6.483   7.237   3.829
24371WAT     H273356   6.501   7.178   3.678
24372WAT      O73357   0.568   5.181   0.480
24372WAT     H173358   0.590   5.268   0.435
24372WAT     H273359   0.649   5.148   0.529
24373WAT      O73360   4.682   6.164   2.654
24373WAT     H173361   4.613   6.114   2.602
24373WAT     H273362   4.746   6.208   2.591
24374WAT      O73363   2.611   6.689   7.955
24374WAT     H173364   2.628   6.597   7.991
24374WAT     H273365   2.679   6.712   7.886
24375WAT      O73366   8.812   9.508   8.684
24375WAT     H173367   8.838   9.576   8.754
24375WAT     H273368   8.861   9.423   8.702
24376WAT      O73369   4.996   6.720   0.182
24376WAT     H173370   5.051   6.637   0.178
24376WAT     H273371   4.918   6.704   0.243
24377WAT      O73372   9.687   2.684   7.592
24377WAT     H173373   9.671   2.755   7.661
24377WAT     H273374   9.613   2.686   7.525
24378WAT      O73375   3.195   8.083   9.590
24378WAT     H173376   3.260   8.106   9.662
24378WAT     H273377   3.211   7.989   9.559
24379WAT      O73378   2.028   7.438   0.018
24379WAT     H173379   2.012   7.342   0.040
24379WAT     H273380   2.126   7.453   0.002
24380WAT      O73381   9.291   0.372   8.914
24380WAT     H173382   9.311   0.289   8.861
24380WAT     H273383   9.208   0.415   8.879
24381WAT      O73384   1.266   3.718   2.015
24381WAT     H173385   1.334   3.698   1.944
24381WAT     H273386   1.229   3.810   2.001
24382WAT      O73387   3.566   3.934   6.328
24382WAT     H173388   3.545   3.992   6.407
24382WAT     H273389   3.550   3.838   6.352
24383WAT      O73390   9.143   2.588   2.365
24383WAT     H173391   9.085   2.547   2.436
24383WAT     H273392   9.229   2.620   2.407
24384WAT      O73393   3.699   1.152   8.765
24384WAT     H173394   3.661   1.144   8.673
24384WAT     H273395   3.799   1.153   8.759
24385WAT      O73396   1.078   5.344   9.191
24385WAT     H173397   1.168   5.336   9.233
24385WAT     H273398   1.023   5.263   9.213
24386WAT      O73399   1.133   3.177   4.325
24386WAT     H173400   1.039   3.147   4.312
24386WAT     H273401   1.134   3.256   4.388
24387WAT      O73402   9.116   7.206   8.703
24387WAT     H173403   9.078   7.266   8.632
24387WAT     H273404   9.147   7.261   8.780
24388WAT      O73405   0.167   5.699   3.249
24388WAT     H173406   0.087   5.747   3.213
24388WAT     H273407   0.140   5.606   3.276
24389WAT      O73408   3.420   4.910   9.360
24389WAT     H173409   3.363   4.992   9.365
24389WAT     H273410   3.384   4.849   9.290
24390WAT      O73411   3.362   4.131   6.244
24390WAT     H173412   3.427   4.057   6.263
24390WAT     H273413   3.377   4.165   6.151
24391WAT      O73414   6.120   7.779   5.557
24391WAT     H173415   6.205   7.818   5.593
24391WAT     H273416   6.123   7.679   5.568
24392WAT      O73417   1.211   8.341   1.929
24392WAT     H173418   1.236   8.317   2.022
24392WAT     H273419   1.196   8.258   1.875
24393WAT      O73420   9.114   6.991   5.255
24393WAT     H173421   9.041   6.923   5.247
24393WAT     H273422   9.075   7.082   5.260
24394WAT      O73423   8.110   5.879   5.467
24394WAT     H173424   8.080   5.836   5.382
24394WAT     H273425   8.081   5.975   5.467
24395WAT      O73426   1.113   5.634   2.686
24395WAT     H173427   1.051   5.598   2.755
24395WAT     H273428   1.155   5.718   2.721
24396WAT      O73429   2.879   4.924   6.317
24396WAT     H173430   2.886   5.022   6.298
24396WAT     H273431   2.846   4.876   6.236
24397WAT      O73432   6.846   6.215   3.152
24397WAT     H173433   6.885   6.126   3.175
24397WAT     H273434   6.876   6.243   3.061
24398WAT      O73435   7.666   8.295   0.268
24398WAT     H173436   7.729   8.314   0.344
24398WAT     H273437   7.573   8.288   0.302
24399WAT      O73438   0.411   0.797   7.181
24399WAT     H173439   0.369   0.832   7.097
24399WAT     H273440   0.429   0.874   7.243
24400WAT      O73441   8.849   7.150   5.249
24400WAT     H173442   8.826   7.078   5.315
24400WAT     H273443   8.766   7.200   5.225
24401WAT      O73444   0.020   8.544   5.938
24401WAT     H173445   0.035   8.596   6.022
24401WAT     H273446   0.067   8.589   5.862
24402WAT      O73447   1.572   2.105   7.191
24402WAT     H173448   1.498   2.142   7.248
24402WAT     H273449   1.600   2.016   7.226
24403WAT      O73450   3.866   4.754   7.615
24403WAT     H173451   3.766   4.765   7.608
24403WAT     H273452   3.906   4.840   7.648
24404WAT      O73453   1.514   1.757   7.089
24404WAT     H173454   1.567   1.738   7.007
24404WAT     H273455   1.442   1.823   7.068
24405WAT      O73456   7.366   8.709   1.205
24405WAT     H173457   7.412   8.795   1.227
24405WAT     H273458   7.272   8.711   1.241
24406WAT      O73459   9.689   9.233   8.949
24406WAT     H173460   9.681   9.276   8.859
24406WAT     H273461   9.756   9.283   9.003
24407WAT      O73462   2.848   9.651   8.408
24407WAT     H173463   2.910   9.582   8.368
24407WAT     H273464   2.784   9.606   8.470
24408WAT      O73465   2.703   2.949   3.410
24408WAT     H173466   2.771   2.880   3.434
24408WAT     H273467   2.732   3.038   3.444
24409WAT      O73468   4.381   0.535   7.787
24409WAT     H173469   4.418   0.512   7.877
24409WAT     H273470   4.371   0.634   7.779
24410WAT      O73471   5.336   0.059   3.698
24410WAT     H173472   5.421   0.053   3.750
24410WAT     H273473   5.354   0.100   3.609
24411WAT      O73474   3.567   7.412   7.604
24411WAT     H173475   3.484   7.458   7.573
24411WAT     H273476   3.587   7.439   7.698
24412WAT      O73477   3.732   7.501   3.181
24412WAT     H173478   3.757   7.587   3.138
24412WAT     H273479   3.698   7.518   3.274
24413WAT      O73480   9.125   1.660   5.630
24413WAT     H173481   9.188   1.685   5.703
24413WAT     H273482   9.090   1.743   5.587
24414WAT      O73483   5.526   2.956   4.499
24414WAT     H173484   5.563   3.035   4.450
24414WAT     H273485   5.467   2.903   4.439
24415WAT      O73486   9.001   2.244   7.235
24415WAT     H173487   8.911   2.204   7.217
24415WAT     H273488   9.072   2.175   7.219
24416WAT      O73489   2.931   9.045   8.008
24416WAT     H173490   2.902   8.975   7.944
24416WAT     H273491   2.914   9.135   7.969
24417WAT      O73492   6.512   3.108   2.306
24417WAT     H173493   6.418   3.107   2.271
24417WAT     H273494   6.557   3.192   2.276
24418WAT      O73495   0.521   1.568   3.655
24418WAT     H173496   0.512   1.598   3.750
24418WAT     H273497   0.455   1.495   3.636
24419WAT      O73498   2.058   4.419   6.557
24419WAT     H173499   2.054   4.320   6.549
24419WAT     H273500   2.153   4.447   6.576
24420WAT      O73501   1.408   3.835   3.956
24420WAT     H173502   1.349   3.855   4.035
24420WAT     H273503   1.452   3.920   3.926
24421WAT      O73504   9.094   4.618   6.982
24421WAT     H173505   9.004   4.575   6.983
24421WAT     H273506   9.095   4.691   6.913
24422WAT      O73507   4.475   8.355   8.624
24422WAT     H173508   4.427   8.292   8.685
24422WAT     H273509   4.541   8.409   8.676
24423WAT      O73510   6.399   0.650   6.522
24423WAT     H173511   6.416   0.570   6.579
24423WAT     H273512   6.424   0.629   6.427
24424WAT      O73513   6.325   6.544   5.382
24424WAT     H173514   6.422   6.528   5.362
24424WAT     H273515   6.295   6.481   5.454
24425WAT      O73516   7.921   0.528   2.869
24425WAT     H173517   7.884   0.588   2.798
24425WAT     H273518   8.003   0.569   2.908
24426WAT      O73519   5.328   2.953   0.673
24426WAT     H173520   5.262   2.986   0.606
24426WAT     H273521   5.308   2.991   0.763
24427WAT      O73522   0.268   1.912   8.077
24427WAT     H173523   0.241   2.009   8.072
24427WAT     H273524   0.261   1.881   8.172
24428WAT      O73525   7.274   2.897   6.694
24428WAT     H173526   7.209   2.839   6.743
24428WAT     H273527   7.330   2.841   6.634
24429WAT      O73528   0.718   8.480   7.010
24429WAT     H173529   0.643   8.544   7.026
24429WAT     H273530   0.790   8.526   6.958
24430WAT      O73531   0.130   3.906   4.078
24430WAT     H173532   0.153   3.857   4.162
24430WAT     H273533   0.032   3.928   4.078
24431WAT      O73534   5.466   3.638   9.401
24431WAT     H173535   5.435   3.729   9.429
24431WAT     H273536   5.564   3.641   9.384
24432WAT      O73537   6.876   3.066   5.564
24432WAT     H173538   6.975   3.073   5.549
24432WAT     H273539   6.847   2.971   5.550
24433WAT      O73540   4.681   1.264   2.966
24433WAT     H173541   4.689   1.363   2.979
24433WAT     H273542   4.769   1.227   2.937
24434WAT      O73543   1.908   1.864   0.942
24434WAT     H173544   1.883   1.892   1.035
24434WAT     H273545   1.851   1.913   0.876
24435WAT      O73546   2.731   4.201   0.276
24435WAT     H173547   2.763   4.200   0.371
24435WAT     H273548   2.648   4.255   0.270
24436WAT      O73549   1.284   4.237   0.673
24436WAT     H173550   1.384   4.248   0.681
24436WAT     H273551   1.261   4.215   0.578
24437WAT      O73552   8.622   8.019   0.870
24437WAT     H173553   8.648   7.980   0.781
24437WAT     H273554   8.548   7.964   0.909
24438WAT      O73555   2.202   8.586   7.808
24438WAT     H173556   2.203   8.682   7.834
24438WAT     H273557   2.171   8.577   7.713
24439WAT      O73558   6.705   0.213   5.536
24439WAT     H173559   6.642   0.291   5.531
24439WAT     H273560   6.773   0.230   5.606
24440WAT      O73561   0.146   4.137   4.995
24440WAT     H173562   0.175   4.231   4.981
24440WAT     H273563   0.206   4.076   4.943
24441WAT      O73564   2.512   8.850   6.703
24441WAT     H173565   2.502   8.911   6.624
24441WAT     H273566   2.456   8.768   6.688
24442WAT      O73567   6.172   0.050   3.013
24442WAT     H173568   6.222  -0.032   2.986
24442WAT     H273569   6.174   0.059   3.113
24443WAT      O73570   2.357   5.463   4.695
24443WAT     H173571   2.342   5.432   4.789
24443WAT     H273572   2.392   5.387   4.639
24444WAT      O73573   5.617   4.385   2.845
24444WAT     H173574   5.616   4.473   2.796
24444WAT     H273575   5.593   4.401   2.941
24445WAT      O73576   8.502   2.079   0.618
24445WAT     H173577   8.569   2.153   0.606
24445WAT     H273578   8.464   2.082   0.710
24446WAT      O73579   6.286   4.665   4.813
24446WAT     H173580   6.294   4.727   4.891
24446WAT     H273581   6.338   4.581   4.832
24447WAT      O73582   0.720   3.645   4.002
24447WAT     H173583   0.790   3.707   4.037
24447WAT     H273584   0.749   3.610   3.913
24448WAT      O73585   3.695   9.801   2.272
24448WAT     H173586   3.647   9.716   2.292
24448WAT     H273587   3.728   9.799   2.177
24449WAT      O73588   0.803   1.733   7.293
24449WAT     H173589   0.710   1.752   7.325
24449WAT     H273590   0.802   1.658   7.227
24450WAT      O73591   0.931   2.977   7.462
24450WAT     H173592   0.994   2.951   7.535
24450WAT     H273593   0.983   3.012   7.384
24451WAT      O73594   1.469   0.111   7.993
24451WAT     H173595   1.407   0.033   7.999
24451WAT     H273596   1.550   0.093   8.049
24452WAT      O73597   8.999   7.025   3.690
24452WAT     H173598   9.031   6.992   3.779
24452WAT     H273599   9.077   7.062   3.639
24453WAT      O73600   2.743   1.418   4.565
24453WAT     H173601   2.644   1.403   4.569
24453WAT     H273602   2.779   1.426   4.658
24454WAT      O73603   5.908   7.507   6.174
24454WAT     H173604   5.913   7.410   6.195
24454WAT     H273605   5.940   7.523   6.080
24455WAT      O73606   7.816   2.914   9.279
24455WAT     H173607   7.808   2.814   9.270
24455WAT     H273608   7.747   2.947   9.342
24456WAT      O73609   5.187   0.541   8.750
24456WAT     H173610   5.223   0.504   8.836
24456WAT     H273611   5.245   0.617   8.719
24457WAT      O73612   3.618   2.114   2.498
24457WAT     H173613   3.539   2.052   2.501
24457WAT     H273614   3.586   2.207   2.481
24458WAT      O73615   7.870   0.395   2.261
24458WAT     H173616   7.950   0.428   2.312
24458WAT     H273617   7.876   0.426   2.166
24459WAT      O73618   9.644   0.991   6.324
24459WAT     H173619   9.597   1.079   6.331
24459WAT     H273620   9.716   0.986   6.393
24460WAT      O73621   9.341   2.843   9.096
24460WAT     H173622   9.283   2.915   9.056
24460WAT     H273623   9.351   2.860   9.194
24461WAT      O73624   4.965   6.971   5.854
24461WAT     H173625   4.958   7.069   5.875
24461WAT     H273626   4.908   6.919   5.918
24462WAT      O73627   1.285   2.583   9.626
24462WAT     H173628   1.205   2.637   9.651
24462WAT     H273629   1.254   2.493   9.593
24463WAT      O73630   2.758   4.217   7.005
24463WAT     H173631   2.676   4.184   7.052
24463WAT     H273632   2.733   4.255   6.917
24464WAT      O73633   4.977   0.360   1.845
24464WAT     H173634   5.060   0.306   1.832
24464WAT     H273635   4.906   0.304   1.888
24465WAT      O73636   4.162   6.951   5.856
24465WAT     H173637   4.238   7.013   5.836
24465WAT     H273638   4.115   6.928   5.771
24466WAT      O73639   2.241   3.966   2.155
24466WAT     H173640   2.226   3.877   2.198
24466WAT     H273641   2.153   4.011   2.140
24467WAT      O73642   9.103   9.575   5.885
24467WAT     H173643   9.138   9.641   5.950
24467WAT     H273644   9.050   9.622   5.814
24468WAT      O73645   2.199   1.265   9.245
24468WAT     H173646   2.279   1.205   9.243
24468WAT     H273647   2.229   1.359   9.260
24469WAT      O73648   0.555   5.606   1.756
24469WAT     H173649   0.607   5.571   1.835
24469WAT     H273650   0.505   5.530   1.713
24470WAT      O73651   1.484   4.250   3.391
24470WAT     H173652   1.416   4.193   3.346
24470WAT     H273653   1.530   4.198   3.463
24471WAT      O73654   0.182   4.055   5.552
24471WAT     H173655   0.174   4.114   5.472
24471WAT     H273656   0.093   4.045   5.596
24472WAT      O73657   3.146   4.594   3.563
24472WAT     H173658   3.054   4.614   3.530
24472WAT     H273659   3.213   4.619   3.493
24473WAT      O73660   2.144   1.903   6.036
24473WAT     H173661   2.072   1.944   6.092
24473WAT     H273662   2.125   1.806   6.023
24474WAT      O73663   0.877   0.091   8.372
24474WAT     H173664   0.808   0.149   8.414
24474WAT     H273665   0.964   0.102   8.420
24475WAT      O73666   7.071   8.311   9.252
24475WAT     H173667   7.135   8.376   9.209
24475WAT     H273668   6.987   8.306   9.198
24476WAT      O73669   8.173   2.612   0.254
24476WAT     H173670   8.267   2.590   0.278
24476WAT     H273671   8.155   2.709   0.272
24477WAT      O73672   2.790   4.289   5.522
24477WAT     H173673   2.887   4.285   5.549
24477WAT     H273674   2.755   4.381   5.539
24478WAT      O73675   9.110   1.232   6.670
24478WAT     H173676   9.192   1.272   6.712
24478WAT     H273677   9.065   1.300   6.613
24479WAT      O73678   0.658   5.732   2.561
24479WAT     H173679   0.687   5.637   2.550
24479WAT     H273680   0.561   5.735   2.586
24480WAT      O73681   2.198   3.630   6.937
24480WAT     H173682   2.261   3.707   6.951
24480WAT     H273683   2.121   3.661   6.881
24481WAT      O73684   2.112   2.639   9.477
24481WAT     H173685   2.039   2.666   9.540
24481WAT     H273686   2.196   2.622   9.529
24482WAT      O73687   2.921   0.178   4.182
24482WAT     H173688   2.867   0.102   4.147
24482WAT     H273689   2.966   0.225   4.106
24483WAT      O73690   6.828   1.648   5.668
24483WAT     H173691   6.751   1.599   5.626
24483WAT     H273692   6.829   1.742   5.635
24484WAT      O73693   2.816   6.596   5.895
24484WAT     H173694   2.802   6.538   5.975
24484WAT     H273695   2.878   6.550   5.831
24485WAT      O73696   5.655   5.270   4.275
24485WAT     H173697   5.595   5.214   4.331
24485WAT     H273698   5.601   5.338   4.225
24486WAT      O73699   5.197   8.278   8.926
24486WAT     H173700   5.211   8.230   8.840
24486WAT     H273701   5.213   8.216   9.003
24487WAT      O73702   3.779   7.868   0.687
24487WAT     H173703   3.815   7.948   0.736
24487WAT     H273704   3.699   7.833   0.734
24488WAT      O73705   9.672   5.642   3.660
24488WAT     H173706   9.574   5.652   3.673
24488WAT     H273707   9.716   5.625   3.748
24489WAT      O73708   6.283   6.723   6.907
24489WAT     H173709   6.378   6.743   6.883
24489WAT     H273710   6.222   6.772   6.846
24490WAT      O73711   1.748   2.997   7.076
24490WAT     H173712   1.815   3.028   7.144
24490WAT     H273713   1.668   3.057   7.079
24491WAT      O73714   6.842   6.876   4.878
24491WAT     H173715   6.862   6.878   4.781
24491WAT     H273716   6.882   6.956   4.922
24492WAT      O73717   0.052   5.986   7.302
24492WAT     H173718   0.011   6.073   7.331
24492WAT     H273719  -0.003   5.945   7.230
24493WAT      O73720   4.467   5.662   7.975
24493WAT     H173721   4.533   5.625   7.909
24493WAT     H273722   4.501   5.645   8.067
24494WAT      O73723   1.447   1.903   3.516
24494WAT     H173724   1.490   1.824   3.561
24494WAT     H273725   1.517   1.971   3.496
24495WAT      O73726   6.937   1.080   7.415
24495WAT     H173727   6.920   1.168   7.370
24495WAT     H273728   6.927   1.007   7.347
24496WAT      O73729   3.298   1.453   0.345
24496WAT     H173730   3.270   1.425   0.437
24496WAT     H273731   3.316   1.373   0.289
24497WAT      O73732   2.530   9.042   9.013
24497WAT     H173733   2.620   9.003   8.992
24497WAT     H273734   2.542   9.135   9.048
24498WAT      O73735   9.343   6.424   1.083
24498WAT     H173736   9.422   6.423   1.143
24498WAT     H273737   9.350   6.348   1.017
24499WAT      O73738   6.544   1.045   8.143
24499WAT     H173739   6.586   0.988   8.072
24499WAT     H273740   6.574   1.140   8.132
24500WAT      O73741   0.515   7.633   4.909
24500WAT     H173742   0.435   7.617   4.852
24500WAT     H273743   0.580   7.558   4.898
24501WAT      O73744   7.289   6.758   7.608
24501WAT     H173745   7.234   6.678   7.582
24501WAT     H273746   7.263   6.836   7.551
24502WAT      O73747   7.533   5.494   7.033
24502WAT     H173748   7.597   5.555   7.081
24502WAT     H273749   7.572   5.468   6.944
24503WAT      O73750   2.411   6.359   7.967
24503WAT     H173751   2.489   6.372   8.028
24503WAT     H273752   2.366   6.447   7.952
24504WAT      O73753   2.885   3.951   3.116
24504WAT     H173754   2.865   4.032   3.061
24504WAT     H273755   2.941   3.888   3.063
24505WAT      O73756   1.632   7.360   6.199
24505WAT     H173757   1.554   7.361   6.137
24505WAT     H273758   1.623   7.435   6.265
24506WAT      O73759   2.459   2.877   2.901
24506WAT     H173760   2.411   2.806   2.850
24506WAT     H273761   2.518   2.836   2.970
24507WAT      O73762   7.106   0.817   4.331
24507WAT     H173763   7.087   0.742   4.394
24507WAT     H273764   7.204   0.823   4.314
24508WAT      O73765   5.310   5.345   2.218
24508WAT     H173766   5.308   5.297   2.130
24508WAT     H273767   5.249   5.299   2.283
24509WAT      O73768   5.490   2.061   1.144
24509WAT     H173769   5.482   1.988   1.212
24509WAT     H273770   5.570   2.045   1.087
24510WAT      O73771   9.370   2.117   4.133
24510WAT     H173772   9.399   2.213   4.137
24510WAT     H273773   9.369   2.087   4.037
24511WAT      O73774   9.685   6.843   3.690
24511WAT     H173775   9.640   6.929   3.665
24511WAT     H273776   9.642   6.767   3.641
24512WAT      O73777   5.458   8.929   3.951
24512WAT     H173778   5.482   8.853   4.011
24512WAT     H273779   5.362   8.921   3.924
24513WAT      O73780   0.498   5.019   0.715
24513WAT     H173781   0.531   5.018   0.809
24513WAT     H273782   0.528   5.104   0.670
24514WAT      O73783   9.381   6.102   7.096
24514WAT     H173784   9.328   6.037   7.150
24514WAT     H273785   9.478   6.087   7.112
24515WAT      O73786   0.948   6.232   6.406
24515WAT     H173787   0.866   6.254   6.458
24515WAT     H273788   1.029   6.246   6.464
24516WAT      O73789   7.854   2.874   2.814
24516WAT     H173790   7.949   2.872   2.782
24516WAT     H273791   7.834   2.963   2.853
24517WAT      O73792   0.262   1.767   1.755
24517WAT     H173793   0.295   1.853   1.795
24517WAT     H273794   0.339   1.705   1.743
24518WAT      O73795   3.730   5.611   5.183
24518WAT     H173796   3.729   5.531   5.124
24518WAT     H273797   3.815   5.612   5.236
24519WAT      O73798   4.221   9.664   0.590
24519WAT     H173799   4.218   9.567   0.563
24519WAT     H273800   4.172   9.676   0.676
24520WAT      O73801   3.911   3.653   6.061
24520WAT     H173802   3.904   3.657   5.961
24520WAT     H273803   3.862   3.730   6.101
24521WAT      O73804   1.784   5.079   0.721
24521WAT     H173805   1.809   5.121   0.808
24521WAT     H273806   1.710   5.131   0.679
24522WAT      O73807   4.093   8.039   5.132
24522WAT     H173808   4.042   8.091   5.200
24522WAT     H273809   4.165   8.097   5.093
24523WAT      O73810   8.584   7.931   4.262
24523WAT     H173811   8.514   8.000   4.282
24523WAT     H273812   8.634   7.957   4.180
24524WAT      O73813   6.335   5.944   5.302
24524WAT     H173814   6.396   5.947   5.222
24524WAT     H273815   6.315   6.037   5.333
24525WAT      O73816   4.669   5.740   0.689
24525WAT     H173817   4.633   5.651   0.661
24525WAT     H273818   4.601   5.786   0.747
24526WAT      O73819   4.790   5.820   9.748
24526WAT     H173820   4.832   5.908   9.770
24526WAT     H273821   4.786   5.808   9.649
24527WAT      O73822   7.351   5.157   2.825
24527WAT     H173823   7.285   5.230   2.811
24527WAT     H273824   7.440   5.197   2.848
24528WAT      O73825   0.970   0.193   7.522
24528WAT     H173826   0.957   0.102   7.483
24528WAT     H273827   1.068   0.210   7.537
24529WAT      O73828   3.967   3.941   9.013
24529WAT     H173829   4.014   3.936   9.100
24529WAT     H273830   3.890   4.004   9.020
24530WAT      O73831   6.099   9.513   0.313
24530WAT     H173832   6.110   9.588   0.248
24530WAT     H273833   6.157   9.529   0.393
24531WAT      O73834   6.920   2.833   0.568
24531WAT     H173835   7.015   2.853   0.542
24531WAT     H273836   6.860   2.851   0.490
24532WAT      O73837   4.713   6.209   5.985
24532WAT     H173838   4.801   6.220   6.030
24532WAT     H273839   4.700   6.114   5.958
24533WAT      O73840   0.597   3.588   8.505
24533WAT     H173841   0.578   3.638   8.590
24533WAT     H273842   0.659   3.643   8.448
24534WAT      O73843   4.307   3.855   3.854
24534WAT     H173844   4.229   3.877   3.796
24534WAT     H273845   4.376   3.927   3.845
24535WAT      O73846   1.080   7.120   2.021
24535WAT     H173847   1.109   7.130   1.926
24535WAT     H273848   1.100   7.205   2.071
24536WAT      O73849   2.014   8.382   9.272
24536WAT     H173850   2.098   8.431   9.250
24536WAT     H273851   1.979   8.338   9.190
24537WAT      O73852   5.771   4.185   7.986
24537WAT     H173853   5.832   4.168   8.064
24537WAT     H273854   5.819   4.238   7.917
24538WAT      O73855   2.719   5.482   0.007
24538WAT     H173856   2.815   5.465   0.028
24538WAT     H273857   2.667   5.488   0.092
24539WAT      O73858   9.117   0.612   7.792
24539WAT     H173859   9.104   0.619   7.693
24539WAT     H273860   9.029   0.622   7.838
24540WAT      O73861   3.840   5.869   7.976
24540WAT     H173862   3.842   5.883   8.075
24540WAT     H273863   3.832   5.958   7.930
24541WAT      O73864   8.749   6.858   8.404
24541WAT     H173865   8.691   6.861   8.485
24541WAT     H273866   8.791   6.768   8.396
24542WAT      O73867   0.413   9.537   9.188
24542WAT     H173868   0.342   9.528   9.257
24542WAT     H273869   0.427   9.634   9.167
24543WAT      O73870   2.987   1.946   7.710
24543WAT     H173871   3.034   1.879   7.652
24543WAT     H273872   2.914   1.900   7.761
24544WAT      O73873   5.489   1.998   5.359
24544WAT     H173874   5.431   2.079   5.359
24544WAT     H273875   5.564   2.011   5.294
24545WAT      O73876   3.408   0.476   7.583
24545WAT     H173877   3.372   0.501   7.673
24545WAT     H273878   3.451   0.556   7.541
24546WAT      O73879   0.615   6.750   8.889
24546WAT     H173880   0.703   6.769   8.931
24546WAT     H273881   0.629   6.720   8.794
24547WAT      O73882   4.566   8.037   6.928
24547WAT     H173883   4.532   8.102   6.860
24547WAT     H273884   4.631   8.083   6.989
24548WAT      O73885   6.925   0.352   1.130
24548WAT     H173886   6.968   0.329   1.042
24548WAT     H273887   6.934   0.274   1.192
24549WAT      O73888   3.623   2.732   7.114
24549WAT     H173889   3.675   2.652   7.143
24549WAT     H273890   3.599   2.787   7.194
24550WAT      O73891   7.276   2.234   1.887
24550WAT     H173892   7.295   2.270   1.796
24550WAT     H273893   7.362   2.218   1.936
24551WAT      O73894   4.535   2.246   7.852
24551WAT     H173895   4.491   2.250   7.763
24551WAT     H273896   4.621   2.298   7.849
24552WAT      O73897   1.587   3.306   8.447
24552WAT     H173898   1.542   3.335   8.531
24552WAT     H273899   1.686   3.300   8.462
24553WAT      O73900   8.809   3.433   9.715
24553WAT     H173901   8.900   3.444   9.755
24553WAT     H273902   8.776   3.522   9.684
24554WAT      O73903   3.956   1.351   4.882
24554WAT     H173904   4.023   1.422   4.860
24554WAT     H273905   3.900   1.331   4.802
24555WAT      O73906   1.904   0.217   0.058
24555WAT     H173907   1.813   0.239   0.094
24555WAT     H273908   1.971   0.221   0.133
24556WAT      O73909   5.512   6.097   4.792
24556WAT     H173910   5.436   6.134   4.739
24556WAT     H273911   5.480   6.021   4.848
24557WAT      O73912   9.757   0.245   3.014
24557WAT     H173913   9.677   0.209   2.967
24557WAT     H273914   9.729   0.320   3.075
24558WAT      O73915   4.245   1.134   2.103
24558WAT     H173916   4.205   1.208   2.157
24558WAT     H273917   4.335   1.164   2.069
24559WAT      O73918   1.449   1.323   0.340
24559WAT     H173919   1.488   1.236   0.310
24559WAT     H273920   1.352   1.311   0.361
24560WAT      O73921   6.254   8.056   9.110
24560WAT     H173922   6.237   7.958   9.111
24560WAT     H273923   6.166   8.105   9.110
24561WAT      O73924   9.396   2.171   8.020
24561WAT     H173925   9.484   2.137   7.987
24561WAT     H273926   9.405   2.203   8.114
24562WAT      O73927   8.486   8.175   0.357
24562WAT     H173928   8.575   8.181   0.403
24562WAT     H273929   8.481   8.089   0.306
24563WAT      O73930   5.260   8.258   1.030
24563WAT     H173931   5.202   8.176   1.026
24563WAT     H273932   5.355   8.232   1.015
24564WAT      O73933   5.968   3.038   8.216
24564WAT     H173934   5.873   3.031   8.185
24564WAT     H273935   5.989   3.133   8.236
24565WAT      O73936   4.559   5.270   6.804
24565WAT     H173937   4.566   5.311   6.713
24565WAT     H273938   4.532   5.340   6.870
24566WAT      O73939   8.328   9.000   7.940
24566WAT     H173940   8.285   9.000   8.031
24566WAT     H273941   8.344   9.094   7.911
24567WAT      O73942   5.828   9.735   3.961
24567WAT     H173943   5.785   9.668   4.021
24567WAT     H273944   5.880   9.801   4.015
24568WAT      O73945   0.338   0.264   6.231
24568WAT     H173946   0.362   0.172   6.202
24568WAT     H273947   0.297   0.314   6.155
24569WAT      O73948   1.461   3.172   4.872
24569WAT     H173949   1.492   3.236   4.943
24569WAT     H273950   1.461   3.218   4.784
24570WAT      O73951   3.230   6.165   9.288
24570WAT     H173952   3.209   6.101   9.362
24570WAT     H273953   3.324   6.197   9.297
24571WAT      O73954   4.190   3.869   3.186
24571WAT     H173955   4.269   3.915   3.226
24571WAT     H273956   4.159   3.920   3.106
24572WAT      O73957   3.342   4.039   8.405
24572WAT     H173958   3.255   4.080   8.378
24572WAT     H273959   3.406   4.043   8.328
24573WAT      O73960   6.648   5.378   5.545
24573WAT     H173961   6.629   5.329   5.630
24573WAT     H273962   6.579   5.449   5.531
24574WAT      O73963   6.803   7.605   9.023
24574WAT     H173964   6.816   7.527   9.084
24574WAT     H273965   6.720   7.654   9.049
24575WAT      O73966   1.838   7.413   3.963
24575WAT     H173967   1.862   7.483   3.895
24575WAT     H273968   1.921   7.376   4.004
24576WAT      O73969   9.227   0.319   3.141
24576WAT     H173970   9.269   0.314   3.051
24576WAT     H273971   9.298   0.328   3.211
24577WAT      O73972   5.143   2.217   5.780
24577WAT     H173973   5.089   2.140   5.814
24577WAT     H273974   5.192   2.259   5.856
24578WAT      O73975   7.860   8.533   9.689
24578WAT     H173976   7.868   8.485   9.602
24578WAT     H273977   7.859   8.467   9.764
24579WAT      O73978   8.649   5.299   2.265
24579WAT     H173979   8.741   5.310   2.301
24579WAT     H273980   8.649   5.227   2.195
24580WAT      O73981   2.563   2.412   4.381
24580WAT     H173982   2.555   2.317   4.408
24580WAT     H273983   2.598   2.418   4.288
24581WAT      O73984   7.374   4.965   9.333
24581WAT     H173985   7.302   4.905   9.300
24581WAT     H273986   7.430   4.995   9.257
24582WAT      O73987   5.734   3.268   9.077
24582WAT     H173988   5.752   3.299   8.984
24582WAT     H273989   5.764   3.173   9.087
24583WAT      O73990   6.708   0.493   8.462
24583WAT     H173991   6.630   0.526   8.408
24583WAT     H273992   6.766   0.436   8.404
24584WAT      O73993   0.995   8.919   7.535
24584WAT     H173994   1.001   8.987   7.462
24584WAT     H273995   0.957   8.962   7.617
24585WAT      O73996   5.574   6.915   7.034
24585WAT     H173997   5.669   6.945   7.026
24585WAT     H273998   5.537   6.943   7.122
24586WAT      O73999   5.579   1.695   9.178
24586WAT     H174000   5.605   1.604   9.144
24586WAT     H274001   5.585   1.761   9.103
24587WAT      O74002   2.306   8.338   3.543
24587WAT     H174003   2.294   8.299   3.634
24587WAT     H274004   2.391   8.389   3.540
24588WAT      O74005   5.857   3.779   4.485
24588WAT     H174006   5.922   3.708   4.510
24588WAT     H274007   5.899   3.869   4.501
24589WAT      O74008   5.982   6.578   6.643
24589WAT     H174009   6.074   6.571   6.605
24589WAT     H274010   5.916   6.588   6.568
24590WAT      O74011   7.343   6.188   2.929
24590WAT     H174012   7.302   6.220   2.844
24590WAT     H274013   7.330   6.089   2.937
24591WAT      O74014   4.315   4.711   3.050
24591WAT     H174015   4.234   4.726   3.107
24591WAT     H274016   4.324   4.613   3.031
24592WAT      O74017   9.190   3.940   2.785
24592WAT     H174018   9.290   3.938   2.781
24592WAT     H274019   9.154   3.972   2.697
24593WAT      O74020   1.085   4.932   5.810
24593WAT     H174021   1.068   4.835   5.830
24593WAT     H274022   1.007   4.987   5.841
24594WAT      O74023   6.652   0.381   0.026
24594WAT     H174024   6.675   0.290   0.062
24594WAT     H274025   6.565   0.411   0.065
24595WAT      O74026   5.122   1.991   5.559
24595WAT     H174027   5.129   2.089   5.542
24595WAT     H274028   5.135   1.941   5.473
24596WAT      O74029   7.847   2.754   9.024
24596WAT     H174030   7.801   2.735   8.937
24596WAT     H274031   7.790   2.722   9.100
24597WAT      O74032   3.035   3.440   6.182
24597WAT     H174033   2.999   3.503   6.113
24597WAT     H274034   3.114   3.391   6.145
24598WAT      O74035   2.472   6.435   5.934
24598WAT     H174036   2.426   6.522   5.917
24598WAT     H274037   2.466   6.378   5.852
24599WAT      O74038   5.527   0.932   1.260
24599WAT     H174039   5.581   0.915   1.178
24599WAT     H274040   5.499   1.028   1.262
24600WAT      O74041   0.982   1.128   8.542
24600WAT     H174042   1.025   1.214   8.568
24600WAT     H274043   1.052   1.056   8.541
24601WAT      O74044   7.053   9.137   4.178
24601WAT     H174045   7.111   9.082   4.117
24601WAT     H274046   6.976   9.081   4.209
24602WAT      O74047   4.316   4.664   6.044
24602WAT     H174048   4.269   4.752   6.054
24602WAT     H274049   4.385   4.672   5.972
24603WAT      O74050   4.150   5.276   9.664
24603WAT     H174051   4.195   5.325   9.590
24603WAT     H274052   4.060   5.244   9.633
24604WAT      O74053   6.767   6.674   6.266
24604WAT     H174054   6.674   6.654   6.296
24604WAT     H274055   6.808   6.743   6.327
24605WAT      O74056   2.876   6.055   4.161
24605WAT     H174057   2.945   6.111   4.206
24605WAT     H274058   2.919   5.973   4.124
24606WAT      O74059   0.466   0.197   8.176
24606WAT     H174060   0.484   0.215   8.079
24606WAT     H274061   0.379   0.238   8.202
24607WAT      O74062   2.896   0.205   7.474
24607WAT     H174063   2.814   0.159   7.441
24607WAT     H274064   2.871   0.268   7.549
24608WAT      O74065   2.447   2.536   9.262
24608WAT     H174066   2.436   2.534   9.361
24608WAT     H274067   2.439   2.630   9.229
24609WAT      O74068   9.091   0.688   1.148
24609WAT     H174069   9.009   0.639   1.121
24609WAT     H274070   9.131   0.643   1.228
24610WAT      O74071   2.577   2.094   1.866
24610WAT     H174072   2.589   2.091   1.965
24610WAT     H274073   2.487   2.132   1.844
24611WAT      O74074   7.145   3.693   8.524
24611WAT     H174075   7.238   3.669   8.498
24611WAT     H274076   7.106   3.620   8.580
24612WAT      O74077   5.639   8.694   3.503
24612WAT     H174078   5.622   8.665   3.409
24612WAT     H274079   5.556   8.733   3.542
24613WAT      O74080   8.939   4.109   2.263
24613WAT     H174081   8.889   4.146   2.341
24613WAT     H274082   8.892   4.027   2.229
24614WAT      O74083   0.937   8.364   3.884
24614WAT     H174084   1.031   8.352   3.854
24614WAT     H274085   0.885   8.281   3.865
24615WAT      O74086   5.711   2.407   3.102
24615WAT     H174087   5.772   2.485   3.087
24615WAT     H274088   5.762   2.322   3.089
24616WAT      O74089   1.635   1.352   9.246
24616WAT     H174090   1.581   1.371   9.328
24616WAT     H274091   1.658   1.438   9.200
24617WAT      O74092   1.828   7.600   8.605
24617WAT     H174093   1.799   7.682   8.656
24617WAT     H274094   1.796   7.519   8.653
24618WAT      O74095   2.607   4.288   3.678
24618WAT     H174096   2.566   4.212   3.729
24618WAT     H274097   2.671   4.337   3.737
24619WAT      O74098   9.541   3.481   2.427
24619WAT     H174099   9.603   3.438   2.492
24619WAT     H274100   9.556   3.580   2.427
24620WAT      O74101   4.978   6.220   6.487
24620WAT     H174102   4.890   6.248   6.524
24620WAT     H274103   4.981   6.241   6.389
24621WAT      O74104   1.240   1.788   6.041
24621WAT     H174105   1.277   1.846   5.969
24621WAT     H274106   1.151   1.752   6.013
24622WAT      O74107   7.702   2.824   2.603
24622WAT     H174108   7.618   2.877   2.591
24622WAT     H274109   7.753   2.860   2.681
24623WAT      O74110   6.076   9.379   3.582
24623WAT     H174111   6.139   9.371   3.659
24623WAT     H274112   6.050   9.288   3.550
24624WAT      O74113   8.785   4.527   0.327
24624WAT     H174114   8.712   4.461   0.346
24624WAT     H274115   8.746   4.611   0.289
24625WAT      O74116   2.335   2.309   5.249
24625WAT     H174117   2.264   2.379   5.240
24625WAT     H274118   2.331   2.247   5.171
24626WAT      O74119   6.863   3.484   2.385
24626WAT     H174120   6.919   3.402   2.380
24626WAT     H274121   6.891   3.539   2.464
24627WAT      O74122   7.418   9.599   7.745
24627WAT     H174123   7.512   9.627   7.729
24627WAT     H274124   7.390   9.532   7.676
24628WAT      O74125   7.238   3.701   0.543
24628WAT     H174126   7.216   3.696   0.640
24628WAT     H274127   7.153   3.698   0.490
24629WAT      O74128   6.034   1.752   8.517
24629WAT     H174129   6.085   1.732   8.601
24629WAT     H274130   5.968   1.825   8.536
24630WAT      O74131   2.648   4.204   3.429
24630WAT     H174132   2.640   4.109   3.459
24630WAT     H274133   2.666   4.262   3.509
24631WAT      O74134   8.345   5.256   9.722
24631WAT     H174135   8.264   5.277   9.667
24631WAT     H274136   8.403   5.192   9.672
24632WAT      O74137   9.259   0.845   7.867
24632WAT     H174138   9.233   0.757   7.828
24632WAT     H274139   9.207   0.860   7.952
24633WAT      O74140   2.828   2.561   5.997
24633WAT     H174141   2.818   2.505   5.915
24633WAT     H274142   2.894   2.634   5.980
24634WAT      O74143   5.678   0.888   1.028
24634WAT     H174144   5.614   0.856   0.959
24634WAT     H274145   5.688   0.988   1.021
24635WAT      O74146   4.775   5.112   6.820
24635WAT     H174147   4.700   5.176   6.831
24635WAT     H274148   4.740   5.023   6.790
24636WAT      O74149   9.765   6.426   1.293
24636WAT     H174150   9.739   6.425   1.196
24636WAT     H274151   9.714   6.498   1.340
24637WAT      O74152   1.196   4.565   7.647
24637WAT     H174153   1.113   4.600   7.691
24637WAT     H274154   1.269   4.558   7.714
24638WAT      O74155   5.913   8.519   7.689
24638WAT     H174156   5.890   8.482   7.779
24638WAT     H274157   5.860   8.603   7.674
24639WAT      O74158   1.719   1.498   8.250
24639WAT     H174159   1.730   1.424   8.184
24639WAT     H274160   1.809   1.530   8.279
24640WAT      O74161   2.534   8.670   6.156
24640WAT     H174162   2.622   8.670   6.108
24640WAT     H274163   2.475   8.743   6.118
24641WAT      O74164   5.752   0.451   7.188
24641WAT     H174165   5.808   0.398   7.124
24641WAT     H274166   5.800   0.536   7.211
24642WAT      O74167   8.977   0.474   4.294
24642WAT     H174168   9.009   0.386   4.257
24642WAT     H274169   9.054   0.538   4.298
24643WAT      O74170   9.280   6.023   6.149
24643WAT     H174171   9.243   6.110   6.179
24643WAT     H274172   9.331   5.981   6.225
24644WAT      O74173   8.399   8.365   5.214
24644WAT     H174174   8.357   8.275   5.225
24644WAT     H274175   8.411   8.385   5.117
24645WAT      O74176   4.333   7.533   0.873
24645WAT     H174177   4.338   7.506   0.970
24645WAT     H274178   4.372   7.625   0.863
24646WAT      O74179   3.036   1.688   0.934
24646WAT     H174180   3.042   1.734   0.846
24646WAT     H274181   3.009   1.592   0.919
24647WAT      O74182   7.459   5.025   2.398
24647WAT     H174183   7.443   4.930   2.426
24647WAT     H274184   7.540   5.029   2.339
24648WAT      O74185   0.686   1.907   6.737
24648WAT     H174186   0.622   1.833   6.753
24648WAT     H274187   0.757   1.907   6.807
24649WAT      O74188   0.639   5.631   7.426
24649WAT     H174189   0.697   5.558   7.461
24649WAT     H274190   0.546   5.597   7.413
24650WAT      O74191   4.380   2.276   9.124
24650WAT     H174192   4.305   2.326   9.169
24650WAT     H274193   4.344   2.192   9.085
24651WAT      O74194   9.699   1.792   8.676
24651WAT     H174195   9.684   1.795   8.577
24651WAT     H274196   9.731   1.881   8.708
24652WAT      O74197   2.261   6.753   5.302
24652WAT     H174198   2.178   6.764   5.248
24652WAT     H274199   2.283   6.839   5.348
24653WAT      O74200   7.127   3.483   5.653
24653WAT     H174201   7.060   3.426   5.605
24653WAT     H274202   7.080   3.541   5.719
24654WAT      O74203   3.936   4.014   4.011
24654WAT     H174204   4.031   4.043   4.000
24654WAT     H274205   3.904   4.039   4.103
24655WAT      O74206   4.851   3.306   1.269
24655WAT     H174207   4.890   3.385   1.317
24655WAT     H274208   4.835   3.329   1.173
24656WAT      O74209   2.043   2.774   0.510
24656WAT     H174210   1.958   2.786   0.459
24656WAT     H274211   2.054   2.678   0.534
24657WAT      O74212   1.666   9.640   1.533
24657WAT     H174213   1.686   9.611   1.440
24657WAT     H274214   1.653   9.560   1.591
24658WAT      O74215   7.842   8.793   1.608
24658WAT     H174216   7.757   8.815   1.559
24658WAT     H274217   7.910   8.864   1.590
24659WAT      O74218   7.327   4.314   9.583
24659WAT     H174219   7.294   4.294   9.675
24659WAT     H274220   7.382   4.398   9.585
24660WAT      O74221   5.003   7.031   3.702
24660WAT     H174222   5.018   6.959   3.770
24660WAT     H274223   4.907   7.032   3.675
24661WAT      O74224   9.569   6.797   7.248
24661WAT     H174225   9.663   6.789   7.283
24661WAT     H274226   9.563   6.751   7.160
24662WAT      O74227   9.542   2.012   5.252
24662WAT     H174228   9.624   2.040   5.302
24662WAT     H274229   9.564   2.000   5.155
24663WAT      O74230   2.810   5.652   4.267
24663WAT     H174231   2.717   5.623   4.241
24663WAT     H274232   2.871   5.640   4.188
24664WAT      O74233   1.243   0.177   3.551
24664WAT     H174234   1.303   0.212   3.624
24664WAT     H274235   1.148   0.198   3.573
24665WAT      O74236   7.859   2.126   8.614
24665WAT     H174237   7.771   2.120   8.567
24665WAT     H274238   7.848   2.174   8.700
24666WAT      O74239   8.368   2.560   6.097
24666WAT     H174240   8.459   2.597   6.114
24666WAT     H274241   8.360   2.470   6.141
24667WAT      O74242   5.374   8.438   2.048
24667WAT     H174243   5.398   8.534   2.036
24667WAT     H274244   5.275   8.426   2.037
24668WAT      O74245   5.202   6.124   6.625
24668WAT     H174246   5.182   6.128   6.723
24668WAT     H274247   5.134   6.177   6.575
24669WAT      O74248   3.225   2.986   5.475
24669WAT     H174249   3.139   2.998   5.426
24669WAT     H274250   3.274   2.907   5.438
24670WAT      O74251   8.886   6.255   3.498
24670WAT     H174252   8.839   6.285   3.581
24670WAT     H274253   8.872   6.323   3.426
24671WAT      O74254   7.704   2.134   4.771
24671WAT     H174255   7.788   2.154   4.821
24671WAT     H274256   7.680   2.037   4.782
24672WAT      O74257   1.646   7.282   5.259
24672WAT     H174258   1.634   7.186   5.235
24672WAT     H274259   1.613   7.298   5.352
24673WAT      O74260   2.101   0.224   0.251
24673WAT     H174261   2.043   0.160   0.303
24673WAT     H274262   2.151   0.282   0.315
24674WAT      O74263   4.765   6.919   3.960
24674WAT     H174264   4.750   6.845   3.895
24674WAT     H274265   4.775   6.880   4.052
24675WAT      O74266   7.065   8.593   9.890
24675WAT     H174267   7.106   8.684   9.900
24675WAT     H274268   7.082   8.559   9.798
24676WAT      O74269   6.669   2.392   4.804
24676WAT     H174270   6.766   2.410   4.787
24676WAT     H274271   6.614   2.444   4.737
24677WAT      O74272   6.138   5.662   6.122
24677WAT     H174273   6.152   5.753   6.159
24677WAT     H274274   6.156   5.594   6.193
24678WAT      O74275   0.486   0.940   8.307
24678WAT     H174276   0.543   0.911   8.231
24678WAT     H274277   0.495   1.039   8.320
24679WAT      O74278   6.328   4.160   4.506
24679WAT     H174279   6.284   4.075   4.479
24679WAT     H274280   6.316   4.229   4.434
24680WAT      O74281   5.956   0.396   9.504
24680WAT     H174282   6.042   0.358   9.538
24680WAT     H274283   5.918   0.457   9.574
24681WAT      O74284   4.272   2.241   4.011
24681WAT     H174285   4.245   2.337   4.020
24681WAT     H274286   4.366   2.237   3.977
24682WAT      O74287   3.717   2.658   2.207
24682WAT     H174288   3.727   2.560   2.221
24682WAT     H274289   3.652   2.675   2.133
24683WAT      O74290   4.073   3.537   8.531
24683WAT     H174291   3.994   3.590   8.502
24683WAT     H274292   4.149   3.598   8.552
24684WAT      O74293   8.407   7.286   8.694
24684WAT     H174294   8.500   7.320   8.708
24684WAT     H274295   8.350   7.311   8.773
24685WAT      O74296   2.912   4.301   8.171
24685WAT     H174297   2.873   4.261   8.254
24685WAT     H274298   2.851   4.285   8.094
24686WAT      O74299   9.571   8.718   1.147
24686WAT     H174300   9.644   8.652   1.130
24686WAT     H274301   9.523   8.695   1.231
24687WAT      O74302   2.351   3.316   7.371
24687WAT     H174303   2.281   3.285   7.306
24687WAT     H274304   2.312   3.318   7.463
24688WAT      O74305   2.220   9.345   0.511
24688WAT     H174306   2.195   9.359   0.415
24688WAT     H274307   2.227   9.434   0.557
24689WAT      O74308   7.344   5.850   3.665
24689WAT     H174309   7.247   5.826   3.669
24689WAT     H274310   7.372   5.888   3.753
24690WAT      O74311   7.351   7.177   9.277
24690WAT     H174312   7.449   7.169   9.290
24690WAT     H274313   7.309   7.087   9.279
24691WAT      O74314   3.849   7.475   8.857
24691WAT     H174315   3.913   7.492   8.782
24691WAT     H274316   3.756   7.490   8.825
24692WAT      O74317   7.640   4.394   0.030
24692WAT     H174318   7.659   4.459   0.104
24692WAT     H274319   7.567   4.332   0.058
24693WAT      O74320   5.408   6.735   5.000
24693WAT     H174321   5.402   6.795   4.920
24693WAT     H274322   5.418   6.640   4.970
24694WAT      O74323   1.477   0.231   4.748
24694WAT     H174324   1.549   0.256   4.684
24694WAT     H274325   1.412   0.307   4.756
24695WAT      O74326   3.837   7.784   1.199
24695WAT     H174327   3.925   7.786   1.247
24695WAT     H274328   3.829   7.864   1.140
24696WAT      O74329   7.799   6.807   5.623
24696WAT     H174330   7.783   6.832   5.527
24696WAT     H274331   7.713   6.811   5.673
24697WAT      O74332   6.984   9.786   5.897
24697WAT     H174333   6.948   9.857   5.836
24697WAT     H274334   6.950   9.697   5.869
24698WAT      O74335   6.998   1.621   9.871
24698WAT     H174336   7.095   1.600   9.859
24698WAT     H274337   6.986   1.680   9.951
24699WAT      O74338   8.617   9.383   4.004
24699WAT     H174339   8.613   9.395   3.904
24699WAT     H274340   8.689   9.317   4.026
24700WAT      O74341   7.713   6.098   0.835
24700WAT     H174342   7.629   6.063   0.876
24700WAT     H274343   7.751   6.030   0.773
24701WAT      O74344   3.852   7.823   3.823
24701WAT     H174345   3.847   7.729   3.856
24701WAT     H274346   3.947   7.848   3.806
24702WAT      O74347   7.781   3.277   8.668
24702WAT     H174348   7.713   3.281   8.741
24702WAT     H274349   7.754   3.209   8.601
24703WAT      O74350   6.219   0.481   9.557
24703WAT     H174351   6.176   0.546   9.495
24703WAT     H274352   6.171   0.481   9.645
24704WAT      O74353   2.460   0.707   1.116
24704WAT     H174354   2.364   0.681   1.108
24704WAT     H274355   2.500   0.715   1.025
24705WAT      O74356   4.073   0.123   4.189
24705WAT     H174357   4.067   0.071   4.104
24705WAT     H274358   3.981   0.135   4.227
24706WAT      O74359   4.504   3.850   9.443
24706WAT     H174360   4.492   3.809   9.534
24706WAT     H274361   4.431   3.820   9.383
24707WAT      O74362   9.017   6.662   2.801
24707WAT     H174363   9.111   6.672   2.833
24707WAT     H274364   8.972   6.590   2.852
24708WAT      O74365   3.992   6.968   8.364
24708WAT     H174366   3.966   7.032   8.436
24708WAT     H274367   4.075   7.000   8.318
24709WAT      O74368   6.977   6.278   5.671
24709WAT     H174369   7.074   6.265   5.693
24709WAT     H274370   6.921   6.217   5.728
24710WAT      O74371   7.071   0.274   5.313
24710WAT     H174372   6.977   0.241   5.306
24710WAT     H274373   7.104   0.260   5.406
24711WAT      O74374   0.548   9.034   5.605
24711WAT     H174375   0.518   9.116   5.558
24711WAT     H274376   0.471   8.969   5.611
24712WAT      O74377   6.834   5.198   5.796
24712WAT     H174378   6.749   5.245   5.818
24712WAT     H274379   6.848   5.122   5.860
24713WAT      O74380   8.468   9.383   1.556
24713WAT     H174381   8.466   9.471   1.604
24713WAT     H274382   8.466   9.399   1.457
24714WAT      O74383   9.050   9.700   4.908
24714WAT     H174384   9.049   9.607   4.945
24714WAT     H274385   8.957   9.729   4.886
24715WAT      O74386   0.288   6.723   3.167
24715WAT     H174387   0.222   6.788   3.203
24715WAT     H274388   0.381   6.759   3.180
24716WAT      O74389   4.379   7.312   5.398
24716WAT     H174390   4.320   7.233   5.383
24716WAT     H274391   4.468   7.296   5.357
24717WAT      O74392   8.780   1.424   3.889
24717WAT     H174393   8.798   1.480   3.970
24717WAT     H274394   8.848   1.446   3.819
24718WAT      O74395   1.082   2.417   4.332
24718WAT     H174396   1.042   2.326   4.328
24718WAT     H274397   1.008   2.485   4.339
24719WAT      O74398   0.432   2.123   5.419
24719WAT     H174399   0.438   2.202   5.479
24719WAT     H274400   0.457   2.150   5.326
24720WAT      O74401   8.745   8.778   9.808
24720WAT     H174402   8.680   8.828   9.865
24720WAT     H274403   8.807   8.725   9.866
24721WAT      O74404   6.964   4.978   8.328
24721WAT     H174405   7.047   5.019   8.366
24721WAT     H274406   6.885   5.033   8.356
24722WAT      O74407   4.550   4.052   0.221
24722WAT     H174408   4.457   4.020   0.203
24722WAT     H274409   4.591   3.995   0.293
24723WAT      O74410   5.888   7.919   5.602
24723WAT     H174411   5.971   7.866   5.622
24723WAT     H274412   5.878   7.929   5.503
24724WAT      O74413   1.813   4.718   4.990
24724WAT     H174414   1.738   4.720   4.925
24724WAT     H274415   1.778   4.694   5.081
24725WAT      O74416   3.690   7.181   1.296
24725WAT     H174417   3.700   7.084   1.321
24725WAT     H274418   3.744   7.199   1.214
24726WAT      O74419   7.746   0.616   7.608
24726WAT     H174420   7.737   0.623   7.509
24726WAT     H274421   7.738   0.520   7.635
24727WAT      O74422   2.790   7.418   8.393
24727WAT     H174423   2.784   7.380   8.485
24727WAT     H274424   2.822   7.512   8.398
24728WAT      O74425   0.874   6.345   5.831
24728WAT     H174426   0.930   6.410   5.883
24728WAT     H274427   0.883   6.254   5.871
24729WAT      O74428   6.585   5.080   7.806
24729WAT     H174429   6.506   5.020   7.820
24729WAT     H274430   6.666   5.024   7.790
24730WAT      O74431   1.059   7.454   5.824
24730WAT     H174432   1.034   7.497   5.911
24730WAT     H274433   1.134   7.504   5.782
24731WAT      O74434   6.801   8.467   2.198
24731WAT     H174435   6.747   8.411   2.261
24731WAT     H274436   6.892   8.427   2.189
24732WAT      O74437   7.641   8.560   4.936
24732WAT     H174438   7.567   8.610   4.890
24732WAT     H274439   7.654   8.471   4.892
24733WAT      O74440   6.374   8.569   5.084
24733WAT     H174441   6.367   8.591   4.987
24733WAT     H274442   6.376   8.654   5.137
24734WAT      O74443   6.757   9.759   0.550
24734WAT     H174444   6.747   9.816   0.469
24734WAT     H274445   6.854   9.755   0.576
24735WAT      O74446   5.548   5.862   6.754
24735WAT     H174447   5.634   5.891   6.795
24735WAT     H274448   5.527   5.920   6.675
24736WAT      O74449   4.739   8.301   6.470
24736WAT     H174450   4.838   8.285   6.469
24736WAT     H274451   4.718   8.381   6.415
24737WAT      O74452   2.078   1.812   5.640
24737WAT     H174453   2.119   1.895   5.602
24737WAT     H274454   2.151   1.750   5.670
24738WAT      O74455   5.504   1.479   1.322
24738WAT     H174456   5.457   1.463   1.409
24738WAT     H274457   5.441   1.461   1.247
24739WAT      O74458   0.641   2.021   4.068
24739WAT     H174459   0.584   1.942   4.091
24739WAT     H274460   0.651   2.079   4.149
24740WAT      O74461   0.229   1.209   4.530
24740WAT     H174462   0.169   1.224   4.608
24740WAT     H274463   0.278   1.123   4.541
24741WAT      O74464   3.972   6.589   8.456
24741WAT     H174465   3.947   6.631   8.369
24741WAT     H274466   3.990   6.661   8.523
24742WAT      O74467   0.865   6.645   9.626
24742WAT     H174468   0.885   6.550   9.648
24742WAT     H274469   0.806   6.649   9.546
24743WAT      O74470   1.832   1.073   9.260
24743WAT     H174471   1.823   1.036   9.352
24743WAT     H274472   1.829   1.173   9.264
24744WAT      O74473   7.631   6.295   1.514
24744WAT     H174474   7.711   6.241   1.490
24744WAT     H274475   7.650   6.347   1.597
24745WAT      O74476   6.551   5.503   3.744
24745WAT     H174477   6.649   5.483   3.742
24745WAT     H274478   6.529   5.560   3.823
24746WAT      O74479   3.366   8.400   4.748
24746WAT     H174480   3.307   8.480   4.764
24746WAT     H274481   3.336   8.325   4.807
24747WAT      O74482   2.535   7.967   2.296
24747WAT     H174483   2.617   7.976   2.352
24747WAT     H274484   2.527   7.872   2.265
24748WAT      O74485   1.222   9.184   2.562
24748WAT     H174486   1.249   9.142   2.476
24748WAT     H274487   1.266   9.273   2.571
24749WAT      O74488   3.846   1.839   8.777
24749WAT     H174489   3.838   1.939   8.773
24749WAT     H274490   3.829   1.808   8.870
24750WAT      O74491   6.628   7.337   9.477
24750WAT     H174492   6.604   7.271   9.405
24750WAT     H274493   6.546   7.358   9.530
24751WAT      O74494   1.433   6.677   6.554
24751WAT     H174495   1.485   6.595   6.578
24751WAT     H274496   1.335   6.657   6.561
24752WAT      O74497   6.976   9.512   4.658
24752WAT     H174498   6.922   9.455   4.595
24752WAT     H274499   7.023   9.583   4.606
24753WAT      O74500   0.198   2.446   3.604
24753WAT     H174501   0.291   2.467   3.575
24753WAT     H274502   0.180   2.349   3.590
24754WAT      O74503   6.353   7.647   5.324
24754WAT     H174504   6.429   7.589   5.295
24754WAT     H274505   6.307   7.605   5.402
24755WAT      O74506   1.202   1.621   5.173
24755WAT     H174507   1.215   1.719   5.180
24755WAT     H274508   1.197   1.594   5.077
24756WAT      O74509   6.556   2.140   8.875
24756WAT     H174510   6.518   2.104   8.789
24756WAT     H274511   6.654   2.123   8.878
24757WAT      O74512   4.784   5.913   1.471
24757WAT     H174513   4.757   6.008   1.485
24757WAT     H274514   4.861   5.891   1.531
24758WAT      O74515   7.499   8.112   3.992
24758WAT     H174516   7.436   8.187   3.971
24758WAT     H274517   7.498   8.045   3.918
24759WAT      O74518   6.440   9.122   9.423
24759WAT     H174519   6.497   9.201   9.442
24759WAT     H274520   6.469   9.044   9.478
24760WAT      O74521   7.732   3.484   6.171
24760WAT     H174522   7.714   3.580   6.146
24760WAT     H274523   7.649   3.444   6.209
24761WAT      O74524   9.742   5.789   5.012
24761WAT     H174525   9.682   5.718   4.975
24761WAT     H274526   9.769   5.763   5.105
24762WAT      O74527   2.728   8.999   5.281
24762WAT     H174528   2.776   9.041   5.358
24762WAT     H274529   2.767   9.033   5.195
24763WAT      O74530   0.536   3.052   3.818
24763WAT     H174531   0.603   3.066   3.745
24763WAT     H274532   0.483   3.135   3.831
24764WAT      O74533   1.331   8.355   0.762
24764WAT     H174534   1.254   8.377   0.702
24764WAT     H274535   1.416   8.385   0.719
24765WAT      O74536   2.348   5.914   6.369
24765WAT     H174537   2.303   5.957   6.291
24765WAT     H274538   2.282   5.858   6.419
24766WAT      O74539   1.171   6.659   2.255
24766WAT     H174540   1.140   6.744   2.213
24766WAT     H274541   1.135   6.581   2.203
24767WAT      O74542   6.487   5.272   2.910
24767WAT     H174543   6.502   5.222   2.995
24767WAT     H274544   6.545   5.353   2.908
24768WAT      O74545   8.698   0.946   6.631
24768WAT     H174546   8.655   0.856   6.623
24768WAT     H274547   8.797   0.935   6.638
24769WAT      O74548   2.781   4.008   7.348
24769WAT     H174549   2.709   4.027   7.281
24769WAT     H274550   2.816   3.916   7.334
24770WAT      O74551   6.068   8.806   6.402
24770WAT     H174552   6.064   8.873   6.476
24770WAT     H274553   6.096   8.717   6.438
24771WAT      O74554   4.147   1.892   4.518
24771WAT     H174555   4.129   1.988   4.494
24771WAT     H274556   4.245   1.877   4.523
24772WAT      O74557   0.531   4.091   8.388
24772WAT     H174558   0.533   4.157   8.463
24772WAT     H274559   0.437   4.085   8.352
24773WAT      O74560   9.451   0.627   3.970
24773WAT     H174561   9.435   0.637   3.871
24773WAT     H274562   9.370   0.586   4.012
24774WAT      O74563   6.008   1.886   2.860
24774WAT     H174564   5.963   1.843   2.938
24774WAT     H274565   6.089   1.936   2.891
24775WAT      O74566   3.743   3.918   1.894
24775WAT     H174567   3.826   3.935   1.842
24775WAT     H274568   3.672   3.983   1.866
24776WAT      O74569   7.962   0.406   7.333
24776WAT     H174570   8.048   0.458   7.335
24776WAT     H274571   7.982   0.310   7.353
24777WAT      O74572   2.348   8.793   3.185
24777WAT     H174573   2.343   8.811   3.283
24777WAT     H274574   2.433   8.745   3.163
24778WAT      O74575   6.148   7.436   2.738
24778WAT     H174576   6.092   7.385   2.673
24778WAT     H274577   6.237   7.457   2.696
24779WAT      O74578   0.400   8.749   3.759
24779WAT     H174579   0.325   8.815   3.755
24779WAT     H274580   0.362   8.656   3.767
24780WAT      O74581   7.750   9.077   7.526
24780WAT     H174582   7.744   9.170   7.562
24780WAT     H274583   7.682   9.064   7.454
24781WAT      O74584   2.293   3.139   6.084
24781WAT     H174585   2.224   3.080   6.127
24781WAT     H274586   2.373   3.145   6.144
24782WAT      O74587   0.309   6.926   1.962
24782WAT     H174588   0.379   6.891   1.899
24782WAT     H274589   0.347   7.003   2.013
24783WAT      O74590   7.565   2.915   8.560
24783WAT     H174591   7.503   2.954   8.628
24783WAT     H274592   7.653   2.895   8.604
24784WAT      O74593   9.422   5.937   8.759
24784WAT     H174594   9.323   5.929   8.762
24784WAT     H274595   9.463   5.874   8.825
24785WAT      O74596   2.490   4.646   3.303
24785WAT     H174597   2.424   4.714   3.270
24785WAT     H274598   2.446   4.556   3.306
24786WAT      O74599   7.157   1.638   6.840
24786WAT     H174600   7.096   1.657   6.762
24786WAT     H274601   7.249   1.620   6.806
24787WAT      O74602   6.052   7.818   8.790
24787WAT     H174603   6.100   7.751   8.734
24787WAT     H274604   5.959   7.785   8.809
24788WAT      O74605   3.604   0.759   7.826
24788WAT     H174606   3.681   0.798   7.776
24788WAT     H274607   3.528   0.824   7.826
24789WAT      O74608   8.789   5.952   6.532
24789WAT     H174609   8.739   5.949   6.445
24789WAT     H274610   8.888   5.948   6.513
24790WAT      O74611   6.678   2.739   3.533
24790WAT     H174612   6.738   2.692   3.599
24790WAT     H274613   6.733   2.791   3.468
24791WAT      O74614   3.155   2.928   5.016
24791WAT     H174615   3.233   2.922   4.953
24791WAT     H274616   3.113   3.019   5.007
24792WAT      O74617   5.684   7.501   4.472
24792WAT     H174618   5.696   7.465   4.379
24792WAT     H274619   5.750   7.457   4.533
24793WAT      O74620   8.533   2.706   4.510
24793WAT     H174621   8.456   2.769   4.498
24793WAT     H274622   8.535   2.674   4.605
24794WAT      O74623   5.790   5.931   4.035
24794WAT     H174624   5.731   6.008   4.011
24794WAT     H274625   5.768   5.899   4.127
24795WAT      O74626   0.171   8.368   2.519
24795WAT     H174627   0.112   8.404   2.591
24795WAT     H274628   0.250   8.428   2.507
24796WAT      O74629   4.062   5.386   4.963
24796WAT     H174630   4.099   5.338   5.043
24796WAT     H274631   4.132   5.393   4.892
24797WAT      O74632   1.033   1.126   9.189
24797WAT     H174633   1.061   1.107   9.283
24797WAT     H274634   1.115   1.129   9.130
24798WAT      O74635   5.739   5.440   0.224
24798WAT     H174636   5.760   5.532   0.193
24798WAT     H274637   5.817   5.404   0.277
24799WAT      O74638   5.493   0.540   5.607
24799WAT     H174639   5.468   0.446   5.627
24799WAT     H274640   5.579   0.563   5.654
24800WAT      O74641   8.527   5.773   4.458
24800WAT     H174642   8.441   5.799   4.502
24800WAT     H274643   8.601   5.778   4.525
24801WAT      O74644   5.990   2.663   0.883
24801WAT     H174645   5.909   2.699   0.929
24801WAT     H274646   6.073   2.699   0.927
24802WAT      O74647   8.796   2.650   9.512
24802WAT     H174648   8.755   2.578   9.456
24802WAT     H274649   8.725   2.701   9.559
24803WAT      O74650   7.999   6.402   9.587
24803WAT     H174651   8.090   6.403   9.628
24803WAT     H274652   7.987   6.318   9.534
24804WAT      O74653   4.660   8.706   7.096
24804WAT     H174654   4.736   8.713   7.030
24804WAT     H274655   4.574   8.691   7.046
24805WAT      O74656   4.004   5.975   5.319
24805WAT     H174657   4.045   5.995   5.408
24805WAT     H274658   3.927   6.037   5.303
24806WAT      O74659   9.429   6.830   9.035
24806WAT     H174660   9.378   6.753   9.075
24806WAT     H274661   9.425   6.908   9.098
24807WAT      O74662   8.054   3.356   9.199
24807WAT     H174663   8.029   3.378   9.105
24807WAT     H274664   7.993   3.285   9.234
24808WAT      O74665   2.267   2.922   9.873
24808WAT     H174666   2.260   3.018   9.848
24808WAT     H274667   2.259   2.912   9.973
24809WAT      O74668   7.755   6.149   6.282
24809WAT     H174669   7.732   6.213   6.356
24809WAT     H274670   7.791   6.065   6.321
24810WAT      O74671   4.725   0.042   8.192
24810WAT     H174672   4.707   0.084   8.281
24810WAT     H274673   4.722  -0.058   8.202
24811WAT      O74674   8.456   0.231   8.876
24811WAT     H174675   8.546   0.274   8.872
24811WAT     H274676   8.444   0.189   8.966
24812WAT      O74677   3.231   7.821   1.862
24812WAT     H174678   3.188   7.909   1.844
24812WAT     H274679   3.206   7.756   1.791
24813WAT      O74680   0.380   4.488   3.859
24813WAT     H174681   0.340   4.436   3.934
24813WAT     H274682   0.476   4.508   3.879
24814WAT      O74683   2.661   5.510   4.525
24814WAT     H174684   2.671   5.451   4.604
24814WAT     H274685   2.614   5.461   4.452
24815WAT      O74686   0.329   4.070   1.137
24815WAT     H174687   0.427   4.089   1.141
24815WAT     H274688   0.288   4.121   1.061
24816WAT      O74689   1.062   7.802   8.305
24816WAT     H174690   0.982   7.764   8.257
24816WAT     H274691   1.138   7.738   8.298
24817WAT      O74692   3.960   7.023   3.444
24817WAT     H174693   3.865   6.994   3.432
24817WAT     H274694   3.963   7.120   3.467
24818WAT      O74695   3.825   8.468   8.290
24818WAT     H174696   3.907   8.416   8.268
24818WAT     H274697   3.850   8.562   8.313
24819WAT      O74698   1.923   1.431   8.910
24819WAT     H174699   1.833   1.443   8.868
24819WAT     H274700   1.964   1.520   8.926
24820WAT      O74701   1.818   2.686   8.077
24820WAT     H174702   1.856   2.772   8.110
24820WAT     H274703   1.720   2.697   8.061
24821WAT      O74704   1.186   8.798   4.056
24821WAT     H174705   1.267   8.821   4.110
24821WAT     H274706   1.106   8.791   4.116
24822WAT      O74707   3.660   1.263   5.542
24822WAT     H174708   3.739   1.217   5.501
24822WAT     H274709   3.690   1.322   5.616
24823WAT      O74710   9.336   2.388   8.277
24823WAT     H174711   9.264   2.325   8.248
24823WAT     H274712   9.307   2.482   8.259
24824WAT      O74713   3.138   5.645   2.446
24824WAT     H174714   3.125   5.625   2.348
24824WAT     H274715   3.060   5.612   2.497
24825WAT      O74716   4.393   2.381   4.278
24825WAT     H174717   4.418   2.284   4.275
24825WAT     H274718   4.383   2.416   4.184
24826WAT      O74719   0.785   9.560   5.785
24826WAT     H174720   0.810   9.503   5.707
24826WAT     H274721   0.726   9.634   5.755
24827WAT      O74722   4.788   3.208   4.957
24827WAT     H174723   4.697   3.231   4.989
24827WAT     H274724   4.824   3.131   5.010
24828WAT      O74725   5.238   9.227   3.768
24828WAT     H174726   5.299   9.263   3.698
24828WAT     H274727   5.265   9.263   3.858
24829WAT      O74728   8.138   7.246   6.860
24829WAT     H174729   8.178   7.332   6.831
24829WAT     H274730   8.041   7.259   6.881
24830WAT      O74731   3.026   5.759   9.671
24830WAT     H174732   2.944   5.739   9.725
24830WAT     H274733   3.099   5.789   9.732
24831WAT      O74734   1.131   7.334   4.711
24831WAT     H174735   1.222   7.293   4.720
24831WAT     H274736   1.135   7.430   4.739
24832WAT      O74737   1.160   7.100   9.864
24832WAT     H174738   1.208   7.187   9.853
24832WAT     H274739   1.072   7.104   9.816
24833WAT      O74740   1.083   7.115   6.785
24833WAT     H174741   1.097   7.016   6.784
24833WAT     H274742   1.158   7.160   6.833
24834WAT      O74743   4.200   3.199   8.211
24834WAT     H174744   4.264   3.145   8.265
24834WAT     H274745   4.169   3.146   8.132
24835WAT      O74746   3.585   7.607   0.183
24835WAT     H174747   3.657   7.567   0.240
24835WAT     H274748   3.605   7.591   0.087
24836WAT      O74749   2.551   9.572   1.626
24836WAT     H174750   2.506   9.488   1.656
24836WAT     H274751   2.491   9.620   1.561
24837WAT      O74752   5.187   1.911   9.217
24837WAT     H174753   5.280   1.935   9.190
24837WAT     H274754   5.140   1.865   9.142
24838WAT      O74755   8.186   1.544   0.566
24838WAT     H174756   8.271   1.581   0.602
24838WAT     H274757   8.201   1.452   0.531
24839WAT      O74758   1.890   7.225   6.883
24839WAT     H174759   1.797   7.257   6.867
24839WAT     H274760   1.917   7.248   6.977
24840WAT      O74761   5.156   0.576   2.373
24840WAT     H174762   5.220   0.613   2.441
24840WAT     H274763   5.197   0.497   2.328
24841WAT      O74764   1.426   9.744   4.515
24841WAT     H174765   1.492   9.765   4.588
24841WAT     H274766   1.340   9.713   4.556
24842WAT      O74767   2.526   2.868   4.992
24842WAT     H174768   2.616   2.884   5.033
24842WAT     H274769   2.517   2.921   4.908
24843WAT      O74770   0.315   2.117   6.644
24843WAT     H174771   0.298   2.024   6.612
24843WAT     H274772   0.414   2.131   6.655
24844WAT      O74773   9.014   9.587   6.618
24844WAT     H174774   9.060   9.653   6.559
24844WAT     H274775   9.067   9.573   6.701
24845WAT      O74776   8.832   4.297   1.506
24845WAT     H174777   8.851   4.230   1.578
24845WAT     H274778   8.918   4.342   1.480
24846WAT      O74779   8.368   5.203   1.068
24846WAT     H174780   8.449   5.262   1.070
24846WAT     H274781   8.396   5.108   1.083
24847WAT      O74782   4.268   1.700   7.057
24847WAT     H174783   4.172   1.679   7.040
24847WAT     H274784   4.275   1.781   7.115
24848WAT      O74785   1.898   2.584   7.319
24848WAT     H174786   1.916   2.564   7.223
24848WAT     H274787   1.890   2.683   7.332
24849WAT      O74788   7.864   8.235   7.540
24849WAT     H174789   7.884   8.270   7.632
24849WAT     H274790   7.828   8.309   7.484
24850WAT      O74791   4.624   0.613   0.635
24850WAT     H174792   4.543   0.560   0.607
24850WAT     H274793   4.667   0.568   0.714
24851WAT      O74794   7.182   7.485   0.795
24851WAT     H174795   7.188   7.417   0.722
24851WAT     H274796   7.198   7.576   0.757
24852WAT      O74797   6.556   9.739   3.412
24852WAT     H174798   6.594   9.798   3.341
24852WAT     H274799   6.533   9.794   3.492
24853WAT      O74800   0.220   3.352   6.815
24853WAT     H174801   0.200   3.279   6.750
24853WAT     H274802   0.178   3.437   6.784
24854WAT      O74803   5.416   6.856   4.742
24854WAT     H174804   5.377   6.944   4.768
24854WAT     H274805   5.383   6.830   4.651
24855WAT      O74806   1.907   1.360   8.528
24855WAT     H174807   1.813   1.391   8.544
24855WAT     H274808   1.912   1.261   8.542
24856WAT      O74809   2.957   0.640   5.198
24856WAT     H174810   2.914   0.559   5.158
24856WAT     H274811   2.941   0.719   5.139
24857WAT      O74812   8.166   9.742   4.929
24857WAT     H174813   8.238   9.675   4.913
24857WAT     H274814   8.110   9.713   5.007
24858WAT      O74815   5.067   1.674   8.403
24858WAT     H174816   4.992   1.723   8.359
24858WAT     H274817   5.042   1.578   8.414
24859WAT      O74818   6.320   0.743   7.108
24859WAT     H174819   6.373   0.716   7.028
24859WAT     H274820   6.223   0.729   7.091
24860WAT      O74821   3.781   7.959   4.582
24860WAT     H174822   3.845   8.006   4.644
24860WAT     H274823   3.779   8.007   4.494
24861WAT      O74824   5.717   2.585   4.391
24861WAT     H174825   5.794   2.639   4.426
24861WAT     H274826   5.699   2.509   4.454
24862WAT      O74827   5.013   4.627   9.091
24862WAT     H174828   5.008   4.686   9.172
24862WAT     H274829   5.091   4.655   9.035
24863WAT      O74830   8.482   2.381   5.515
24863WAT     H174831   8.502   2.292   5.476
24863WAT     H274832   8.400   2.419   5.472
24864WAT      O74833   5.363   4.942   9.097
24864WAT     H174834   5.323   4.990   9.175
24864WAT     H274835   5.447   4.989   9.069
24865WAT      O74836   1.490   8.352   6.953
24865WAT     H174837   1.525   8.401   7.032
24865WAT     H274838   1.524   8.394   6.869
24866WAT      O74839   5.747   6.724   0.509
24866WAT     H174840   5.757   6.711   0.410
24866WAT     H274841   5.678   6.795   0.526
24867WAT      O74842   7.819   4.241   6.863
24867WAT     H174843   7.845   4.184   6.941
24867WAT     H274844   7.854   4.200   6.779
24868WAT      O74845   3.530   4.031   5.719
24868WAT     H174846   3.544   4.130   5.717
24868WAT     H274847   3.619   3.985   5.731
24869WAT      O74848   7.348   6.531   6.584
24869WAT     H174849   7.320   6.547   6.679
24869WAT     H274850   7.267   6.519   6.527
24870WAT      O74851   4.236   9.027   5.110
24870WAT     H174852   4.184   9.051   5.192
24870WAT     H274853   4.205   8.938   5.075
24871WAT      O74854   5.511   8.018   5.354
24871WAT     H174855   5.537   8.103   5.400
24871WAT     H274856   5.502   7.945   5.421
24872WAT      O74857   4.332   8.703   4.832
24872WAT     H174858   4.267   8.656   4.772
24872WAT     H274859   4.402   8.639   4.862
24873WAT      O74860   3.539   6.524   5.584
24873WAT     H174861   3.495   6.439   5.554
24873WAT     H274862   3.492   6.602   5.542
24874WAT      O74863   6.878   8.013   9.053
24874WAT     H174864   6.782   7.987   9.046
24874WAT     H274865   6.933   7.933   9.074
24875WAT      O74866   0.029   5.156   8.376
24875WAT     H174867  -0.058   5.117   8.345
24875WAT     H274868   0.047   5.126   8.469
24876WAT      O74869   3.356   2.245   9.009
24876WAT     H174870   3.259   2.262   8.991
24876WAT     H274871   3.381   2.285   9.097
24877WAT      O74872   0.006   5.834   1.773
24877WAT     H174873  -0.071   5.869   1.721
24877WAT     H274874   0.084   5.896   1.764
24878WAT      O74875   2.278   2.440   3.568
24878WAT     H174876   2.373   2.451   3.540
24878WAT     H274877   2.223   2.514   3.530
24879WAT      O74878   0.387   3.799   7.756
24879WAT     H174879   0.445   3.844   7.825
24879WAT     H274880   0.321   3.865   7.720
24880WAT      O74881   5.030   6.898   3.252
24880WAT     H174882   5.004   6.856   3.339
24880WAT     H274883   5.022   6.997   3.259
24881WAT      O74884   9.739   3.079   6.754
24881WAT     H174885   9.743   2.986   6.717
24881WAT     H274886   9.778   3.080   6.846
24882WAT      O74887   2.250   3.077   0.878
24882WAT     H174888   2.210   2.997   0.835
24882WAT     H274889   2.186   3.154   0.872
24883WAT      O74890   4.034   3.840   1.869
24883WAT     H174891   4.010   3.913   1.805
24883WAT     H274892   3.998   3.753   1.835
24884WAT      O74893   8.847   2.268   8.208
24884WAT     H174894   8.907   2.232   8.136
24884WAT     H274895   8.782   2.332   8.168
24885WAT      O74896   9.713   1.600   2.607
24885WAT     H174897   9.624   1.557   2.623
24885WAT     H274898   9.701   1.683   2.553
24886WAT      O74899   4.948   2.108   1.691
24886WAT     H174900   4.872   2.135   1.632
24886WAT     H274901   4.981   2.188   1.741
24887WAT      O74902   1.528   5.254   7.816
24887WAT     H174903   1.556   5.350   7.825
24887WAT     H274904   1.497   5.220   7.904
24888WAT      O74905   7.027   0.006   7.400
24888WAT     H174906   7.017  -0.090   7.424
24888WAT     H274907   7.123   0.026   7.378
24889WAT      O74908   3.448   7.950   6.290
24889WAT     H174909   3.377   7.908   6.232
24889WAT     H274910   3.442   7.913   6.382
24890WAT      O74911   6.060   5.882   5.248
24890WAT     H174912   6.159   5.885   5.258
24890WAT     H274913   6.034   5.913   5.157
24891WAT      O74914   9.416   8.186   6.596
24891WAT     H174915   9.502   8.222   6.560
24891WAT     H274916   9.419   8.086   6.596
24892WAT      O74917   8.033   6.533   4.819
24892WAT     H174918   7.982   6.450   4.798
24892WAT     H274919   8.054   6.582   4.734
24893WAT      O74920   8.556   5.879   1.754
24893WAT     H174921   8.563   5.844   1.660
24893WAT     H274922   8.594   5.972   1.757
24894WAT      O74923   0.694   0.606   4.993
24894WAT     H174924   0.638   0.639   4.917
24894WAT     H274925   0.672   0.656   5.076
24895WAT      O74926   8.804   5.522   1.728
24895WAT     H174927   8.848   5.433   1.717
24895WAT     H274928   8.784   5.538   1.824
24896WAT      O74929   7.518   3.059   0.908
24896WAT     H174930   7.459   2.988   0.947
24896WAT     H274931   7.598   3.072   0.966
24897WAT      O74932   1.157   6.785   3.099
24897WAT     H174933   1.060   6.802   3.078
24897WAT     H274934   1.176   6.687   3.095
24898WAT      O74935   5.860   9.637   4.562
24898WAT     H174936   5.955   9.614   4.540
24898WAT     H274937   5.845   9.735   4.545
24899WAT      O74938   4.892   3.431   3.120
24899WAT     H174939   4.929   3.458   3.031
24899WAT     H274940   4.796   3.457   3.126
24900WAT      O74941   8.695   9.502   6.159
24900WAT     H174942   8.694   9.602   6.171
24900WAT     H274943   8.788   9.468   6.172
24901WAT      O74944   7.379   9.818   6.410
24901WAT     H174945   7.358   9.908   6.448
24901WAT     H274946   7.400   9.827   6.312
24902WAT      O74947   2.263   2.158   3.551
24902WAT     H174948   2.248   2.256   3.537
24902WAT     H274949   2.267   2.140   3.649
24903WAT      O74950   0.480   1.786   1.954
24903WAT     H174951   0.472   1.874   1.908
24903WAT     H274952   0.577   1.767   1.974
24904WAT      O74953   3.943   0.544   4.721
24904WAT     H174954   3.903   0.620   4.669
24904WAT     H274955   4.041   0.559   4.731
24905WAT      O74956   4.733   3.421   8.636
24905WAT     H174957   4.755   3.479   8.714
24905WAT     H274958   4.655   3.460   8.587
24906WAT      O74959   6.672   0.947   0.847
24906WAT     H174960   6.607   0.888   0.799
24906WAT     H274961   6.765   0.920   0.823
24907WAT      O74962   6.861   7.108   5.036
24907WAT     H174963   6.807   7.102   5.120
24907WAT     H274964   6.811   7.164   4.969
24908WAT      O74965   1.217   2.620   9.248
24908WAT     H174966   1.246   2.711   9.279
24908WAT     H274967   1.213   2.620   9.148
24909WAT      O74968   1.324   5.284   6.089
24909WAT     H174969   1.347   5.287   5.992
24909WAT     H274970   1.242   5.339   6.106
24910WAT      O74971   6.836   5.339   9.176
24910WAT     H174972   6.743   5.370   9.199
24910WAT     H274973   6.896   5.356   9.254
24911WAT      O74974   0.309   2.942   2.410
24911WAT     H174975   0.374   2.995   2.355
24911WAT     H274976   0.230   2.999   2.432
24912WAT      O74977   7.079   3.033   2.133
24912WAT     H174978   7.080   3.130   2.107
24912WAT     H274979   7.085   3.026   2.233
24913WAT      O74980   4.101   1.542   9.750
24913WAT     H174981   4.190   1.542   9.705
24913WAT     H274982   4.061   1.451   9.745
24914WAT      O74983   6.637   7.263   4.952
24914WAT     H174984   6.559   7.213   4.990
24914WAT     H274985   6.619   7.283   4.856
24915WAT      O74986   7.277   3.775   2.536
24915WAT     H174987   7.264   3.867   2.574
24915WAT     H274988   7.374   3.750   2.542
24916WAT      O74989   5.352   1.648   8.007
24916WAT     H174990   5.268   1.637   7.954
24916WAT     H274991   5.329   1.661   8.103
24917WAT      O74992   5.299   0.848   3.871
24917WAT     H174993   5.261   0.800   3.792
24917WAT     H274994   5.227   0.899   3.917
24918WAT      O74995   6.881   3.727   0.095
24918WAT     H174996   6.866   3.776   0.009
24918WAT     H274997   6.979   3.729   0.118
24919WAT      O74998   5.002   8.534   5.919
24919WAT     H174999   4.995   8.440   5.885
24919WAT     H275000   5.087   8.576   5.886
24920WAT      O75001   4.478   2.581   4.442
24920WAT     H175002   4.503   2.639   4.365
24920WAT     H275003   4.422   2.504   4.409
24921WAT      O75004   4.875   9.419   9.852
24921WAT     H175005   4.924   9.347   9.802
24921WAT     H275006   4.926   9.440   9.936
24922WAT      O75007   2.514   8.107   4.018
24922WAT     H175008   2.540   8.011   4.005
24922WAT     H275009   2.582   8.166   3.975
24923WAT      O75010   6.864   7.686   2.731
24923WAT     H175011   6.873   7.669   2.633
24923WAT     H275012   6.858   7.785   2.747
24924WAT      O75013   0.724   5.537   1.980
24924WAT     H175014   0.797   5.572   2.039
24924WAT     H275015   0.666   5.474   2.032
24925WAT      O75016   1.835   9.749   0.591
24925WAT     H175017   1.740   9.768   0.614
24925WAT     H275018   1.839   9.710   0.499
24926WAT      O75019   8.165   5.496   6.699
24926WAT     H175020   8.173   5.554   6.780
24926WAT     H275021   8.083   5.521   6.647
24927WAT      O75022   6.274   7.864   4.065
24927WAT     H175023   6.195   7.810   4.037
24927WAT     H275024   6.328   7.813   4.133
24928WAT      O75025   4.801   9.636   0.303
24928WAT     H175026   4.882   9.613   0.249
24928WAT     H275027   4.763   9.552   0.343
24929WAT      O75028   6.782   2.608   0.722
24929WAT     H175029   6.824   2.684   0.672
24929WAT     H275030   6.844   2.575   0.792
24930WAT      O75031   8.464   6.257   3.189
24930WAT     H175032   8.474   6.192   3.264
24930WAT     H275033   8.380   6.310   3.201
24931WAT      O75034   8.588   7.703   1.773
24931WAT     H175035   8.527   7.635   1.813
24931WAT     H275036   8.535   7.774   1.728
24932WAT      O75037   3.853   5.855   1.350
24932WAT     H175038   3.832   5.758   1.361
24932WAT     H275039   3.784   5.909   1.398
24933WAT      O75040   1.391   0.535   0.191
24933WAT     H175041   1.376   0.529   0.290
24933WAT     H275042   1.456   0.465   0.162
24934WAT      O75043   1.485   1.022   8.444
24934WAT     H175044   1.523   1.016   8.352
24934WAT     H275045   1.409   1.088   8.445
24935WAT      O75046   6.880   8.670   7.088
24935WAT     H175047   6.980   8.661   7.094
24935WAT     H275048   6.837   8.592   7.133
24936WAT      O75049   3.306   3.343   0.466
24936WAT     H175050   3.389   3.287   0.468
24936WAT     H275051   3.322   3.423   0.407
24937WAT      O75052   5.387   5.527   6.451
24937WAT     H175053   5.481   5.495   6.466
24937WAT     H275054   5.349   5.562   6.536
24938WAT      O75055   7.177   5.386   2.921
24938WAT     H175056   7.134   5.468   2.960
24938WAT     H275057   7.109   5.332   2.872
24939WAT      O75058   2.463   6.442   9.629
24939WAT     H175059   2.468   6.365   9.693
24939WAT     H275060   2.555   6.467   9.600
24940WAT      O75061   4.234   5.729   7.400
24940WAT     H175062   4.329   5.708   7.376
24940WAT     H275063   4.188   5.770   7.321
24941WAT      O75064   5.966   9.645   8.874
24941WAT     H175065   6.040   9.647   8.806
24941WAT     H275066   5.894   9.709   8.848
24942WAT      O75067   2.873   5.197   5.723
24942WAT     H175068   2.949   5.255   5.691
24942WAT     H275069   2.812   5.177   5.647
24943WAT      O75070   3.882   3.265   8.022
24943WAT     H175071   3.951   3.193   8.031
24943WAT     H275072   3.911   3.345   8.074
24944WAT      O75073   0.897   9.731   8.008
24944WAT     H175074   0.882   9.687   8.096
24944WAT     H275075   0.907   9.661   7.937
24945WAT      O75076   5.531   8.203   1.002
24945WAT     H175077   5.524   8.105   0.981
24945WAT     H275078   5.596   8.246   0.940
24946WAT      O75079   3.488   2.278   3.557
24946WAT     H175080   3.503   2.375   3.580
24946WAT     H275081   3.444   2.272   3.468
24947WAT      O75082   8.897   6.256   2.782
24947WAT     H175083   8.962   6.186   2.752
24947WAT     H275084   8.821   6.213   2.830
24948WAT      O75085   4.849   6.304   2.881
24948WAT     H175086   4.883   6.213   2.860
24948WAT     H275087   4.786   6.334   2.809
24949WAT      O75088   7.991   6.847   2.144
24949WAT     H175089   7.941   6.903   2.211
24949WAT     H275090   8.071   6.806   2.188
24950WAT      O75091   0.188   2.097   6.300
24950WAT     H175092   0.234   2.012   6.273
24950WAT     H275093   0.125   2.078   6.376
24951WAT      O75094   2.334   9.554   9.286
24951WAT     H175095   2.424   9.587   9.313
24951WAT     H275096   2.264   9.605   9.337
24952WAT      O75097   7.832   1.093   1.208
24952WAT     H175098   7.842   1.081   1.109
24952WAT     H275099   7.918   1.126   1.246
24953WAT      O75100   6.940   4.235   3.232
24953WAT     H175101   6.885   4.180   3.295
24953WAT     H275102   6.891   4.246   3.146
24954WAT      O75103   5.234   4.656   0.468
24954WAT     H175104   5.304   4.591   0.496
24954WAT     H275105   5.230   4.661   0.368
24955WAT      O75106   8.112   6.766   3.898
24955WAT     H175107   8.170   6.705   3.953
24955WAT     H275108   8.096   6.725   3.809
24956WAT      O75109   5.818   2.947   0.556
24956WAT     H175110   5.731   2.918   0.596
24956WAT     H275111   5.813   2.938   0.456
24957WAT      O75112   5.824   5.731   0.250
24957WAT     H175113   5.924   5.728   0.247
24957WAT     H275114   5.795   5.779   0.332
24958WAT      O75115   7.598   9.455   8.520
24958WAT     H175116   7.556   9.544   8.538
24958WAT     H275117   7.544   9.407   8.451
24959WAT      O75118   2.236   3.725   3.037
24959WAT     H175119   2.156   3.748   3.091
24959WAT     H275120   2.216   3.737   2.940
24960WAT      O75121   7.628   2.340   2.697
24960WAT     H175122   7.646   2.312   2.792
24960WAT     H275123   7.696   2.298   2.637
24961WAT      O75124   5.257   5.820   2.645
24961WAT     H175125   5.326   5.891   2.657
24961WAT     H275126   5.283   5.740   2.700
24962WAT      O75127   5.571   5.370   2.021
24962WAT     H175128   5.616   5.459   2.027
24962WAT     H275129   5.494   5.368   2.085
24963WAT      O75130   4.483   6.608   5.179
24963WAT     H175131   4.458   6.662   5.099
24963WAT     H275132   4.538   6.529   5.150
24964WAT      O75133   9.506   4.245   8.326
24964WAT     H175134   9.457   4.157   8.332
24964WAT     H275135   9.459   4.305   8.261
24965WAT      O75136   8.652   7.348   5.303
24965WAT     H175137   8.694   7.431   5.340
24965WAT     H275138   8.606   7.299   5.377
24966WAT      O75139   0.434   8.798   8.033
24966WAT     H175140   0.510   8.763   7.978
24966WAT     H275141   0.425   8.896   8.018
24967WAT      O75142   9.414   5.339   0.269
24967WAT     H175143   9.342   5.311   0.333
24967WAT     H275144   9.427   5.269   0.199
24968WAT      O75145   0.552   6.926   3.825
24968WAT     H175146   0.633   6.973   3.859
24968WAT     H275147   0.554   6.924   3.725
24969WAT      O75148   2.834   5.607   2.094
24969WAT     H175149   2.916   5.625   2.148
24969WAT     H275150   2.860   5.593   1.998
24970WAT      O75151   0.260   8.498   9.883
24970WAT     H175152   0.289   8.581   9.835
24970WAT     H275153   0.318   8.422   9.857
24971WAT      O75154   5.227   3.528   1.217
24971WAT     H175155   5.320   3.562   1.227
24971WAT     H275156   5.226   3.454   1.150
24972WAT      O75157   1.672   0.716   6.718
24972WAT     H175158   1.772   0.727   6.717
24972WAT     H275159   1.629   0.807   6.713
24973WAT      O75160   2.941   1.328   5.694
24973WAT     H175161   2.923   1.407   5.753
24973WAT     H275162   2.903   1.245   5.737
24974WAT      O75163   1.305   9.127   5.361
24974WAT     H175164   1.278   9.032   5.350
24974WAT     H275165   1.396   9.131   5.402
24975WAT      O75166   9.587   2.767   4.091
24975WAT     H175167   9.513   2.822   4.052
24975WAT     H275168   9.605   2.798   4.185
24976WAT      O75169   7.424   5.683   0.332
24976WAT     H175170   7.455   5.713   0.422
24976WAT     H275171   7.358   5.748   0.296
24977WAT      O75172   5.360   4.785   6.028
24977WAT     H175173   5.337   4.853   6.098
24977WAT     H275174   5.295   4.709   6.034
24978WAT      O75175   3.287   1.792   5.594
24978WAT     H175176   3.355   1.727   5.627
24978WAT     H275177   3.329   1.856   5.530
24979WAT      O75178   5.474   8.161   6.013
24979WAT     H175179   5.477   8.213   5.928
24979WAT     H275180   5.390   8.184   6.063
24980WAT      O75181   0.484   6.809   8.180
24980WAT     H175182   0.579   6.827   8.158
24980WAT     H275183   0.447   6.742   8.116
24981WAT      O75184   8.751   9.703   4.932
24981WAT     H175185   8.720   9.645   5.007
24981WAT     H275186   8.755   9.798   4.962
24982WAT      O75187   1.197   7.496   8.149
24982WAT     H175188   1.102   7.496   8.117
24982WAT     H275189   1.245   7.575   8.112
24983WAT      O75190   6.756   6.189   8.926
24983WAT     H175191   6.721   6.282   8.921
24983WAT     H275192   6.815   6.171   8.847
24984WAT      O75193   2.481   8.622   4.927
24984WAT     H175194   2.423   8.691   4.969
24984WAT     H275195   2.576   8.637   4.954
24985WAT      O75196   3.106   8.493   6.975
24985WAT     H175197   3.072   8.400   6.988
24985WAT     H275198   3.039   8.546   6.923
24986WAT      O75199   9.485   1.420   3.238
24986WAT     H175200   9.400   1.401   3.288
24986WAT     H275201   9.559   1.439   3.303
24987WAT      O75202   5.623   8.223   9.168
24987WAT     H175203   5.620   8.219   9.268
24987WAT     H275204   5.681   8.149   9.134
24988WAT      O75205   7.159   5.422   4.396
24988WAT     H175206   7.189   5.353   4.462
24988WAT     H275207   7.203   5.406   4.308
24989WAT      O75208   5.988   4.124   7.768
24989WAT     H175209   5.947   4.138   7.678
24989WAT     H275210   6.037   4.207   7.796
24990WAT      O75211   7.275   6.003   0.031
24990WAT     H175212   7.330   6.057  -0.033
24990WAT     H275213   7.190   6.052   0.051
24991WAT      O75214   9.520   7.571   9.224
24991WAT     H175215   9.559   7.651   9.271
24991WAT     H275216   9.465   7.518   9.289
24992WAT      O75217   0.200   4.063   2.581
24992WAT     H175218   0.183   4.010   2.498
24992WAT     H275219   0.197   4.003   2.661
24993WAT      O75220   8.264   9.811   9.382
24993WAT     H175221   8.267   9.882   9.312
24993WAT     H275222   8.206   9.841   9.457
24994WAT      O75223   2.346   2.262   2.768
24994WAT     H175224   2.425   2.316   2.741
24994WAT     H275225   2.305   2.301   2.851
24995WAT      O75226   0.525   5.908   8.148
24995WAT     H175227   0.612   5.948   8.176
24995WAT     H275228   0.526   5.891   8.050
24996WAT      O75229   6.758   1.113   2.824
24996WAT     H175230   6.685   1.108   2.756
24996WAT     H275231   6.721   1.147   2.910
24997WAT      O75232   6.293   8.419   8.582
24997WAT     H175233   6.295   8.459   8.490
24997WAT     H275234   6.207   8.369   8.595
24998WAT      O75235   1.397   8.117   6.885
24998WAT     H175236   1.425   8.037   6.938
24998WAT     H275237   1.431   8.200   6.931
24999WAT      O75238   6.519   2.616   9.558
24999WAT     H175239   6.472   2.693   9.516
24999WAT     H275240   6.485   2.603   9.651
25000WAT      O75241   6.313   4.593   4.313
25000WAT     H175242   6.247   4.632   4.377
25000WAT     H275243   6.291   4.622   4.220
25001WAT      O75244   3.645   9.525   8.423
25001WAT     H175245   3.623   9.622   8.416
25001WAT     H275246   3.561   9.471   8.423
25002WAT      O75247   4.270   7.313   6.513
25002WAT     H175248   4.175   7.286   6.530
25002WAT     H275249   4.331   7.256   6.567
25003WAT      O75250   7.599   5.427   6.775
25003WAT     H175251   7.569   5.424   6.680
25003WAT     H275252   7.657   5.348   6.794
25004WAT      O75253   1.880   6.700   2.373
25004WAT     H175254   1.948   6.627   2.367
25004WAT     H275255   1.873   6.747   2.285
25005WAT      O75256   1.963   7.891   4.452
25005WAT     H175257   2.001   7.972   4.496
25005WAT     H275258   2.036   7.826   4.432
25006WAT      O75259   3.599   4.105   1.527
25006WAT     H175260   3.646   4.024   1.495
25006WAT     H275261   3.526   4.130   1.462
25007WAT      O75262   3.159   6.808   3.551
25007WAT     H175263   3.252   6.799   3.587
25007WAT     H275264   3.162   6.825   3.453
25008WAT      O75265   5.654   0.110   3.547
25008WAT     H175266   5.643   0.073   3.639
25008WAT     H275267   5.566   0.143   3.514
25009WAT      O75268   8.789   8.414   6.140
25009WAT     H175269   8.861   8.443   6.203
25009WAT     H275270   8.786   8.315   6.135
25010WAT      O75271   4.386   9.286   4.673
25010WAT     H175272   4.429   9.249   4.755
25010WAT     H275273   4.341   9.213   4.623
25011WAT      O75274   7.258   4.262   4.690
25011WAT     H175275   7.227   4.285   4.782
25011WAT     H275276   7.188   4.209   4.644
25012WAT      O75277   3.505   5.893   2.451
25012WAT     H175278   3.432   5.960   2.441
25012WAT     H275279   3.552   5.881   2.363
25013WAT      O75280   4.409   6.494   6.134
25013WAT     H175281   4.416   6.530   6.041
25013WAT     H275282   4.411   6.394   6.132
25014WAT      O75283   9.338   1.099   0.956
25014WAT     H175284   9.303   1.009   0.983
25014WAT     H275285   9.418   1.086   0.897
25015WAT      O75286   2.469   7.358   3.197
25015WAT     H175287   2.475   7.329   3.293
25015WAT     H275288   2.449   7.278   3.140
25016WAT      O75289   2.818   6.954   1.238
25016WAT     H175290   2.908   6.947   1.282
25016WAT     H275291   2.810   6.883   1.169
25017WAT      O75292   4.764   0.344   4.126
25017WAT     H175293   4.771   0.302   4.036
25017WAT     H275294   4.791   0.278   4.196
25018WAT      O75295   6.363   9.810   2.003
25018WAT     H175296   6.423   9.820   1.923
25018WAT     H275297   6.341   9.713   2.016
25019WAT      O75298   7.230   2.366   3.979
25019WAT     H175299   7.234   2.445   4.040
25019WAT     H275300   7.272   2.389   3.891
25020WAT      O75301   0.326   2.698   8.353
25020WAT     H175302   0.405   2.756   8.331
25020WAT     H275303   0.339   2.658   8.444
25021WAT      O75304   1.740   6.949   1.050
25021WAT     H175305   1.698   6.955   1.141
25021WAT     H275306   1.801   7.027   1.037
25022WAT      O75307   6.706   1.448   0.890
25022WAT     H175308   6.680   1.530   0.942
25022WAT     H275309   6.631   1.424   0.828
25023WAT      O75310   2.830   9.589   9.645
25023WAT     H175311   2.824   9.543   9.557
25023WAT     H275312   2.767   9.547   9.710
25024WAT      O75313   4.051   8.112   4.551
25024WAT     H175314   4.147   8.121   4.526
25024WAT     H275315   3.996   8.174   4.494
25025WAT      O75316   6.006   1.368   3.163
25025WAT     H175317   5.907   1.374   3.169
25025WAT     H275318   6.047   1.392   3.251
25026WAT      O75319   0.799   5.852   2.126
25026WAT     H175320   0.754   5.870   2.214
25026WAT     H275321   0.869   5.781   2.139
25027WAT      O75322   9.444   2.811   3.235
25027WAT     H175323   9.502   2.767   3.304
25027WAT     H275324   9.377   2.744   3.201
25028WAT      O75325   5.352   4.010   3.426
25028WAT     H175326   5.287   4.068   3.476
25028WAT     H275327   5.394   3.946   3.490
25029WAT      O75328   9.568   1.253   3.617
25029WAT     H175329   9.582   1.165   3.662
25029WAT     H275330   9.641   1.269   3.551
25030WAT      O75331   9.663   1.856   8.411
25030WAT     H175332   9.695   1.816   8.325
25030WAT     H275333   9.722   1.934   8.436
25031WAT      O75334   7.399   0.202   9.500
25031WAT     H175335   7.301   0.198   9.482
25031WAT     H275336   7.429   0.297   9.505
25032WAT      O75337   5.318   3.867   8.102
25032WAT     H175338   5.409   3.887   8.136
25032WAT     H275339   5.296   3.771   8.118
25033WAT      O75340   5.214   7.300   1.972
25033WAT     H175341   5.239   7.396   1.964
25033WAT     H275342   5.297   7.244   1.971
25034WAT      O75343   8.760   0.984   7.404
25034WAT     H175344   8.756   1.039   7.488
25034WAT     H275345   8.846   0.932   7.403
25035WAT      O75346   1.736   2.899   0.610
25035WAT     H175347   1.666   2.966   0.583
25035WAT     H275348   1.752   2.906   0.709
25036WAT      O75349   6.923   0.376   9.340
25036WAT     H175350   7.005   0.319   9.345
25036WAT     H275351   6.904   0.414   9.431
25037WAT      O75352   3.245   3.744   6.631
25037WAT     H175353   3.153   3.782   6.640
25037WAT     H275354   3.247   3.683   6.551
25038WAT      O75355   9.061   9.818   1.218
25038WAT     H175356   9.149   9.842   1.259
25038WAT     H275357   9.052   9.718   1.214
25039WAT      O75358   5.276   1.777   6.583
25039WAT     H175359   5.262   1.680   6.566
25039WAT     H275360   5.315   1.789   6.675
25040WAT      O75361   8.648   1.452   4.919
25040WAT     H175362   8.595   1.400   4.987
25040WAT     H275363   8.681   1.390   4.848
25041WAT      O75364   0.668   7.105   2.037
25041WAT     H175365   0.612   7.173   1.990
25041WAT     H275366   0.628   7.085   2.127
25042WAT      O75367   1.805   3.684   6.586
25042WAT     H175368   1.756   3.732   6.658
25042WAT     H275369   1.783   3.724   6.497
25043WAT      O75370   0.699   0.964   2.556
25043WAT     H175371   0.658   1.047   2.595
25043WAT     H275372   0.675   0.885   2.612
25044WAT      O75373   0.732   2.801   2.046
25044WAT     H175374   0.635   2.813   2.021
25044WAT     H275375   0.743   2.717   2.099
25045WAT      O75376   6.986   0.139   3.588
25045WAT     H175377   6.898   0.093   3.573
25045WAT     H275378   7.002   0.204   3.514
25046WAT      O75379   0.296   3.436   8.156
25046WAT     H175380   0.317   3.495   8.078
25046WAT     H275381   0.254   3.352   8.123
25047WAT      O75382   3.635   7.025   3.693
25047WAT     H175383   3.654   6.982   3.605
25047WAT     H275384   3.720   7.063   3.731
25048WAT      O75385   9.685   9.548   0.645
25048WAT     H175386   9.678   9.535   0.744
25048WAT     H275387   9.594   9.550   0.605
25049WAT      O75388   4.147   7.570   4.610
25049WAT     H175389   4.119   7.510   4.535
25049WAT     H275390   4.158   7.663   4.577
25050WAT      O75391   0.387   6.604   4.847
25050WAT     H175392   0.293   6.601   4.815
25050WAT     H275393   0.389   6.601   4.947
25051WAT      O75394   0.137   1.120   1.171
25051WAT     H175395   0.047   1.141   1.209
25051WAT     H275396   0.189   1.066   1.237
25052WAT      O75397   8.435   1.649   4.521
25052WAT     H175398   8.453   1.663   4.618
25052WAT     H275399   8.509   1.691   4.468
25053WAT      O75400   1.777   5.953   0.978
25053WAT     H175401   1.783   5.981   1.074
25053WAT     H275402   1.703   5.886   0.968
25054WAT      O75403   0.717   0.845   1.184
25054WAT     H175404   0.801   0.888   1.216
25054WAT     H275405   0.735   0.750   1.161
25055WAT      O75406   4.948   0.012   2.953
25055WAT     H175407   4.918  -0.028   3.040
25055WAT     H275408   4.977  -0.061   2.892
25056WAT      O75409   0.773   8.959   8.421
25056WAT     H175410   0.700   9.024   8.403
25056WAT     H275411   0.848   8.974   8.355
25057WAT      O75412   3.096   5.618   2.164
25057WAT     H175413   3.194   5.595   2.169
25057WAT     H275414   3.085   5.704   2.114
25058WAT      O75415   2.204   2.987   3.062
25058WAT     H175416   2.184   3.083   3.082
25058WAT     H275417   2.200   2.971   2.963
25059WAT      O75418   6.435   8.639   4.822
25059WAT     H175419   6.535   8.637   4.825
25059WAT     H275420   6.405   8.696   4.745
25060WAT      O75421   7.841   4.931   6.933
25060WAT     H175422   7.893   4.958   7.015
25060WAT     H275423   7.901   4.880   6.872
25061WAT      O75424   7.052   4.135   2.434
25061WAT     H175425   7.002   4.106   2.353
25061WAT     H275426   7.133   4.077   2.446
25062WAT      O75427   6.163   6.412   4.101
25062WAT     H175428   6.107   6.415   4.184
25062WAT     H275429   6.109   6.442   4.023
25063WAT      O75430   5.185   0.469   8.385
25063WAT     H175431   5.159   0.442   8.478
25063WAT     H275432   5.233   0.394   8.340
25064WAT      O75433   9.530   1.443   0.279
25064WAT     H175434   9.586   1.488   0.210
25064WAT     H275435   9.459   1.505   0.311
25065WAT      O75436   7.808   8.254   0.488
25065WAT     H175437   7.735   8.229   0.551
25065WAT     H275438   7.887   8.194   0.503
25066WAT      O75439   7.358   2.457   1.446
25066WAT     H175440   7.411   2.507   1.378
25066WAT     H275441   7.298   2.391   1.401
25067WAT      O75442   0.990   3.970   5.356
25067WAT     H175443   1.031   3.939   5.270
25067WAT     H275444   1.028   4.059   5.381
25068WAT      O75445   0.185   9.721   0.887
25068WAT     H175446   0.188   9.642   0.948
25068WAT     H275447   0.091   9.757   0.884
25069WAT      O75448   2.945   7.328   1.095
25069WAT     H175449   2.862   7.339   1.040
25069WAT     H275450   3.022   7.371   1.047
25070WAT      O75451   0.024   7.129   1.121
25070WAT     H175452   0.044   7.066   1.046
25070WAT     H275453   0.024   7.223   1.087
25071WAT      O75454   0.103   0.682   4.577
25071WAT     H175455   0.091   0.610   4.509
25071WAT     H275456   0.133   0.641   4.664
25072WAT      O75457   4.000   9.101   2.976
25072WAT     H175458   3.935   9.170   2.945
25072WAT     H275459   4.012   9.108   3.075
25073WAT      O75460   7.227   3.200   9.145
25073WAT     H175461   7.149   3.261   9.158
25073WAT     H275462   7.310   3.245   9.177
25074WAT      O75463   6.351   8.177   1.166
25074WAT     H175464   6.264   8.139   1.199
25074WAT     H275465   6.427   8.122   1.201
25075WAT      O75466   2.851   4.093   2.159
25075WAT     H175467   2.940   4.134   2.179
25075WAT     H275468   2.809   4.062   2.244
25076WAT      O75469   4.150   2.029   6.527
25076WAT     H175470   4.122   2.116   6.569
25076WAT     H275471   4.147   1.957   6.595
25077WAT      O75472   2.761   5.969   6.272
25077WAT     H175473   2.799   5.982   6.181
25077WAT     H275474   2.825   6.004   6.340
25078WAT      O75475   8.973   7.880   0.831
25078WAT     H175476   8.899   7.821   0.797
25078WAT     H275477   9.042   7.892   0.760
25079WAT      O75478   8.993   3.491   0.049
25079WAT     H175479   8.914   3.479   0.108
25079WAT     H275480   9.074   3.453   0.094
25080WAT      O75481   0.693   2.220   5.686
25080WAT     H175482   0.628   2.291   5.712
25080WAT     H275483   0.650   2.131   5.692
25081WAT      O75484   5.221   1.776   8.218
25081WAT     H175485   5.167   1.847   8.174
25081WAT     H275486   5.161   1.720   8.276
25082WAT      O75487   1.989   4.580   9.210
25082WAT     H175488   2.048   4.622   9.279
25082WAT     H275489   1.999   4.629   9.123
25083WAT      O75490   1.718   7.626   8.350
25083WAT     H175491   1.642   7.561   8.353
25083WAT     H275492   1.757   7.637   8.441
25084WAT      O75493   3.668   0.670   3.089
25084WAT     H175494   3.637   0.759   3.122
25084WAT     H275495   3.759   0.679   3.047
25085WAT      O75496   9.803   4.181   9.215
25085WAT     H175497   9.707   4.162   9.237
25085WAT     H275498   9.842   4.105   9.164
25086WAT      O75499   3.944   6.342   0.646
25086WAT     H175500   3.995   6.424   0.618
25086WAT     H275501   3.853   6.343   0.605
25087WAT      O75502   7.995   8.561   1.190
25087WAT     H175503   7.976   8.633   1.125
25087WAT     H275504   7.910   8.514   1.214
25088WAT      O75505   6.604   1.316   3.606
25088WAT     H175506   6.634   1.232   3.561
25088WAT     H275507   6.665   1.337   3.682
25089WAT      O75508   2.611   0.030   5.049
25089WAT     H175509   2.547  -0.037   5.087
25089WAT     H275510   2.559   0.102   5.003
25090WAT      O75511   6.747   9.617   6.328
25090WAT     H175512   6.655   9.656   6.321
25090WAT     H275513   6.741   9.517   6.328
25091WAT      O75514   2.658   5.295   6.245
25091WAT     H175515   2.578   5.353   6.263
25091WAT     H275516   2.648   5.251   6.156
25092WAT      O75517   4.566   7.859   4.895
25092WAT     H175518   4.569   7.782   4.830
25092WAT     H275519   4.498   7.925   4.864
25093WAT      O75520   0.492   4.256   8.604
25093WAT     H175521   0.481   4.305   8.517
25093WAT     H275522   0.571   4.293   8.653
25094WAT      O75523   3.456   3.198   4.591
25094WAT     H175524   3.473   3.107   4.553
25094WAT     H275525   3.358   3.215   4.594
25095WAT      O75526   3.736   1.280   1.260
25095WAT     H175527   3.758   1.375   1.281
25095WAT     H275528   3.796   1.220   1.313
25096WAT      O75529   3.839   6.907   6.604
25096WAT     H175530   3.819   6.818   6.646
25096WAT     H275531   3.907   6.895   6.532
25097WAT      O75532   9.517   4.894   1.500
25097WAT     H175533   9.475   4.979   1.532
25097WAT     H275534   9.593   4.870   1.561
25098WAT      O75535   2.373   8.639   1.830
25098WAT     H175536   2.418   8.638   1.919
25098WAT     H275537   2.330   8.550   1.813
25099WAT      O75538   1.164   2.613   7.117
25099WAT     H175539   1.097   2.618   7.042
25099WAT     H275540   1.244   2.668   7.094
25100WAT      O75541   8.304   7.386   9.110
25100WAT     H175542   8.401   7.393   9.132
25100WAT     H275543   8.249   7.418   9.187
25101WAT      O75544   6.385   4.948   9.709
25101WAT     H175545   6.328   5.006   9.768
25101WAT     H275546   6.465   4.917   9.760
25102WAT      O75547   0.591   1.016   6.026
25102WAT     H175548   0.570   1.113   6.015
25102WAT     H275549   0.590   0.992   6.123
25103WAT      O75550   6.307   7.637   3.794
25103WAT     H175551   6.225   7.670   3.842
25103WAT     H275552   6.280   7.571   3.725
25104WAT      O75553   5.627   3.125   6.860
25104WAT     H175554   5.668   3.206   6.817
25104WAT     H275555   5.533   3.145   6.887
25105WAT      O75556   4.299   8.260   7.965
25105WAT     H175557   4.242   8.298   7.892
25105WAT     H275558   4.253   8.181   8.005
25106WAT      O75559   5.143   7.430   1.409
25106WAT     H175560   5.094   7.378   1.479
25106WAT     H275561   5.166   7.520   1.444
25107WAT      O75562   9.639   6.831   9.212
25107WAT     H175563   9.660   6.872   9.123
25107WAT     H275564   9.637   6.731   9.203
25108WAT      O75565   1.825   8.769   6.631
25108WAT     H175566   1.758   8.780   6.704
25108WAT     H275567   1.879   8.853   6.622
25109WAT      O75568   6.186   5.285   6.096
25109WAT     H175569   6.193   5.374   6.141
25109WAT     H275570   6.159   5.216   6.163
25110WAT      O75571   0.234   8.039   7.191
25110WAT     H175572   0.304   8.000   7.250
25110WAT     H275573   0.154   7.980   7.190
25111WAT      O75574   1.158   6.619   6.601
25111WAT     H175575   1.139   6.551   6.672
25111WAT     H275576   1.116   6.590   6.515
25112WAT      O75577   9.284   4.911   9.420
25112WAT     H175578   9.200   4.879   9.465
25112WAT     H275579   9.301   4.857   9.338
25113WAT      O75580   8.372   2.447   6.810
25113WAT     H175581   8.372   2.349   6.827
25113WAT     H275582   8.279   2.478   6.790
25114WAT      O75583   4.813   7.394   7.960
25114WAT     H175584   4.807   7.487   7.997
25114WAT     H275585   4.762   7.331   8.019
25115WAT      O75586   7.702   5.656   7.143
25115WAT     H175587   7.684   5.753   7.162
25115WAT     H275588   7.796   5.646   7.108
25116WAT      O75589   0.172   6.500   7.423
25116WAT     H175590   0.175   6.422   7.485
25116WAT     H275591   0.261   6.545   7.421
25117WAT      O75592   8.155   5.319   1.202
25117WAT     H175593   8.229   5.283   1.145
25117WAT     H275594   8.076   5.258   1.196
25118WAT      O75595   0.593   7.380   8.206
25118WAT     H175596   0.516   7.444   8.215
25118WAT     H275597   0.565   7.290   8.238
25119WAT      O75598   4.234   4.622   8.381
25119WAT     H175599   4.292   4.591   8.457
25119WAT     H275600   4.147   4.656   8.417
25120WAT      O75601   6.035   8.646   1.903
25120WAT     H175602   5.991   8.623   1.816
25120WAT     H275603   5.992   8.594   1.976
25121WAT      O75604   0.324   9.292   8.038
25121WAT     H175605   0.309   9.221   8.108
25121WAT     H275606   0.257   9.281   7.965
25122WAT      O75607   0.680   0.583   0.459
25122WAT     H175608   0.703   0.651   0.390
25122WAT     H275609   0.763   0.545   0.498
25123WAT      O75610   1.049   1.648   5.752
25123WAT     H175611   0.972   1.702   5.786
25123WAT     H275612   1.015   1.575   5.693
25124WAT      O75613   2.722   1.420   4.253
25124WAT     H175614   2.626   1.401   4.230
25124WAT     H275615   2.729   1.439   4.350
25125WAT      O75616   1.746   3.756   3.437
25125WAT     H175617   1.772   3.839   3.388
25125WAT     H275618   1.689   3.699   3.377
25126WAT      O75619   3.745   8.747   2.434
25126WAT     H175620   3.723   8.667   2.490
25126WAT     H275621   3.775   8.717   2.343
25127WAT      O75622   4.027   4.868   2.366
25127WAT     H175623   3.993   4.839   2.455
25127WAT     H275624   3.999   4.802   2.296
25128WAT      O75625   5.216   1.086   6.349
25128WAT     H175626   5.175   0.996   6.360
25128WAT     H275627   5.272   1.108   6.429
25129WAT      O75628   7.508   0.226   6.081
25129WAT     H175629   7.452   0.148   6.108
25129WAT     H275630   7.604   0.201   6.084
25130WAT      O75631   2.291   7.987   2.884
25130WAT     H175632   2.251   7.896   2.871
25130WAT     H275633   2.311   8.028   2.795
25131WAT      O75634   1.845   6.980   3.371
25131WAT     H175635   1.904   7.019   3.300
25131WAT     H275636   1.863   6.882   3.380
25132WAT      O75637   5.462   4.297   3.442
25132WAT     H175638   5.476   4.266   3.348
25132WAT     H275639   5.501   4.389   3.453
25133WAT      O75640   3.779   0.079   2.495
25133WAT     H175641   3.769   0.035   2.406
25133WAT     H275642   3.694   0.071   2.546
25134WAT      O75643   7.285   3.642   2.301
25134WAT     H175644   7.279   3.681   2.393
25134WAT     H275645   7.260   3.712   2.234
25135WAT      O75646   0.001   3.085   9.771
25135WAT     H175647   0.010   3.153   9.698
25135WAT     H275648   0.013   3.129   9.860
25136WAT      O75649   9.825   7.156   5.130
25136WAT     H175650   9.861   7.179   5.040
25136WAT     H275651   9.796   7.239   5.177
25137WAT      O75652   7.282   8.061   6.150
25137WAT     H175653   7.282   8.159   6.170
25137WAT     H275654   7.289   8.010   6.236
25138WAT      O75655   9.154   0.180   7.139
25138WAT     H175656   9.068   0.132   7.158
25138WAT     H275657   9.229   0.113   7.132
25139WAT      O75658   1.518   9.472   7.524
25139WAT     H175659   1.443   9.458   7.590
25139WAT     H275660   1.488   9.443   7.433
25140WAT      O75661   1.948   3.322   7.137
25140WAT     H175662   1.929   3.417   7.114
25140WAT     H275663   2.041   3.299   7.107
25141WAT      O75664   1.429   2.095   9.699
25141WAT     H175665   1.491   2.017   9.686
25141WAT     H275666   1.449   2.165   9.630
25142WAT      O75667   0.897   7.640   4.806
25142WAT     H175668   0.829   7.690   4.753
25142WAT     H275669   0.894   7.672   4.901
25143WAT      O75670   6.266   4.266   6.111
25143WAT     H175671   6.329   4.327   6.158
25143WAT     H275672   6.176   4.271   6.154
25144WAT      O75673   8.926   1.455   9.691
25144WAT     H175674   8.865   1.522   9.733
25144WAT     H275675   8.958   1.490   9.602
25145WAT      O75676   4.344   1.449   5.408
25145WAT     H175677   4.425   1.506   5.394
25145WAT     H275678   4.276   1.471   5.339
25146WAT      O75679   8.524   2.743   1.507
25146WAT     H175680   8.496   2.726   1.602
25146WAT     H275681   8.612   2.789   1.506
25147WAT      O75682   8.787   5.433   7.242
25147WAT     H175683   8.696   5.406   7.211
25147WAT     H275684   8.847   5.446   7.163
25148WAT      O75685   2.743   4.550   5.547
25148WAT     H175686   2.806   4.580   5.476
25148WAT     H275687   2.698   4.629   5.587
25149WAT      O75688   1.304   1.748   2.553
25149WAT     H175689   1.255   1.700   2.626
25149WAT     H275690   1.345   1.681   2.492
25150WAT      O75691   5.351   8.097   0.325
25150WAT     H175692   5.306   8.055   0.246
25150WAT     H275693   5.446   8.067   0.329
25151WAT      O75694   9.830   3.530   6.794
25151WAT     H175695   9.837   3.570   6.885
25151WAT     H275696   9.849   3.600   6.725
25152WAT      O75697   6.784   8.099   6.207
25152WAT     H175698   6.793   8.149   6.292
25152WAT     H275699   6.804   8.002   6.223
25153WAT      O75700   0.593   1.754   3.458
25153WAT     H175701   0.555   1.698   3.532
25153WAT     H275702   0.648   1.828   3.497
25154WAT      O75703   3.246   2.806   2.130
25154WAT     H175704   3.158   2.820   2.084
25154WAT     H275705   3.230   2.774   2.223
25155WAT      O75706   4.438   6.597   5.888
25155WAT     H175707   4.437   6.688   5.846
25155WAT     H275708   4.524   6.550   5.865
25156WAT      O75709   9.311   6.539   9.532
25156WAT     H175710   9.233   6.519   9.472
25156WAT     H275711   9.371   6.604   9.487
25157WAT      O75712   5.792   1.484   6.639
25157WAT     H175713   5.818   1.421   6.565
25157WAT     H275714   5.692   1.495   6.639
25158WAT      O75715   8.236   3.236   1.181
25158WAT     H175716   8.243   3.323   1.231
25158WAT     H275717   8.173   3.247   1.104
25159WAT      O75718   1.005   4.773   5.268
25159WAT     H175719   1.011   4.831   5.350
25159WAT     H275720   0.983   4.830   5.189
25160WAT      O75721   6.474   2.888   8.276
25160WAT     H175722   6.554   2.889   8.215
25160WAT     H275723   6.430   2.978   8.274
25161WAT      O75724   1.476   5.685   8.986
25161WAT     H175725   1.420   5.751   9.037
25161WAT     H275726   1.446   5.592   9.009
25162WAT      O75727   1.258   1.565   1.207
25162WAT     H175728   1.269   1.663   1.222
25162WAT     H275729   1.175   1.548   1.153
25163WAT      O75730   6.589   3.399   1.156
25163WAT     H175731   6.688   3.414   1.153
25163WAT     H275732   6.568   3.308   1.121
25164WAT      O75733   5.943   9.465   9.880
25164WAT     H175734   5.990   9.466   9.792
25164WAT     H275735   6.006   9.494   9.952
25165WAT      O75736   7.438   3.567   2.843
25165WAT     H175737   7.475   3.635   2.780
25165WAT     H275738   7.351   3.533   2.809
25166WAT      O75739   7.442   8.873   5.599
25166WAT     H175740   7.346   8.863   5.571
25166WAT     H275741   7.456   8.966   5.634
25167WAT      O75742   0.547   5.798   1.214
25167WAT     H175743   0.604   5.838   1.286
25167WAT     H275744   0.522   5.705   1.239
25168WAT      O75745   5.498   8.180   5.730
25168WAT     H175746   5.522   8.190   5.634
25168WAT     H275747   5.431   8.250   5.755
25169WAT      O75748   0.252   2.139   9.421
25169WAT     H175749   0.234   2.041   9.423
25169WAT     H275750   0.286   2.169   9.510
25170WAT      O75751   5.366   0.748   6.753
25170WAT     H175752   5.344   0.760   6.656
25170WAT     H275753   5.333   0.658   6.783
25171WAT      O75754   3.909   9.021   1.375
25171WAT     H175755   3.847   8.966   1.432
25171WAT     H275756   3.912   9.114   1.410
25172WAT      O75757   3.838   2.559   6.871
25172WAT     H175758   3.922   2.514   6.843
25172WAT     H275759   3.826   2.549   6.970
25173WAT      O75760   0.039   6.821   7.829
25173WAT     H175761   0.006   6.731   7.858
25173WAT     H275762   0.085   6.866   7.905
25174WAT      O75763   9.879   0.559   9.357
25174WAT     H175764   9.780   0.548   9.367
25174WAT     H275765   9.903   0.556   9.260
25175WAT      O75766   4.692   3.468   7.959
25175WAT     H175767   4.636   3.528   8.016
25175WAT     H275768   4.750   3.412   8.018
25176WAT      O75769   7.429   8.274   6.969
25176WAT     H175770   7.378   8.252   6.885
25176WAT     H275771   7.402   8.211   7.041
25177WAT      O75772   1.728   0.917   4.027
25177WAT     H175773   1.648   0.890   3.973
25177WAT     H275774   1.811   0.883   3.983
25178WAT      O75775   6.633   8.688   8.617
25178WAT     H175776   6.590   8.644   8.538
25178WAT     H275777   6.645   8.621   8.690
25179WAT      O75778   6.777   7.762   7.059
25179WAT     H175779   6.814   7.672   7.080
25179WAT     H275780   6.794   7.823   7.136
25180WAT      O75781   9.210   7.910   1.451
25180WAT     H175782   9.184   7.999   1.489
25180WAT     H275783   9.225   7.919   1.352
25181WAT      O75784   0.873   4.826   5.571
25181WAT     H175785   0.968   4.856   5.572
25181WAT     H275786   0.820   4.887   5.512
25182WAT      O75787   2.955   3.191   6.264
25182WAT     H175788   2.988   3.214   6.355
25182WAT     H275789   2.951   3.274   6.208
25183WAT      O75790   8.863   0.833   0.380
25183WAT     H175791   8.778   0.806   0.424
25183WAT     H275792   8.850   0.921   0.334
25184WAT      O75793   4.740   2.819   3.584
25184WAT     H175794   4.749   2.883   3.507
25184WAT     H275795   4.739   2.870   3.670
25185WAT      O75796   1.629   0.690   7.226
25185WAT     H175797   1.725   0.713   7.210
25185WAT     H275798   1.613   0.594   7.203
25186WAT      O75799   1.360   6.293   0.293
25186WAT     H175800   1.408   6.258   0.213
25186WAT     H275801   1.270   6.328   0.264
25187WAT      O75802   8.337   7.976   6.215
25187WAT     H175803   8.331   8.047   6.286
25187WAT     H275804   8.406   8.002   6.148
25188WAT      O75805   8.638   5.079   7.809
25188WAT     H175806   8.699   5.028   7.748
25188WAT     H275807   8.633   5.033   7.897
25189WAT      O75808   7.435   3.806   1.135
25189WAT     H175809   7.446   3.783   1.038
25189WAT     H275810   7.339   3.796   1.160
25190WAT      O75811   4.884   1.778   5.911
25190WAT     H175812   4.931   1.705   5.960
25190WAT     H275813   4.802   1.741   5.868
25191WAT      O75814   7.412   1.327   8.905
25191WAT     H175815   7.356   1.246   8.892
25191WAT     H275816   7.508   1.300   8.916
25192WAT      O75817   9.535   7.967   9.081
25192WAT     H175818   9.632   7.981   9.100
25192WAT     H275819   9.492   8.055   9.061
25193WAT      O75820   1.888   5.756   9.246
25193WAT     H175821   1.841   5.722   9.165
25193WAT     H275822   1.886   5.856   9.246
25194WAT      O75823   2.574   0.341   2.630
25194WAT     H175824   2.599   0.340   2.534
25194WAT     H275825   2.489   0.291   2.644
25195WAT      O75826   0.045   5.016   9.664
25195WAT     H175827   0.094   5.015   9.751
25195WAT     H275828   0.077   5.093   9.609
25196WAT      O75829   2.082   0.131   2.846
25196WAT     H175830   2.038   0.049   2.809
25196WAT     H275831   2.064   0.138   2.944
25197WAT      O75832   3.061   5.478   3.736
25197WAT     H175833   3.075   5.471   3.835
25197WAT     H275834   3.141   5.440   3.689
25198WAT      O75835   3.909   6.394   5.297
25198WAT     H175836   3.826   6.448   5.282
25198WAT     H275837   3.989   6.454   5.293
25199WAT      O75838   0.051   2.851   5.809
25199WAT     H175839  -0.018   2.791   5.769
25199WAT     H275840   0.007   2.930   5.850
25200WAT      O75841   9.336   2.781   2.020
25200WAT     H175842   9.416   2.738   2.063
25200WAT     H275843   9.368   2.843   1.948
25201WAT      O75844   3.487   7.699   0.572
25201WAT     H175845   3.464   7.604   0.550
25201WAT     H275846   3.519   7.704   0.667
25202WAT      O75847   6.566   8.020   1.218
25202WAT     H175848   6.614   7.961   1.153
25202WAT     H275849   6.610   8.110   1.219
25203WAT      O75850   7.924   4.076   0.530
25203WAT     H175851   7.946   3.984   0.563
25203WAT     H275852   7.857   4.069   0.456
25204WAT      O75853   6.389   0.888   8.996
25204WAT     H175854   6.446   0.815   8.959
25204WAT     H275855   6.396   0.890   9.095
25205WAT      O75856   5.085   3.977   0.720
25205WAT     H175857   5.098   3.878   0.708
25205WAT     H275858   5.131   4.026   0.647
25206WAT      O75859   6.507   8.375   5.853
25206WAT     H175860   6.465   8.465   5.837
25206WAT     H275861   6.442   8.317   5.902
25207WAT      O75862   8.735   7.706   3.949
25207WAT     H175863   8.796   7.698   4.029
25207WAT     H275864   8.645   7.736   3.979
25208WAT      O75865   4.782   2.508   0.339
25208WAT     H175866   4.738   2.428   0.380
25208WAT     H275867   4.854   2.478   0.276
25209WAT      O75868   8.987   6.089   8.152
25209WAT     H175869   9.029   6.122   8.067
25209WAT     H275870   9.013   5.994   8.167
25210WAT      O75871   6.632   9.067   7.672
25210WAT     H175872   6.574   9.147   7.656
25210WAT     H275873   6.575   8.985   7.671
25211WAT      O75874   3.996   8.029   0.479
25211WAT     H175875   4.064   7.972   0.524
25211WAT     H275876   3.920   7.972   0.447
25212WAT      O75877   3.201   9.143   1.480
25212WAT     H175878   3.114   9.119   1.523
25212WAT     H275879   3.213   9.092   1.396
25213WAT      O75880   0.027   1.118   3.034
25213WAT     H175881   0.116   1.112   2.990
25213WAT     H275882   0.007   1.213   3.056
25214WAT      O75883   7.880   8.467   5.118
25214WAT     H175884   7.967   8.494   5.160
25214WAT     H275885   7.830   8.548   5.091
25215WAT      O75886   3.044   2.912   5.677
25215WAT     H175887   3.137   2.923   5.643
25215WAT     H275888   3.030   2.973   5.756
25216WAT      O75889   3.181   8.190   7.252
25216WAT     H175890   3.248   8.254   7.216
25216WAT     H275891   3.229   8.109   7.287
25217WAT      O75892   8.274   3.708   0.739
25217WAT     H175893   8.244   3.779   0.802
25217WAT     H275894   8.339   3.746   0.674
25218WAT      O75895   0.159   2.747   6.659
25218WAT     H175896   0.064   2.775   6.671
25218WAT     H275897   0.208   2.816   6.607
25219WAT      O75898   6.719   0.672   1.541
25219WAT     H175899   6.644   0.697   1.480
25219WAT     H275900   6.782   0.749   1.550
25220WAT      O75901   0.981   3.218   3.993
25220WAT     H175902   1.051   3.284   4.021
25220WAT     H275903   0.982   3.140   4.055
25221WAT      O75904   8.606   2.795   9.645
25221WAT     H175905   8.543   2.864   9.681
25221WAT     H275906   8.596   2.710   9.698
25222WAT      O75907   2.338   9.355   7.687
25222WAT     H175908   2.384   9.420   7.749
25222WAT     H275909   2.393   9.344   7.604
25223WAT      O75910   0.198   2.986   6.845
25223WAT     H175911   0.289   3.026   6.858
25223WAT     H275912   0.205   2.906   6.786
25224WAT      O75913   7.244   5.983   6.100
25224WAT     H175914   7.292   6.018   6.180
25224WAT     H275915   7.148   5.966   6.123
25225WAT      O75916   5.593   9.344   5.593
25225WAT     H175917   5.583   9.295   5.505
25225WAT     H275918   5.517   9.409   5.602
25226WAT      O75919   1.219   3.294   3.680
25226WAT     H175920   1.204   3.197   3.698
25226WAT     H275921   1.296   3.304   3.617
25227WAT      O75922   4.062   7.556   6.276
25227WAT     H175923   4.152   7.513   6.267
25227WAT     H275924   4.053   7.630   6.209
25228WAT      O75925   9.651   3.564   7.645
25228WAT     H175926   9.675   3.567   7.742
25228WAT     H275927   9.691   3.643   7.599
25229WAT      O75928   1.077   5.413   6.209
25229WAT     H175929   0.983   5.395   6.238
25229WAT     H275930   1.078   5.493   6.149
25230WAT      O75931   7.576   0.126   2.762
25230WAT     H175932   7.519   0.201   2.796
25230WAT     H275933   7.540   0.039   2.795
25231WAT      O75934   1.012   5.985   0.088
25231WAT     H175935   1.083   5.915   0.083
25231WAT     H275936   1.009   6.022   0.181
25232WAT      O75937   5.667   5.149   1.581
25232WAT     H175938   5.678   5.166   1.679
25232WAT     H275939   5.722   5.070   1.554
25233WAT      O75940   6.834   3.578   4.713
25233WAT     H175941   6.802   3.486   4.733
25233WAT     H275942   6.767   3.645   4.744
25234WAT      O75943   9.636   8.342   3.357
25234WAT     H175944   9.615   8.340   3.260
25234WAT     H275945   9.552   8.350   3.410
25235WAT      O75946   9.774   6.466   5.685
25235WAT     H175947   9.707   6.519   5.632
25235WAT     H275948   9.766   6.370   5.661
25236WAT      O75949   3.913   3.043   8.420
25236WAT     H175950   3.828   3.067   8.373
25236WAT     H275951   3.970   3.124   8.429
25237WAT      O75952   0.723   5.925   2.374
25237WAT     H175953   0.755   6.000   2.430
25237WAT     H275954   0.704   5.845   2.431
25238WAT      O75955   9.375   6.067   4.851
25238WAT     H175956   9.398   6.152   4.803
25238WAT     H275957   9.313   6.087   4.927
25239WAT      O75958   2.591   1.519   7.366
25239WAT     H175959   2.496   1.548   7.376
25239WAT     H275960   2.606   1.489   7.271
25240WAT      O75961   0.034   6.924   9.177
25240WAT     H175962  -0.054   6.892   9.211
25240WAT     H275963   0.098   6.933   9.253
25241WAT      O75964   2.462   9.731   7.412
25241WAT     H175965   2.529   9.657   7.408
25241WAT     H275966   2.390   9.715   7.345
25242WAT      O75967   8.145   0.004   9.636
25242WAT     H175968   8.063  -0.044   9.668
25242WAT     H275969   8.141   0.099   9.664
25243WAT      O75970   4.330   6.189   9.207
25243WAT     H175971   4.325   6.173   9.108
25243WAT     H275972   4.374   6.277   9.224
25244WAT      O75973   2.399   6.101   1.672
25244WAT     H175974   2.435   6.164   1.604
25244WAT     H275975   2.428   6.008   1.650
25245WAT      O75976   1.560   2.542   1.487
25245WAT     H175977   1.594   2.471   1.425
25245WAT     H275978   1.637   2.592   1.525
25246WAT      O75979   5.048   5.419   6.219
25246WAT     H175980   5.012   5.449   6.307
25246WAT     H275981   4.978   5.367   6.170
25247WAT      O75982   6.038   8.916   7.091
25247WAT     H175983   6.025   8.839   7.028
25247WAT     H275984   6.135   8.927   7.112
25248WAT      O75985   6.801   5.060   0.884
25248WAT     H175986   6.835   5.128   0.948
25248WAT     H275987   6.761   4.984   0.935
25249WAT      O75988   3.128   0.904   7.973
25249WAT     H175989   3.181   0.834   8.020
25249WAT     H275990   3.032   0.875   7.967
25250WAT      O75991   0.726   7.796   4.651
25250WAT     H175992   0.704   7.728   4.581
25250WAT     H275993   0.792   7.862   4.614
25251WAT      O75994   3.254   9.597   0.113
25251WAT     H175995   3.316   9.620   0.038
25251WAT     H275996   3.292   9.631   0.199
25252WAT      O75997   1.472   0.609   6.570
25252WAT     H175998   1.445   0.672   6.498
25252WAT     H275999   1.532   0.655   6.636
25253WAT      O76000   3.813   0.039   9.256
25253WAT     H176001   3.761  -0.007   9.185
25253WAT     H276002   3.889   0.090   9.214
25254WAT      O76003   3.736   6.916   7.187
25254WAT     H176004   3.760   6.823   7.159
25254WAT     H276005   3.666   6.952   7.125
25255WAT      O76006   6.325   6.030   7.599
25255WAT     H176007   6.283   6.099   7.658
25255WAT     H276008   6.318   5.940   7.643
25256WAT      O76009   3.147   0.530   1.583
25256WAT     H176010   3.186   0.450   1.628
25256WAT     H276011   3.049   0.517   1.571
25257WAT      O76012   0.244   4.009   8.901
25257WAT     H176013   0.274   4.102   8.920
25257WAT     H276014   0.304   3.944   8.947
25258WAT      O76015   0.844   6.810   3.248
25258WAT     H176016   0.885   6.885   3.299
25258WAT     H276017   0.897   6.793   3.165
25259WAT      O76018   2.868   3.292   5.422
25259WAT     H176019   2.780   3.319   5.461
25259WAT     H276020   2.853   3.251   5.332
25260WAT      O76021   4.246   5.735   9.254
25260WAT     H176022   4.324   5.797   9.245
25260WAT     H276023   4.228   5.718   9.351
25261WAT      O76024   3.874   0.377   5.046
25261WAT     H176025   3.820   0.412   4.969
25261WAT     H276026   3.914   0.289   5.021
25262WAT      O76027   7.790   4.877   9.646
25262WAT     H176028   7.858   4.857   9.576
25262WAT     H276029   7.789   4.975   9.664
25263WAT      O76030   0.213   2.460   4.220
25263WAT     H176031   0.192   2.430   4.313
25263WAT     H276032   0.129   2.485   4.172
25264WAT      O76033   3.172   2.625   5.062
25264WAT     H176034   3.124   2.538   5.063
25264WAT     H276035   3.107   2.699   5.047
25265WAT      O76036   9.621   2.640   4.877
25265WAT     H176037   9.708   2.629   4.925
25265WAT     H276038   9.576   2.724   4.908
25266WAT      O76039   2.435   3.141   0.675
25266WAT     H176040   2.368   3.164   0.605
25266WAT     H276041   2.392   3.145   0.765
25267WAT      O76042   8.045   3.125   1.423
25267WAT     H176043   8.109   3.202   1.427
25267WAT     H276044   7.972   3.138   1.491
25268WAT      O76045   4.966   0.824   1.822
25268WAT     H176046   4.995   0.860   1.733
25268WAT     H276047   5.030   0.855   1.892
25269WAT      O76048   0.064   7.460   8.615
25269WAT     H176049   0.002   7.538   8.619
25269WAT     H276050   0.028   7.393   8.550
25270WAT      O76051   7.686   6.677   1.317
25270WAT     H176052   7.745   6.713   1.390
25270WAT     H276053   7.687   6.740   1.240
25271WAT      O76054   4.563   1.414   6.374
25271WAT     H176055   4.643   1.371   6.332
25271WAT     H276056   4.491   1.345   6.387
25272WAT      O76057   1.160   5.638   6.910
25272WAT     H176058   1.253   5.646   6.947
25272WAT     H276059   1.165   5.624   6.811
25273WAT      O76060   5.088   2.913   6.737
25273WAT     H176061   5.171   2.874   6.776
25273WAT     H276062   5.052   2.983   6.798
25274WAT      O76063   7.067   7.517   2.409
25274WAT     H176064   7.019   7.433   2.436
25274WAT     H276065   7.005   7.594   2.416
25275WAT      O76066   9.079   3.574   7.812
25275WAT     H176067   9.074   3.554   7.714
25275WAT     H276068   9.097   3.490   7.863
25276WAT      O76069   8.888   8.134   9.845
25276WAT     H176070   8.793   8.164   9.853
25276WAT     H276071   8.927   8.172   9.761
25277WAT      O76072   2.895   0.975   6.168
25277WAT     H176073   2.961   0.968   6.242
25277WAT     H276074   2.907   0.898   6.105
25278WAT      O76075   2.145   0.771   1.827
25278WAT     H176076   2.082   0.785   1.750
25278WAT     H276077   2.127   0.840   1.897
25279WAT      O76078   3.679   2.874   6.185
25279WAT     H176079   3.630   2.930   6.119
25279WAT     H276080   3.733   2.805   6.137
25280WAT      O76081   9.634   2.263   4.988
25280WAT     H176082   9.637   2.164   4.973
25280WAT     H276083   9.578   2.305   4.916
25281WAT      O76084   9.107   1.089   5.752
25281WAT     H176085   9.199   1.077   5.715
25281WAT     H276086   9.041   1.043   5.694
25282WAT      O76087   2.323   2.412   2.412
25282WAT     H176088   2.354   2.334   2.357
25282WAT     H276089   2.269   2.379   2.490
25283WAT      O76090   6.877   4.314   8.717
25283WAT     H176091   6.971   4.349   8.715
25283WAT     H276092   6.832   4.334   8.631
25284WAT      O76093   7.189   2.365   8.445
25284WAT     H176094   7.277   2.325   8.472
25284WAT     H276095   7.160   2.325   8.358
25285WAT      O76096   0.033   6.950   2.591
25285WAT     H176097   0.084   6.872   2.556
25285WAT     H276098   0.089   7.000   2.656
25286WAT      O76099   9.658   6.508   6.175
25286WAT     H176100   9.691   6.423   6.214
25286WAT     H276101   9.736   6.567   6.153
25287WAT      O76102   8.432   5.116   2.443
25287WAT     H176103   8.471   5.202   2.476
25287WAT     H276104   8.506   5.052   2.422
25288WAT      O76105   5.264   8.146   6.368
25288WAT     H176106   5.228   8.087   6.440
25288WAT     H276107   5.318   8.220   6.409
25289WAT      O76108   2.316   7.863   5.115
25289WAT     H176109   2.357   7.841   5.026
25289WAT     H276110   2.371   7.935   5.160
25290WAT      O76111   9.852   8.315   6.064
25290WAT     H176112   9.882   8.404   6.027
25290WAT     H276113   9.759   8.324   6.100
25291WAT      O76114   3.851   3.319   1.680
25291WAT     H176115   3.826   3.321   1.584
25291WAT     H276116   3.831   3.228   1.718
25292WAT      O76117   7.434   1.810   7.807
25292WAT     H176118   7.399   1.821   7.900
25292WAT     H276119   7.502   1.737   7.806
25293WAT      O76120   9.227   7.917   0.045
25293WAT     H176121   9.223   7.817   0.046
25293WAT     H276122   9.218   7.949  -0.050
25294WAT      O76123   3.084   8.568   6.562
25294WAT     H176124   3.041   8.658   6.557
25294WAT     H276125   3.143   8.555   6.482
25295WAT      O76126   2.024   6.942   9.224
25295WAT     H176127   1.985   6.878   9.158
25295WAT     H276128   2.084   6.893   9.287
25296WAT      O76129   1.764   7.128   6.141
25296WAT     H176130   1.812   7.084   6.216
25296WAT     H276131   1.694   7.189   6.177
25297WAT      O76132   1.117   5.995   2.553
25297WAT     H176133   1.162   5.937   2.486
25297WAT     H276134   1.130   5.957   2.645
25298WAT      O76135   6.393   1.422   4.342
25298WAT     H176136   6.429   1.352   4.280
25298WAT     H276137   6.337   1.486   4.291
25299WAT      O76138   4.739   2.098   0.037
25299WAT     H176139   4.662   2.157   0.059
25299WAT     H276140   4.784   2.070   0.121
25300WAT      O76141   7.189   4.760   5.643
25300WAT     H176142   7.162   4.670   5.610
25300WAT     H276143   7.178   4.827   5.569
25301WAT      O76144   1.453   5.381   5.514
25301WAT     H176145   1.375   5.337   5.559
25301WAT     H276146   1.436   5.387   5.416
25302WAT      O76147   1.340   5.901   6.883
25302WAT     H176148   1.398   5.976   6.852
25302WAT     H276149   1.397   5.820   6.897
25303WAT      O76150   5.067   6.619   6.026
25303WAT     H176151   5.026   6.599   5.937
25303WAT     H276152   5.063   6.538   6.085
25304WAT      O76153   9.518   6.781   5.767
25304WAT     H176154   9.497   6.868   5.722
25304WAT     H276155   9.606   6.789   5.814
25305WAT      O76156   2.880   0.663   0.181
25305WAT     H176157   2.857   0.727   0.255
25305WAT     H276158   2.857   0.570   0.210
25306WAT      O76159   8.355   9.201   7.282
25306WAT     H176160   8.267   9.205   7.235
25306WAT     H276161   8.417   9.141   7.231
25307WAT      O76162   5.413   1.214   1.523
25307WAT     H176163   5.385   1.134   1.576
25307WAT     H276164   5.355   1.222   1.442
25308WAT      O76165   2.449   9.285   3.309
25308WAT     H176166   2.387   9.209   3.332
25308WAT     H276167   2.437   9.310   3.213
25309WAT      O76168   9.332   7.002   2.161
25309WAT     H176169   9.416   7.055   2.148
25309WAT     H276170   9.341   6.944   2.242
25310WAT      O76171   6.654   1.789   9.420
25310WAT     H176172   6.732   1.729   9.404
25310WAT     H276173   6.635   1.792   9.518
25311WAT      O76174   5.215   2.254   5.537
25311WAT     H176175   5.312   2.278   5.524
25311WAT     H276176   5.200   2.230   5.632
25312WAT      O76177   4.568   6.396   7.154
25312WAT     H176178   4.622   6.468   7.111
25312WAT     H276179   4.615   6.308   7.146
25313WAT      O76180   4.807   6.614   3.868
25313WAT     H176181   4.734   6.607   3.800
25313WAT     H276182   4.795   6.543   3.937
25314WAT      O76183   5.669   3.155   4.378
25314WAT     H176184   5.693   3.248   4.406
25314WAT     H276185   5.644   3.154   4.281
25315WAT      O76186   1.622   2.281   4.651
25315WAT     H176187   1.532   2.322   4.664
25315WAT     H276188   1.678   2.342   4.595
25316WAT      O76189   5.639   8.796   8.442
25316WAT     H176190   5.602   8.874   8.491
25316WAT     H276191   5.737   8.811   8.424
25317WAT      O76192   4.055   3.048   8.016
25317WAT     H176193   3.963   3.018   7.994
25317WAT     H276194   4.111   2.970   8.041
25318WAT      O76195   3.880   8.031   8.660
25318WAT     H176196   3.893   8.019   8.759
25318WAT     H276197   3.854   8.125   8.641
25319WAT      O76198   7.358   4.875   5.815
25319WAT     H176199   7.442   4.821   5.802
25319WAT     H276200   7.283   4.833   5.763
25320WAT      O76201   1.045   0.149   8.763
25320WAT     H176202   1.061   0.148   8.664
25320WAT     H276203   1.059   0.057   8.800
25321WAT      O76204   1.096   0.841   1.009
25321WAT     H176205   1.120   0.901   1.085
25321WAT     H276206   1.178   0.821   0.955
25322WAT      O76207   3.144   0.225   2.860
25322WAT     H176208   3.140   0.160   2.936
25322WAT     H276209   3.052   0.237   2.822
25323WAT      O76210   7.436   6.019   5.355
25323WAT     H176211   7.442   5.946   5.286
25323WAT     H276212   7.479   5.989   5.440
25324WAT      O76213   3.641   8.303   5.032
25324WAT     H176214   3.699   8.380   5.005
25324WAT     H276215   3.593   8.325   5.117
25325WAT      O76216   3.984   3.715   3.136
25325WAT     H176217   4.070   3.744   3.178
25325WAT     H276218   3.930   3.795   3.110
25326WAT      O76219   9.114   6.573   0.094
25326WAT     H176220   9.162   6.620   0.019
25326WAT     H276221   9.174   6.504   0.134
25327WAT      O76222   6.124   4.887   3.585
25327WAT     H176223   6.170   4.835   3.513
25327WAT     H276224   6.189   4.908   3.658
25328WAT      O76225   6.072   4.133   2.272
25328WAT     H176226   6.051   4.083   2.188
25328WAT     H276227   6.000   4.199   2.290
25329WAT      O76228   9.352   4.993   5.802
25329WAT     H176229   9.420   5.047   5.852
25329WAT     H276230   9.399   4.929   5.742
25330WAT      O76231   3.811   1.170   5.246
25330WAT     H176232   3.724   1.122   5.244
25330WAT     H276233   3.796   1.268   5.236
25331WAT      O76234   7.988   3.377   5.251
25331WAT     H176235   7.947   3.350   5.338
25331WAT     H276236   8.028   3.468   5.259
25332WAT      O76237   3.237   4.809   1.623
25332WAT     H176238   3.295   4.733   1.593
25332WAT     H276239   3.152   4.809   1.569
25333WAT      O76240   8.581   3.073   7.608
25333WAT     H176241   8.563   3.047   7.703
25333WAT     H276242   8.511   3.033   7.549
25334WAT      O76243   6.292   1.172   0.569
25334WAT     H176244   6.268   1.248   0.629
25334WAT     H276245   6.209   1.129   0.534
25335WAT      O76246   2.418   4.666   5.430
25335WAT     H176247   2.324   4.671   5.465
25335WAT     H276248   2.481   4.657   5.506
25336WAT      O76249   4.099   4.068   0.055
25336WAT     H176250   4.049   4.137   0.108
25336WAT     H276251   4.167   4.025   0.113
25337WAT      O76252   2.722   4.928   9.258
25337WAT     H176253   2.799   4.960   9.314
25337WAT     H276254   2.752   4.918   9.163
25338WAT      O76255   8.728   3.286   2.879
25338WAT     H176256   8.769   3.205   2.921
25338WAT     H276257   8.682   3.340   2.950
25339WAT      O76258   6.506   5.859   6.353
25339WAT     H176259   6.470   5.861   6.259
25339WAT     H276260   6.500   5.951   6.392
25340WAT      O76261   6.640   1.150   6.664
25340WAT     H176262   6.649   1.238   6.618
25340WAT     H276263   6.720   1.134   6.722
25341WAT      O76264   0.757   8.939   3.142
25341WAT     H176265   0.668   8.924   3.187
25341WAT     H276266   0.822   8.974   3.210
25342WAT      O76267   0.591   0.962   6.302
25342WAT     H176268   0.523   0.889   6.308
25342WAT     H276269   0.660   0.949   6.373
25343WAT      O76270   8.694   3.686   9.678
25343WAT     H176271   8.776   3.721   9.634
25343WAT     H276272   8.616   3.743   9.653
25344WAT      O76273   2.191   6.009   2.050
25344WAT     H176274   2.196   6.070   1.970
25344WAT     H276275   2.257   5.935   2.039
25345WAT      O76276   5.750   4.798   2.401
25345WAT     H176277   5.704   4.885   2.419
25345WAT     H276278   5.811   4.808   2.323
25346WAT      O76279   7.038   5.679   3.425
25346WAT     H176280   7.078   5.754   3.372
25346WAT     H276281   6.938   5.679   3.413
25347WAT      O76282   9.300   9.287   9.597
25347WAT     H176283   9.245   9.370   9.599
25347WAT     H276284   9.354   9.281   9.681
25348WAT      O76285   6.449   8.159   8.426
25348WAT     H176286   6.470   8.113   8.513
25348WAT     H276287   6.522   8.224   8.406
25349WAT      O76288   5.196   4.123   7.686
25349WAT     H176289   5.221   4.045   7.629
25349WAT     H276290   5.235   4.113   7.777
25350WAT      O76291   5.296   7.767   2.290
25350WAT     H176292   5.323   7.800   2.381
25350WAT     H276293   5.375   7.727   2.245
25351WAT      O76294   1.887   6.470   8.796
25351WAT     H176295   1.888   6.429   8.887
25351WAT     H276296   1.868   6.399   8.728
25352WAT      O76297   7.105   1.890   6.494
25352WAT     H176298   7.052   1.973   6.479
25352WAT     H276299   7.135   1.854   6.406
25353WAT      O76300   3.990   0.579   9.496
25353WAT     H176301   3.963   0.541   9.584
25353WAT     H276302   4.073   0.633   9.507
25354WAT      O76303   4.488   0.760   2.046
25354WAT     H176304   4.582   0.791   2.060
25354WAT     H276305   4.433   0.783   2.126
25355WAT      O76306   1.991   8.220   7.154
25355WAT     H176307   2.014   8.221   7.251
25355WAT     H276308   1.901   8.179   7.142
25356WAT      O76309   5.840   9.756   3.442
25356WAT     H176310   5.849   9.771   3.343
25356WAT     H276311   5.765   9.812   3.477
25357WAT      O76312   0.551   8.012   4.636
25357WAT     H176313   0.587   7.927   4.673
25357WAT     H276314   0.587   8.026   4.544
25358WAT      O76315   4.385   5.729   2.212
25358WAT     H176316   4.295   5.690   2.193
25358WAT     H276317   4.397   5.739   2.310
25359WAT      O76318   6.888   4.990   4.165
25359WAT     H176319   6.821   4.990   4.239
25359WAT     H276320   6.870   5.068   4.105
25360WAT      O76321   0.107   5.929   8.620
25360WAT     H176322   0.160   6.004   8.659
25360WAT     H276323   0.150   5.842   8.643
25361WAT      O76324   6.811   8.865   1.142
25361WAT     H176325   6.716   8.858   1.173
25361WAT     H276326   6.829   8.959   1.113
25362WAT      O76327   9.713   2.781   5.369
25362WAT     H176328   9.639   2.846   5.349
25362WAT     H276329   9.789   2.797   5.307
25363WAT      O76330   1.260   6.607   7.150
25363WAT     H176331   1.297   6.678   7.210
25363WAT     H276332   1.258   6.520   7.199
25364WAT      O76333   7.819   8.352   5.858
25364WAT     H176334   7.793   8.359   5.954
25364WAT     H276335   7.780   8.269   5.819
25365WAT      O76336   0.944   3.493   9.027
25365WAT     H176337   0.919   3.512   8.932
25365WAT     H276338   0.961   3.395   9.037
25366WAT      O76339   1.445   4.378   0.158
25366WAT     H176340   1.347   4.359   0.163
25366WAT     H276341   1.463   4.439   0.080
25367WAT      O76342   3.708   6.595   3.154
25367WAT     H176343   3.625   6.638   3.120
25367WAT     H276344   3.784   6.614   3.092
25368WAT      O76345   5.626   5.176   0.433
25368WAT     H176346   5.588   5.107   0.493
25368WAT     H276347   5.710   5.213   0.474
25369WAT      O76348   8.239   4.537   9.235
25369WAT     H176349   8.223   4.636   9.240
25369WAT     H276350   8.235   4.508   9.140
25370WAT      O76351   4.548   8.967   4.347
25370WAT     H176352   4.577   9.037   4.411
25370WAT     H276353   4.503   8.892   4.396
25371WAT      O76354   5.869   7.443   2.113
25371WAT     H176355   5.812   7.407   2.040
25371WAT     H276356   5.811   7.478   2.186
25372WAT      O76357   2.845   9.762   1.344
25372WAT     H176358   2.832   9.697   1.269
25372WAT     H276359   2.943   9.777   1.359
25373WAT      O76360   1.873   2.286   4.907
25373WAT     H176361   1.777   2.314   4.895
25373WAT     H276362   1.924   2.305   4.823
25374WAT      O76363   4.002   2.341   0.991
25374WAT     H176364   4.051   2.281   0.927
25374WAT     H276365   4.066   2.378   1.058
25375WAT      O76366   6.178   5.901   5.731
25375WAT     H176367   6.195   5.804   5.749
25375WAT     H276368   6.084   5.914   5.701
25376WAT      O76369   5.397   0.827   7.431
25376WAT     H176370   5.418   0.819   7.334
25376WAT     H276371   5.476   0.865   7.480
25377WAT      O76372   0.078   7.040   0.570
25377WAT     H176373   0.111   7.112   0.632
25377WAT     H276374   0.148   7.019   0.502
25378WAT      O76375   7.586   2.903   9.440
25378WAT     H176376   7.495   2.927   9.474
25378WAT     H276377   7.597   2.804   9.441
25379WAT      O76378   0.970   3.586   2.250
25379WAT     H176379   1.028   3.507   2.271
25379WAT     H276380   0.885   3.580   2.301
25380WAT      O76381   9.376   6.637   0.683
25380WAT     H176382   9.384   6.653   0.584
25380WAT     H276383   9.287   6.596   0.703
25381WAT      O76384   6.402   5.200   8.614
25381WAT     H176385   6.422   5.137   8.689
25381WAT     H276386   6.366   5.286   8.651
25382WAT      O76387   6.458   4.397   0.687
25382WAT     H176388   6.466   4.306   0.728
25382WAT     H276389   6.423   4.461   0.755
25383WAT      O76390   6.626   9.475   9.316
25383WAT     H176391   6.641   9.570   9.286
25383WAT     H276392   6.703   9.447   9.374
25384WAT      O76393   4.936   6.637   5.202
25384WAT     H176394   4.964   6.704   5.271
25384WAT     H276395   5.010   6.627   5.135
25385WAT      O76396   5.250   2.857   7.432
25385WAT     H176397   5.260   2.758   7.437
25385WAT     H276398   5.196   2.889   7.510
25386WAT      O76399   3.128   3.643   6.384
25386WAT     H176400   3.150   3.681   6.295
25386WAT     H276401   3.048   3.585   6.378
25387WAT      O76402   0.435   8.791   6.723
25387WAT     H176403   0.352   8.847   6.729
25387WAT     H276404   0.472   8.775   6.814
25388WAT      O76405   7.095   7.925   9.479
25388WAT     H176406   7.042   7.844   9.504
25388WAT     H276407   7.192   7.908   9.492
25389WAT      O76408   4.189   2.838   8.043
25389WAT     H176409   4.119   2.767   8.032
25389WAT     H276410   4.227   2.833   8.135
25390WAT      O76411   0.198   2.062   2.739
25390WAT     H176412   0.189   2.118   2.821
25390WAT     H276413   0.285   2.081   2.694
25391WAT      O76414   8.244   0.830   6.939
25391WAT     H176415   8.176   0.812   6.868
25391WAT     H276416   8.320   0.882   6.900
25392WAT      O76417   0.094   1.631   8.263
25392WAT     H176418   0.032   1.701   8.229
25392WAT     H276419   0.147   1.667   8.339
25393WAT      O76420   0.462   3.113   0.729
25393WAT     H176421   0.485   3.174   0.653
25393WAT     H276422   0.402   3.041   0.696
25394WAT      O76423   5.261   2.905   1.514
25394WAT     H176424   5.297   2.975   1.576
25394WAT     H276425   5.314   2.820   1.526
25395WAT      O76426   2.111   4.408   8.895
25395WAT     H176427   2.132   4.369   8.805
25395WAT     H276428   2.173   4.485   8.913
25396WAT      O76429   9.449   7.414   3.818
25396WAT     H176430   9.413   7.475   3.888
25396WAT     H276431   9.401   7.430   3.732
25397WAT      O76432   1.674   6.984   2.059
25397WAT     H176433   1.612   6.993   2.137
25397WAT     H276434   1.637   6.918   1.994
25398WAT      O76435   7.729   2.514   4.898
25398WAT     H176436   7.754   2.485   4.806
25398WAT     H276437   7.649   2.462   4.929
25399WAT      O76438   8.385   7.669   2.716
25399WAT     H176439   8.481   7.693   2.724
25399WAT     H276440   8.376   7.571   2.695
25400WAT      O76441   8.983   9.835   4.148
25400WAT     H176442   9.033   9.910   4.107
25400WAT     H276443   8.921   9.871   4.219
25401WAT      O76444   9.847   9.046   2.702
25401WAT     H176445   9.855   9.103   2.621
25401WAT     H276446   9.782   9.088   2.766
25402WAT      O76447   4.290   7.426   6.255
25402WAT     H176448   4.281   7.397   6.350
25402WAT     H276449   4.241   7.361   6.196
25403WAT      O76450   8.030   1.166   9.827
25403WAT     H176451   7.991   1.121   9.907
25403WAT     H276452   7.977   1.141   9.746
25404WAT      O76453   7.085   0.158   3.119
25404WAT     H176454   7.138   0.212   3.053
25404WAT     H276455   7.065   0.214   3.199
25405WAT      O76456   8.155   5.923   5.120
25405WAT     H176457   8.084   5.856   5.142
25405WAT     H276458   8.114   6.006   5.083
25406WAT      O76459   5.634   9.588   7.274
25406WAT     H176460   5.673   9.549   7.357
25406WAT     H276461   5.582   9.670   7.296
25407WAT      O76462   5.582   0.040   3.042
25407WAT     H176463   5.661  -0.021   3.053
25407WAT     H276464   5.498  -0.013   3.049
25408WAT      O76465   7.146   6.977   8.966
25408WAT     H176466   7.233   6.964   8.917
25408WAT     H276467   7.157   6.948   9.061
25409WAT      O76468   5.193   5.486   9.307
25409WAT     H176469   5.106   5.498   9.258
25409WAT     H276470   5.246   5.414   9.262
25410WAT      O76471   1.581   7.765   8.157
25410WAT     H176472   1.654   7.758   8.225
25410WAT     H276473   1.573   7.678   8.108
25411WAT      O76474   3.818   9.090   5.168
25411WAT     H176475   3.788   9.001   5.202
25411WAT     H276476   3.907   9.113   5.208
25412WAT      O76477   9.833   2.778   2.757
25412WAT     H176478   9.756   2.789   2.694
25412WAT     H276479   9.810   2.816   2.846
25413WAT      O76480   7.115   5.930   4.727
25413WAT     H176481   7.141   5.854   4.786
25413WAT     H276482   7.053   5.897   4.656
25414WAT      O76483   5.613   7.481   2.596
25414WAT     H176484   5.546   7.482   2.522
25414WAT     H276485   5.599   7.561   2.655
25415WAT      O76486   3.697   5.690   0.718
25415WAT     H176487   3.598   5.683   0.722
25415WAT     H276488   3.737   5.642   0.797
25416WAT      O76489   9.627   5.384   9.310
25416WAT     H176490   9.700   5.445   9.279
25416WAT     H276491   9.635   5.369   9.409
25417WAT      O76492   3.438   0.787   5.071
25417WAT     H176493   3.410   0.740   5.154
25417WAT     H276494   3.537   0.778   5.058
25418WAT      O76495   2.443   1.389   6.257
25418WAT     H176496   2.400   1.476   6.282
25418WAT     H276497   2.467   1.338   6.340
25419WAT      O76498   0.618   1.976   4.858
25419WAT     H176499   0.622   2.056   4.797
25419WAT     H276500   0.662   1.999   4.945
25420WAT      O76501   7.226   3.528   2.687
25420WAT     H176502   7.272   3.455   2.636
25420WAT     H276503   7.211   3.606   2.627
25421WAT      O76504   3.457   0.767   6.596
25421WAT     H176505   3.380   0.803   6.544
25421WAT     H276506   3.476   0.827   6.673
25422WAT      O76507   5.312   9.373   8.087
25422WAT     H176508   5.307   9.345   8.182
25422WAT     H276509   5.386   9.324   8.041
25423WAT      O76510   6.537   8.360   0.467
25423WAT     H176511   6.491   8.346   0.555
25423WAT     H276512   6.469   8.376   0.396
25424WAT      O76513   6.143   8.552   6.458
25424WAT     H176514   6.074   8.487   6.490
25424WAT     H276515   6.217   8.502   6.414
25425WAT      O76516   2.462   2.861   7.564
25425WAT     H176517   2.446   2.959   7.580
25425WAT     H276518   2.484   2.848   7.467
25426WAT      O76519   9.033   9.200   7.951
25426WAT     H176520   9.041   9.291   7.910
25426WAT     H276521   9.073   9.132   7.890
25427WAT      O76522   7.149   3.423   7.481
25427WAT     H176523   7.176   3.491   7.413
25427WAT     H276524   7.205   3.341   7.469
25428WAT      O76525   1.582   7.663   6.089
25428WAT     H176526   1.630   7.588   6.045
25428WAT     H276527   1.486   7.661   6.061
25429WAT      O76528   7.010   4.889   0.149
25429WAT     H176529   7.002   4.849   0.058
25429WAT     H276530   7.004   4.816   0.217
25430WAT      O76531   1.594   0.988   8.168
25430WAT     H176532   1.592   1.047   8.088
25430WAT     H276533   1.507   0.938   8.175
25431WAT      O76534   4.182   0.556   7.202
25431WAT     H176535   4.197   0.554   7.301
25431WAT     H276536   4.260   0.514   7.155
25432WAT      O76537   4.645   2.794   7.832
25432WAT     H176538   4.548   2.774   7.847
25432WAT     H276539   4.666   2.886   7.866
25433WAT      O76540   1.171   0.606   8.580
25433WAT     H176541   1.095   0.572   8.525
25433WAT     H276542   1.151   0.592   8.677
25434WAT      O76543   8.405   7.600   5.602
25434WAT     H176544   8.466   7.673   5.572
25434WAT     H276545   8.310   7.633   5.601
25435WAT      O76546   2.249   2.163   5.029
25435WAT     H176547   2.163   2.113   5.025
25435WAT     H276548   2.236   2.255   4.991
25436WAT      O76549   6.235   2.244   4.176
25436WAT     H176550   6.140   2.264   4.154
25436WAT     H276551   6.270   2.175   4.112
25437WAT      O76552   2.580   7.911   0.535
25437WAT     H176553   2.500   7.851   0.544
25437WAT     H276554   2.587   7.969   0.616
25438WAT      O76555   5.536   2.398   7.045
25438WAT     H176556   5.456   2.436   7.090
25438WAT     H276557   5.553   2.305   7.080
25439WAT      O76558   6.488   9.050   5.862
25439WAT     H176559   6.496   9.145   5.892
25439WAT     H276560   6.501   9.045   5.763
25440WAT      O76561   2.015   3.207   2.192
25440WAT     H176562   1.995   3.179   2.098
25440WAT     H276563   2.090   3.152   2.229
25441WAT      O76564   8.125   3.579   8.494
25441WAT     H176565   8.041   3.630   8.476
25441WAT     H276566   8.104   3.482   8.505
25442WAT      O76567   4.993   2.142   5.211
25442WAT     H176568   5.045   2.059   5.233
25442WAT     H276569   5.045   2.196   5.144
25443WAT      O76570   6.393   2.143   1.431
25443WAT     H176571   6.368   2.142   1.335
25443WAT     H276572   6.426   2.235   1.456
25444WAT      O76573   9.851   3.790   5.274
25444WAT     H176574   9.755   3.785   5.300
25444WAT     H276575   9.866   3.868   5.214
25445WAT      O76576   1.389   7.027   5.476
25445WAT     H176577   1.361   6.943   5.430
25445WAT     H276578   1.452   7.006   5.550
25446WAT      O76579   9.765   6.040   8.735
25446WAT     H176580   9.846   6.002   8.690
25446WAT     H276581   9.683   6.013   8.684
25447WAT      O76582   1.271   0.780   6.777
25447WAT     H176583   1.299   0.756   6.870
25447WAT     H276584   1.273   0.698   6.720
25448WAT      O76585   2.697   7.995   3.515
25448WAT     H176586   2.790   8.012   3.549
25448WAT     H276587   2.682   7.897   3.505
25449WAT      O76588   3.071   6.327   2.259
25449WAT     H176589   3.123   6.302   2.177
25449WAT     H276590   3.112   6.409   2.300
25450WAT      O76591   6.403   9.606   2.377
25450WAT     H176592   6.418   9.652   2.465
25450WAT     H276593   6.469   9.640   2.310
25451WAT      O76594   6.141   0.067   3.289
25451WAT     H176595   6.085   0.103   3.364
25451WAT     H276596   6.177  -0.023   3.314
25452WAT      O76597   0.964   5.153   4.319
25452WAT     H176598   0.870   5.173   4.293
25452WAT     H276599   0.966   5.078   4.385
25453WAT      O76600   3.460   3.842   2.239
25453WAT     H176601   3.465   3.916   2.171
25453WAT     H276602   3.503   3.872   2.324
25454WAT      O76603   5.568   8.399   1.843
25454WAT     H176604   5.495   8.411   1.909
25454WAT     H276605   5.651   8.368   1.889
25455WAT      O76606   8.227   3.981   1.779
25455WAT     H176607   8.235   3.898   1.723
25455WAT     H276608   8.134   3.988   1.816
25456WAT      O76609   0.683   1.023   7.658
25456WAT     H176610   0.696   1.097   7.592
25456WAT     H276611   0.667   1.061   7.749
25457WAT      O76612   3.151   5.965   4.357
25457WAT     H176613   3.061   5.938   4.391
25457WAT     H276614   3.153   6.064   4.344
25458WAT      O76615   1.134   8.380   0.552
25458WAT     H176616   1.171   8.423   0.470
25458WAT     H276617   1.045   8.339   0.531
25459WAT      O76618   4.174   9.221   0.830
25459WAT     H176619   4.139   9.185   0.743
25459WAT     H276620   4.259   9.271   0.814
25460WAT      O76621   6.319   8.074   2.528
25460WAT     H176622   6.339   8.022   2.611
25460WAT     H276623   6.235   8.126   2.540
25461WAT      O76624   3.201   9.351   9.365
25461WAT     H176625   3.266   9.299   9.310
25461WAT     H276626   3.118   9.298   9.379
25462WAT      O76627   9.434   3.368   9.667
25462WAT     H176628   9.374   3.321   9.602
25462WAT     H276629   9.497   3.301   9.708
25463WAT      O76630   5.827   3.011   2.064
25463WAT     H176631   5.744   2.959   2.046
25463WAT     H276632   5.814   3.106   2.035
25464WAT      O76633   7.752   0.530   3.594
25464WAT     H176634   7.790   0.608   3.645
25464WAT     H276635   7.747   0.554   3.497
25465WAT      O76636   9.122   8.509   6.837
25465WAT     H176637   9.085   8.416   6.843
25465WAT     H276638   9.059   8.572   6.882
25466WAT      O76639   3.092   3.107   2.929
25466WAT     H176640   3.002   3.065   2.919
25466WAT     H276641   3.161   3.048   2.887
25467WAT      O76642   4.591   5.596   8.242
25467WAT     H176643   4.523   5.628   8.307
25467WAT     H276644   4.654   5.532   8.287
25468WAT      O76645   5.322   8.759   9.295
25468WAT     H176646   5.361   8.851   9.302
25468WAT     H276647   5.395   8.694   9.275
25469WAT      O76648   3.343   8.145   4.853
25469WAT     H176649   3.318   8.102   4.940
25469WAT     H276650   3.423   8.099   4.815
25470WAT      O76651   7.647   3.946   4.615
25470WAT     H176652   7.585   3.976   4.688
25470WAT     H276653   7.615   3.858   4.578
25471WAT      O76654   3.752   3.934   9.608
25471WAT     H176655   3.661   3.898   9.627
25471WAT     H276656   3.812   3.915   9.685
25472WAT      O76657   2.172   0.422   9.374
25472WAT     H176658   2.088   0.475   9.385
25472WAT     H276659   2.227   0.429   9.457
25473WAT      O76660   9.595   4.332   1.503
25473WAT     H176661   9.673   4.318   1.442
25473WAT     H276662   9.541   4.409   1.471
25474WAT      O76663   7.597   2.438   8.781
25474WAT     H176664   7.604   2.339   8.769
25474WAT     H276665   7.540   2.459   8.861
25475WAT      O76666   2.683   9.422   4.316
25475WAT     H176667   2.768   9.414   4.263
25475WAT     H276668   2.605   9.403   4.257
25476WAT      O76669   2.420   9.170   3.879
25476WAT     H176670   2.500   9.116   3.852
25476WAT     H276671   2.440   9.218   3.965
25477WAT      O76672   6.978   0.171   9.879
25477WAT     H176673   6.906   0.138   9.940
25477WAT     H276674   7.067   0.153   9.921
25478WAT      O76675   7.936   4.679   5.102
25478WAT     H176676   7.945   4.772   5.137
25478WAT     H276677   7.953   4.679   5.003
25479WAT      O76678   7.571   5.760   0.582
25479WAT     H176679   7.635   5.837   0.593
25479WAT     H276680   7.622   5.674   0.578
25480WAT      O76681   0.112   0.932   2.600
25480WAT     H176682   0.015   0.945   2.621
25480WAT     H276683   0.141   0.841   2.630
25481WAT      O76684   8.689   3.645   2.684
25481WAT     H176685   8.692   3.732   2.634
25481WAT     H276686   8.664   3.663   2.780
25482WAT      O76687   4.707   2.849   8.788
25482WAT     H176688   4.673   2.922   8.729
25482WAT     H276689   4.765   2.788   8.734
25483WAT      O76690   3.420   0.238   0.922
25483WAT     H176691   3.470   0.313   0.966
25483WAT     H276692   3.322   0.251   0.936
25484WAT      O76693   6.626   0.636   2.748
25484WAT     H176694   6.664   0.693   2.822
25484WAT     H276695   6.548   0.684   2.707
25485WAT      O76696   7.322   2.268   8.690
25485WAT     H176697   7.242   2.250   8.747
25485WAT     H276698   7.402   2.221   8.729
25486WAT      O76699   3.956   4.737   9.893
25486WAT     H176700   3.921   4.768   9.805
25486WAT     H276701   3.959   4.637   9.895
25487WAT      O76702   5.097   6.639   2.883
25487WAT     H176703   5.084   6.545   2.917
25487WAT     H276704   5.032   6.657   2.810
25488WAT      O76705   3.464   0.446   7.220
25488WAT     H176706   3.499   0.532   7.183
25488WAT     H276707   3.447   0.456   7.318
25489WAT      O76708   9.180   7.322   4.051
25489WAT     H176709   9.237   7.268   3.989
25489WAT     H276710   9.206   7.301   4.146
25490WAT      O76711   0.024   4.600   0.579
25490WAT     H176712  -0.070   4.631   0.591
25490WAT     H276713   0.053   4.549   0.660
25491WAT      O76714   5.407   2.549   3.688
25491WAT     H176715   5.392   2.582   3.782
25491WAT     H276716   5.485   2.486   3.687
25492WAT      O76717   6.587   2.615   6.078
25492WAT     H176718   6.540   2.685   6.133
25492WAT     H276719   6.521   2.548   6.046
25493WAT      O76720   3.430   6.146   4.707
25493WAT     H176721   3.479   6.207   4.646
25493WAT     H276722   3.451   6.051   4.683
25494WAT      O76723   6.541   3.045   4.149
25494WAT     H176724   6.565   2.967   4.090
25494WAT     H276725   6.498   3.012   4.233
25495WAT      O76726   0.277   1.287   1.483
25495WAT     H176727   0.256   1.189   1.480
25495WAT     H276728   0.351   1.303   1.548
25496WAT      O76729   7.641   1.392   2.865
25496WAT     H176730   7.574   1.318   2.869
25496WAT     H276731   7.622   1.451   2.787
25497WAT      O76732   3.001   4.749   6.108
25497WAT     H176733   3.077   4.792   6.156
25497WAT     H276734   3.018   4.750   6.010
25498WAT      O76735   8.113   5.554   9.467
25498WAT     H176736   8.031   5.587   9.514
25498WAT     H276737   8.193   5.606   9.498
25499WAT      O76738   3.903   7.822   2.595
25499WAT     H176739   3.840   7.777   2.531
25499WAT     H276740   3.858   7.832   2.684
25500WAT      O76741   1.593   9.787   1.932
25500WAT     H176742   1.533   9.710   1.954
25500WAT     H276743   1.675   9.783   1.989
25501WAT      O76744   0.917   3.296   4.543
25501WAT     H176745   0.871   3.259   4.463
25501WAT     H276746   0.853   3.352   4.596
25502WAT      O76747   8.587   0.856   7.754
25502WAT     H176748   8.671   0.808   7.728
25502WAT     H276749   8.529   0.796   7.808
25503WAT      O76750   8.700   1.549   1.681
25503WAT     H176751   8.679   1.479   1.613
25503WAT     H276752   8.742   1.627   1.637
25504WAT      O76753   6.425   5.141   3.484
25504WAT     H176754   6.452   5.051   3.519
25504WAT     H276755   6.507   5.194   3.462
25505WAT      O76756   2.458   0.809   4.653
25505WAT     H176757   2.543   0.844   4.693
25505WAT     H276758   2.440   0.857   4.567
25506WAT      O76759   1.404   0.260   4.241
25506WAT     H176760   1.460   0.216   4.171
25506WAT     H276761   1.463   0.314   4.302
25507WAT      O76762   7.974   6.108   4.957
25507WAT     H176763   7.952   6.201   4.928
25507WAT     H276764   7.933   6.043   4.893
25508WAT      O76765   8.220   4.802   9.017
25508WAT     H176766   8.304   4.753   8.994
25508WAT     H276767   8.190   4.856   8.938
25509WAT      O76768   8.898   6.855   6.567
25509WAT     H176769   8.827   6.924   6.552
25509WAT     H276770   8.925   6.855   6.663
25510WAT      O76771   7.220   4.320   0.471
25510WAT     H176772   7.260   4.272   0.393
25510WAT     H276773   7.240   4.269   0.555
25511WAT      O76774   5.424   2.218   6.810
25511WAT     H176775   5.413   2.188   6.715
25511WAT     H276776   5.409   2.317   6.816
25512WAT      O76777   0.660   4.555   9.205
25512WAT     H176778   0.608   4.622   9.152
25512WAT     H276779   0.601   4.477   9.228
25513WAT      O76780   6.100   8.568   0.275
25513WAT     H176781   6.041   8.603   0.202
25513WAT     H276782   6.104   8.634   0.349
25514WAT      O76783   4.338   2.206   8.306
25514WAT     H176784   4.308   2.113   8.284
25514WAT     H276785   4.414   2.232   8.246
25515WAT      O76786   4.442   8.920   3.436
25515WAT     H176787   4.463   8.852   3.506
25515WAT     H276788   4.509   8.914   3.362
25516WAT      O76789   7.378   2.440   3.756
25516WAT     H176790   7.429   2.419   3.672
25516WAT     H276791   7.435   2.496   3.816
25517WAT      O76792   0.844   1.590   6.226
25517WAT     H176793   0.750   1.598   6.193
25517WAT     H276794   0.896   1.530   6.164
25518WAT      O76795   0.959   9.745   6.036
25518WAT     H176796   0.967   9.646   6.025
25518WAT     H276797   0.867   9.768   6.070
25519WAT      O76798   0.033   4.126   4.277
25519WAT     H176799   0.118   4.175   4.297
25519WAT     H276800   0.052   4.028   4.268
25520WAT      O76801   7.279   2.060   4.887
25520WAT     H176802   7.262   1.974   4.839
25520WAT     H276803   7.326   2.041   4.973
25521WAT      O76804   0.987   1.278   7.922
25521WAT     H176805   1.049   1.224   7.864
25521WAT     H276806   1.041   1.327   7.991
25522WAT      O76807   2.846   0.918   9.402
25522WAT     H176808   2.927   0.891   9.455
25522WAT     H276809   2.856   1.013   9.373
25523WAT      O76810   7.205   2.646   3.416
25523WAT     H176811   7.126   2.585   3.411
25523WAT     H276812   7.278   2.611   3.358
25524WAT      O76813   2.008   5.842   9.729
25524WAT     H176814   1.980   5.787   9.651
25524WAT     H276815   2.107   5.832   9.743
25525WAT      O76816   4.097   7.353   1.237
25525WAT     H176817   4.062   7.377   1.328
25525WAT     H276818   4.025   7.368   1.169
25526WAT      O76819   5.966   4.493   1.380
25526WAT     H176820   6.033   4.492   1.454
25526WAT     H276821   5.927   4.585   1.371
25527WAT      O76822   3.275   2.296   1.292
25527WAT     H176823   3.182   2.331   1.287
25527WAT     H276824   3.339   2.365   1.258
25528WAT      O76825   6.731   1.630   3.594
25528WAT     H176826   6.754   1.551   3.537
25528WAT     H276827   6.815   1.675   3.623
25529WAT      O76828   2.946   6.222   8.417
25529WAT     H176829   3.010   6.251   8.488
25529WAT     H276830   2.871   6.288   8.409
25530WAT      O76831   2.420   1.957   8.544
25530WAT     H176832   2.486   2.029   8.567
25530WAT     H276833   2.466   1.869   8.542
25531WAT      O76834   5.242   1.355   9.869
25531WAT     H176835   5.302   1.428   9.836
25531WAT     H276836   5.227   1.290   9.795
25532WAT      O76837   0.751   5.422   2.801
25532WAT     H176838   0.659   5.430   2.839
25532WAT     H276839   0.750   5.453   2.706
25533WAT      O76840   5.462   4.044   0.931
25533WAT     H176841   5.495   3.962   0.885
25533WAT     H276842   5.505   4.125   0.890
25534WAT      O76843   4.790   8.144   2.924
25534WAT     H176844   4.715   8.177   2.981
25534WAT     H276845   4.872   8.132   2.981
25535WAT      O76846   4.808   0.104   9.749
25535WAT     H176847   4.771   0.011   9.752
25535WAT     H276848   4.856   0.118   9.662
25536WAT      O76849   4.532   8.421   5.770
25536WAT     H176850   4.571   8.350   5.711
25536WAT     H276851   4.470   8.380   5.836
25537WAT      O76852   2.899   5.229   6.337
25537WAT     H176853   2.933   5.246   6.430
25537WAT     H276854   2.806   5.266   6.328
25538WAT      O76855   8.119   5.217   5.768
25538WAT     H176856   8.027   5.245   5.797
25538WAT     H276857   8.152   5.144   5.828
25539WAT      O76858   7.808   9.797   6.631
25539WAT     H176859   7.849   9.744   6.705
25539WAT     H276860   7.881   9.830   6.570
25540WAT      O76861   1.240   3.289   6.833
25540WAT     H176862   1.284   3.200   6.846
25540WAT     H276863   1.141   3.277   6.830
25541WAT      O76864   7.317   3.118   5.204
25541WAT     H176865   7.349   3.059   5.278
25541WAT     H276866   7.396   3.158   5.157
25542WAT      O76867   3.035   2.166   0.165
25542WAT     H176868   3.062   2.206   0.077
25542WAT     H276869   2.956   2.215   0.201
25543WAT      O76870   8.343   1.142   7.412
25543WAT     H176871   8.330   1.059   7.465
25543WAT     H276872   8.255   1.188   7.400
25544WAT      O76873   9.093   5.105   5.766
25544WAT     H176874   9.048   5.138   5.849
25544WAT     H276875   9.191   5.097   5.782
25545WAT      O76876   2.420   0.181   8.105
25545WAT     H176877   2.427   0.102   8.166
25545WAT     H276878   2.350   0.244   8.139
25546WAT      O76879   5.954   3.216   6.699
25546WAT     H176880   5.941   3.270   6.615
25546WAT     H276881   5.878   3.152   6.709
25547WAT      O76882   3.493   6.613   9.108
25547WAT     H176883   3.559   6.566   9.168
25547WAT     H276884   3.436   6.673   9.162
25548WAT      O76885   2.128   0.156   3.621
25548WAT     H176886   2.128   0.087   3.549
25548WAT     H276887   2.222   0.175   3.649
25549WAT      O76888   6.471   5.079   7.495
25549WAT     H176889   6.381   5.044   7.470
25549WAT     H276890   6.494   5.050   7.588
25550WAT      O76891   4.658   0.873   0.583
25550WAT     H176892   4.663   0.774   0.595
25550WAT     H276893   4.602   0.895   0.504
25551WAT      O76894   5.049   7.393   0.508
25551WAT     H176895   5.094   7.481   0.523
25551WAT     H276896   4.965   7.408   0.456
25552WAT      O76897   3.140   2.601   5.982
25552WAT     H176898   3.138   2.513   6.030
25552WAT     H276899   3.108   2.673   6.044
25553WAT      O76900   4.542   0.118   6.680
25553WAT     H176901   4.592   0.118   6.767
25553WAT     H276902   4.478   0.041   6.679
25554WAT      O76903   6.232   8.472   4.725
25554WAT     H176904   6.305   8.498   4.788
25554WAT     H276905   6.248   8.512   4.635
25555WAT      O76906   7.891   4.126   3.979
25555WAT     H176907   7.845   4.090   4.059
25555WAT     H276908   7.882   4.226   3.976
25556WAT      O76909   7.152   3.472   5.266
25556WAT     H176910   7.103   3.459   5.180
25556WAT     H276911   7.250   3.468   5.248
25557WAT      O76912   7.325   9.491   2.281
25557WAT     H176913   7.398   9.551   2.316
25557WAT     H276914   7.360   9.438   2.203
25558WAT      O76915   0.632   1.013   6.938
25558WAT     H176916   0.552   0.955   6.922
25558WAT     H276917   0.713   0.955   6.950
25559WAT      O76918   1.562   8.090   2.670
25559WAT     H176919   1.543   8.045   2.757
25559WAT     H276920   1.477   8.128   2.633
25560WAT      O76921   7.957   1.938   0.046
25560WAT     H176922   8.033   1.874   0.046
25560WAT     H276923   7.953   1.987  -0.042
25561WAT      O76924   0.126   6.334   8.522
25561WAT     H176925   0.146   6.421   8.476
25561WAT     H276926   0.129   6.260   8.455
25562WAT      O76927   8.979   5.182   5.223
25562WAT     H176928   9.077   5.168   5.209
25562WAT     H276929   8.964   5.271   5.266
25563WAT      O76930   5.347   8.378   2.628
25563WAT     H176931   5.274   8.390   2.696
25563WAT     H276932   5.435   8.400   2.670
25564WAT      O76933   7.411   2.331   6.909
25564WAT     H176934   7.314   2.327   6.934
25564WAT     H276935   7.420   2.351   6.812
25565WAT      O76936   6.210   3.688   1.070
25565WAT     H176937   6.250   3.731   0.989
25565WAT     H276938   6.284   3.657   1.131
25566WAT      O76939   6.870   6.416   9.875
25566WAT     H176940   6.781   6.457   9.857
25566WAT     H276941   6.891   6.348   9.805
25567WAT      O76942   5.849   7.962   9.737
25567WAT     H176943   5.811   8.050   9.709
25567WAT     H276944   5.880   7.912   9.656
25568WAT      O76945   1.948   9.811   8.068
25568WAT     H176946   2.031   9.781   8.022
25568WAT     H276947   1.892   9.864   8.005
25569WAT      O76948   6.406   2.931   5.086
25569WAT     H176949   6.416   2.869   5.165
25569WAT     H276950   6.309   2.950   5.071
25570WAT      O76951   0.935   6.402   9.711
25570WAT     H176952   0.909   6.360   9.799
25570WAT     H276953   0.986   6.335   9.656
25571WAT      O76954   1.726   1.845   5.591
25571WAT     H176955   1.628   1.831   5.586
25571WAT     H276956   1.771   1.794   5.518
25572WAT      O76957   4.391   0.423   7.119
25572WAT     H176958   4.453   0.356   7.161
25572WAT     H276959   4.437   0.512   7.114
25573WAT      O76960   5.346   1.580   0.406
25573WAT     H176961   5.358   1.673   0.372
25573WAT     H276962   5.274   1.578   0.475
25574WAT      O76963   7.569   5.661   7.586
25574WAT     H176964   7.554   5.751   7.543
25574WAT     H276965   7.507   5.651   7.663
25575WAT      O76966   7.442   8.748   1.731
25575WAT     H176967   7.488   8.796   1.657
25575WAT     H276968   7.505   8.683   1.774
25576WAT      O76969   4.629   4.126   1.787
25576WAT     H176970   4.568   4.049   1.805
25576WAT     H276971   4.576   4.211   1.785
25577WAT      O76972   8.466   7.589   0.108
25577WAT     H176973   8.486   7.520   0.039
25577WAT     H276974   8.537   7.589   0.178
25578WAT      O76975   2.579   2.072   1.391
25578WAT     H176976   2.566   1.973   1.389
25578WAT     H276977   2.579   2.107   1.297
25579WAT      O76978   3.456   7.560   8.173
25579WAT     H176979   3.412   7.525   8.090
25579WAT     H276980   3.553   7.575   8.156
25580WAT      O76981   2.867   2.214   7.218
25580WAT     H176982   2.937   2.276   7.254
25580WAT     H276983   2.892   2.119   7.240
25581WAT      O76984   0.984   1.693   2.413
25581WAT     H176985   0.949   1.724   2.502
25581WAT     H276986   1.018   1.600   2.421
25582WAT      O76987   5.632   3.082   7.473
25582WAT     H176988   5.705   3.141   7.438
25582WAT     H276989   5.662   3.041   7.560
25583WAT      O76990   5.941   4.764   7.857
25583WAT     H176991   5.965   4.855   7.825
25583WAT     H276992   5.871   4.770   7.928
25584WAT      O76993   0.188   9.320   7.266
25584WAT     H176994   0.192   9.323   7.166
25584WAT     H276995   0.266   9.268   7.301
25585WAT      O76996   1.562   5.369   0.888
25585WAT     H176997   1.592   5.287   0.936
25585WAT     H276998   1.623   5.388   0.811
25586WAT      O76999   7.323   7.607   4.744
25586WAT     H177000   7.259   7.530   4.745
25586WAT     H277001   7.417   7.573   4.744
25587WAT      O77002   8.737   9.274   2.789
25587WAT     H177003   8.735   9.175   2.796
25587WAT     H277004   8.671   9.313   2.854
25588WAT      O77005   3.671   1.924   4.884
25588WAT     H177006   3.660   1.991   4.811
25588WAT     H277007   3.589   1.866   4.888
25589WAT      O77008   3.756   5.370   0.075
25589WAT     H177009   3.846   5.398   0.042
25589WAT     H277010   3.699   5.451   0.089
25590WAT      O77011   6.060   4.644   9.791
25590WAT     H177012   6.066   4.681   9.698
25590WAT     H277013   5.969   4.663   9.829
25591WAT      O77014   3.757   1.314   4.661
25591WAT     H177015   3.672   1.344   4.620
25591WAT     H277016   3.829   1.309   4.591
25592WAT      O77017   4.579   6.847   3.666
25592WAT     H177018   4.651   6.917   3.658
25592WAT     H277019   4.567   6.802   3.578
25593WAT      O77020   5.915   5.317   7.603
25593WAT     H177021   5.875   5.284   7.517
25593WAT     H277022   5.927   5.240   7.666
25594WAT      O77023   4.965   0.131   2.516
25594WAT     H177024   4.936   0.105   2.424
25594WAT     H277025   5.064   0.124   2.523
25595WAT      O77026   1.411   5.800   3.713
25595WAT     H177027   1.417   5.880   3.774
25595WAT     H277028   1.315   5.784   3.689
25596WAT      O77029   2.249   3.467   8.524
25596WAT     H177030   2.246   3.407   8.443
25596WAT     H277031   2.175   3.533   8.518
25597WAT      O77032   0.850   0.397   7.384
25597WAT     H177033   0.907   0.339   7.443
25597WAT     H277034   0.805   0.466   7.440
25598WAT      O77035   2.506   4.376   1.914
25598WAT     H177036   2.429   4.435   1.940
25598WAT     H277037   2.479   4.316   1.839
25599WAT      O77038   4.131   8.637   2.270
25599WAT     H177039   4.158   8.560   2.212
25599WAT     H277040   4.114   8.604   2.363
25600WAT      O77041   0.163   7.261   8.999
25600WAT     H177042   0.117   7.221   9.078
25600WAT     H277043   0.262   7.247   9.007
25601WAT      O77044   6.053   0.435   6.361
25601WAT     H177045   6.020   0.385   6.282
25601WAT     H277046   5.975   0.465   6.417
25602WAT      O77047   0.953   2.981   8.334
25602WAT     H177048   0.856   2.959   8.333
25602WAT     H277049   0.986   2.993   8.241
25603WAT      O77050   9.352   3.424   5.907
25603WAT     H177051   9.402   3.508   5.886
25603WAT     H277052   9.255   3.436   5.884
25604WAT      O77053   2.980   5.932   7.542
25604WAT     H177054   2.921   5.986   7.602
25604WAT     H277055   3.061   5.902   7.592
25605WAT      O77056   6.920   0.052   7.145
25605WAT     H177057   6.983   0.088   7.076
25605WAT     H277058   6.966   0.048   7.234
25606WAT      O77059   9.322   2.071   8.998
25606WAT     H177060   9.337   2.169   9.002
25606WAT     H277061   9.306   2.036   9.091
25607WAT      O77062   1.302   1.674   3.934
25607WAT     H177063   1.331   1.587   3.974
25607WAT     H277064   1.313   1.671   3.835
25608WAT      O77065   8.304   4.832   4.972
25608WAT     H177066   8.247   4.831   4.890
25608WAT     H277067   8.250   4.866   5.049
25609WAT      O77068   5.128   5.673   6.127
25609WAT     H177069   5.212   5.700   6.175
25609WAT     H277070   5.118   5.573   6.132
25610WAT      O77071   7.328   9.146   9.187
25610WAT     H177072   7.280   9.162   9.273
25610WAT     H277073   7.278   9.079   9.132
25611WAT      O77074   5.060   2.253   9.713
25611WAT     H177075   5.080   2.218   9.805
25611WAT     H277076   5.062   2.353   9.714
25612WAT      O77077   4.641   6.504   1.714
25612WAT     H177078   4.600   6.414   1.702
25612WAT     H277079   4.642   6.552   1.627
25613WAT      O77080   8.631   5.866   9.340
25613WAT     H177081   8.650   5.873   9.438
25613WAT     H277082   8.588   5.778   9.321
25614WAT      O77083   2.429   7.081   5.055
25614WAT     H177084   2.451   7.046   4.964
25614WAT     H277085   2.331   7.097   5.062
25615WAT      O77086   7.900   3.847   5.162
25615WAT     H177087   7.961   3.906   5.110
25615WAT     H277088   7.855   3.782   5.100
25616WAT      O77089   9.731   8.926   1.847
25616WAT     H177090   9.718   8.948   1.944
25616WAT     H277091   9.814   8.870   1.836
25617WAT      O77092   0.754   9.775   0.080
25617WAT     H177093   0.696   9.721   0.141
25617WAT     H277094   0.765   9.867   0.117
25618WAT      O77095   7.386   8.341   8.053
25618WAT     H177096   7.414   8.396   7.975
25618WAT     H277097   7.329   8.265   8.021
25619WAT      O77098   7.368   3.165   4.051
25619WAT     H177099   7.290   3.104   4.067
25619WAT     H277100   7.445   3.134   4.106
25620WAT      O77101   1.007   0.475   8.407
25620WAT     H177102   1.030   0.418   8.328
25620WAT     H277103   0.907   0.478   8.418
25621WAT      O77104   3.272   6.858   3.952
25621WAT     H177105   3.228   6.769   3.963
25621WAT     H277106   3.321   6.882   4.035
25622WAT      O77107   6.537   5.273   5.797
25622WAT     H177108   6.555   5.308   5.889
25622WAT     H277109   6.438   5.269   5.781
25623WAT      O77110   0.928   5.502   4.189
25623WAT     H177111   0.967   5.578   4.137
25623WAT     H277112   0.963   5.504   4.282
25624WAT      O77113   2.723   2.454   5.111
25624WAT     H177114   2.677   2.400   5.040
25624WAT     H277115   2.667   2.454   5.193
25625WAT      O77116   1.257   4.518   2.194
25625WAT     H177117   1.287   4.611   2.215
25625WAT     H277118   1.304   4.454   2.254
25626WAT      O77119   6.906   8.845   9.804
25626WAT     H177120   6.912   8.857   9.705
25626WAT     H277121   6.997   8.856   9.845
25627WAT      O77122   0.249   2.980   5.691
25627WAT     H177123   0.284   2.940   5.606
25627WAT     H277124   0.165   2.933   5.717
25628WAT      O77125   4.554   9.004   0.523
25628WAT     H177126   4.513   8.932   0.467
25628WAT     H277127   4.527   8.990   0.619
25629WAT      O77128   6.343   6.005   2.791
25629WAT     H177129   6.426   6.008   2.846
25629WAT     H277130   6.263   6.022   2.849
25630WAT      O77131   1.597   8.328   4.041
25630WAT     H177132   1.515   8.293   4.087
25630WAT     H277133   1.656   8.373   4.109
25631WAT      O77134   5.515   3.542   5.030
25631WAT     H177135   5.433   3.583   4.989
25631WAT     H277136   5.583   3.525   4.959
25632WAT      O77137   8.164   6.214   2.978
25632WAT     H177138   8.261   6.228   2.958
25632WAT     H277139   8.123   6.157   2.908
25633WAT      O77140   6.468   5.585   8.951
25633WAT     H177141   6.562   5.556   8.972
25633WAT     H277142   6.408   5.562   9.027
25634WAT      O77143   8.832   5.166   3.850
25634WAT     H177144   8.818   5.263   3.869
25634WAT     H277145   8.783   5.111   3.919
25635WAT      O77146   1.731   0.317   7.921
25635WAT     H177147   1.738   0.412   7.953
25635WAT     H277148   1.703   0.258   7.997
25636WAT      O77149   8.311   7.405   5.112
25636WAT     H177150   8.329   7.436   5.205
25636WAT     H277151   8.386   7.346   5.082
25637WAT      O77152   9.534   9.397   3.087
25637WAT     H177153   9.471   9.329   3.127
25637WAT     H277154   9.624   9.356   3.075
25638WAT      O77155   5.860   8.406   7.455
25638WAT     H177156   5.894   8.447   7.540
25638WAT     H277157   5.933   8.356   7.410
25639WAT      O77158   1.692   7.577   9.458
25639WAT     H177159   1.705   7.642   9.384
25639WAT     H277160   1.718   7.486   9.428
25640WAT      O77161   5.602   8.208   4.913
25640WAT     H177162   5.580   8.216   5.010
25640WAT     H277163   5.521   8.176   4.863
25641WAT      O77164   4.678   9.322   2.145
25641WAT     H177165   4.726   9.243   2.107
25641WAT     H277166   4.707   9.336   2.240
25642WAT      O77167   3.397   7.825   2.271
25642WAT     H177168   3.481   7.801   2.222
25642WAT     H277169   3.318   7.806   2.213
25643WAT      O77170   8.938   2.255   2.311
25643WAT     H177171   8.873   2.182   2.332
25643WAT     H277172   8.899   2.314   2.240
25644WAT      O77173   6.134   8.899   7.608
25644WAT     H177174   6.060   8.949   7.564
25644WAT     H277175   6.133   8.804   7.578
25645WAT      O77176   5.078   2.988   7.250
25645WAT     H177177   5.069   2.912   7.185
25645WAT     H277178   5.163   2.977   7.302
25646WAT      O77179   7.439   9.799   4.039
25646WAT     H177180   7.523   9.746   4.054
25646WAT     H277181   7.360   9.738   4.046
25647WAT      O77182   6.150   7.118   9.112
25647WAT     H177183   6.193   7.056   9.178
25647WAT     H277184   6.179   7.093   9.019
25648WAT      O77185   6.053   6.663   3.465
25648WAT     H177186   5.959   6.693   3.455
25648WAT     H277187   6.058   6.591   3.535
25649WAT      O77188   9.352   4.988   5.025
25649WAT     H177189   9.333   5.077   5.066
25649WAT     H277190   9.287   4.921   5.061
25650WAT      O77191   2.050   8.542   7.248
25650WAT     H177192   2.138   8.572   7.211
25650WAT     H277193   1.980   8.548   7.177
25651WAT      O77194   4.178   7.286   1.947
25651WAT     H177195   4.098   7.232   1.921
25651WAT     H277196   4.261   7.233   1.930
25652WAT      O77197   5.874   3.806   2.241
25652WAT     H177198   5.942   3.772   2.177
25652WAT     H277199   5.788   3.757   2.228
25653WAT      O77200   8.433   8.316   9.743
25653WAT     H177201   8.381   8.401   9.746
25653WAT     H277202   8.485   8.311   9.658
25654WAT      O77203   9.241   4.552   5.190
25654WAT     H177204   9.265   4.466   5.235
25654WAT     H277205   9.158   4.589   5.232
25655WAT      O77206   4.849   3.714   9.403
25655WAT     H177207   4.778   3.661   9.449
25655WAT     H277208   4.938   3.689   9.441
25656WAT      O77209   6.616   8.648   6.360
25656WAT     H177210   6.697   8.595   6.336
25656WAT     H277211   6.550   8.646   6.285
25657WAT      O77212   5.020   2.904   1.654
25657WAT     H177213   5.022   2.993   1.700
25657WAT     H277214   5.109   2.885   1.614
25658WAT      O77215   7.282   6.027   0.565
25658WAT     H177216   7.318   5.953   0.621
25658WAT     H277217   7.332   6.111   0.584
25659WAT      O77218   8.286   8.877   0.060
25659WAT     H177219   8.371   8.894   0.110
25659WAT     H277220   8.219   8.835   0.122
25660WAT      O77221   0.992   9.185   8.861
25660WAT     H177222   0.918   9.144   8.915
25660WAT     H277223   0.989   9.149   8.768
25661WAT      O77224   2.991   7.000   3.692
25661WAT     H177225   3.037   6.924   3.646
25661WAT     H277226   3.052   7.038   3.762
25662WAT      O77227   2.629   2.097   9.297
25662WAT     H177228   2.633   2.126   9.393
25662WAT     H277229   2.699   2.145   9.245
25663WAT      O77230   0.893   6.867   0.161
25663WAT     H177231   0.955   6.831   0.091
25663WAT     H277232   0.858   6.955   0.132
25664WAT      O77233   0.458   2.856   9.287
25664WAT     H177234   0.547   2.895   9.308
25664WAT     H277235   0.454   2.761   9.320
25665WAT      O77236   7.151   2.748   9.151
25665WAT     H177237   7.098   2.676   9.105
25665WAT     H277238   7.095   2.830   9.160
25666WAT      O77239   1.242   4.169   3.242
25666WAT     H177240   1.155   4.216   3.230
25666WAT     H277241   1.254   4.103   3.168
25667WAT      O77242   3.811   0.759   3.736
25667WAT     H177243   3.910   0.766   3.748
25667WAT     H277244   3.789   0.669   3.698
25668WAT      O77245   2.575   7.685   2.341
25668WAT     H177246   2.605   7.593   2.316
25668WAT     H277247   2.596   7.702   2.437
25669WAT      O77248   6.385   7.164   0.749
25669WAT     H177249   6.443   7.128   0.822
25669WAT     H277250   6.419   7.132   0.661
25670WAT      O77251   9.851   5.864   6.565
25670WAT     H177252   9.886   5.811   6.488
25670WAT     H277253   9.825   5.955   6.534
25671WAT      O77254   8.448   3.502   2.622
25671WAT     H177255   8.515   3.575   2.610
25671WAT     H277256   8.371   3.536   2.676
25672WAT      O77257   4.685   3.017   7.974
25672WAT     H177258   4.711   2.976   8.062
25672WAT     H277259   4.606   3.076   7.988
25673WAT      O77260   3.260   7.012   8.293
25673WAT     H177261   3.236   6.982   8.200
25673WAT     H277262   3.237   7.109   8.303
25674WAT      O77263   0.897   0.936   0.857
25674WAT     H177264   0.950   0.904   0.935
25674WAT     H277265   0.813   0.883   0.850
25675WAT      O77266   0.053   2.108   8.284
25675WAT     H177267   0.017   2.185   8.231
25675WAT     H277268   0.027   2.119   8.380
25676WAT      O77269   1.451   5.379   4.207
25676WAT     H177270   1.523   5.429   4.255
25676WAT     H277271   1.366   5.383   4.260
25677WAT      O77272   9.382   7.941   6.945
25677WAT     H177273   9.429   8.021   6.982
25677WAT     H277274   9.361   7.956   6.849
25678WAT      O77275   9.352   6.502   1.863
25678WAT     H177276   9.308   6.500   1.953
25678WAT     H277277   9.315   6.429   1.806
25679WAT      O77278   7.719   3.805   3.859
25679WAT     H177279   7.654   3.809   3.783
25679WAT     H277280   7.705   3.884   3.919
25680WAT      O77281   3.307   3.238   4.312
25680WAT     H177282   3.288   3.261   4.407
25680WAT     H277283   3.404   3.216   4.301
25681WAT      O77284   4.552   1.518   6.747
25681WAT     H177285   4.493   1.578   6.692
25681WAT     H277286   4.506   1.497   6.833
25682WAT      O77287   4.004   9.377   6.214
25682WAT     H177288   4.026   9.453   6.275
25682WAT     H277289   3.995   9.293   6.267
25683WAT      O77290   8.392   6.542   3.771
25683WAT     H177291   8.378   6.488   3.854
25683WAT     H277292   8.408   6.482   3.693
25684WAT      O77293   3.622   5.077   0.488
25684WAT     H177294   3.566   5.066   0.570
25684WAT     H277295   3.592   5.159   0.438
25685WAT      O77296   9.666   0.324   5.553
25685WAT     H177297   9.589   0.261   5.568
25685WAT     H277298   9.695   0.321   5.458
25686WAT      O77299   1.163   7.878   8.749
25686WAT     H177300   1.190   7.782   8.758
25686WAT     H277301   1.176   7.924   8.837
25687WAT      O77302   4.373   9.573   1.050
25687WAT     H177303   4.355   9.510   1.126
25687WAT     H277304   4.454   9.627   1.071
25688WAT      O77305   0.544   9.494   7.898
25688WAT     H177306   0.546   9.571   7.962
25688WAT     H277307   0.468   9.434   7.922
25689WAT      O77308   9.607   5.111   4.436
25689WAT     H177309   9.588   5.189   4.376
25689WAT     H277310   9.683   5.133   4.496
25690WAT      O77311   5.769   2.182   0.549
25690WAT     H177312   5.771   2.157   0.646
25690WAT     H277313   5.856   2.158   0.507
25691WAT      O77314   6.361   7.278   6.049
25691WAT     H177315   6.312   7.350   6.100
25691WAT     H277316   6.407   7.218   6.114
25692WAT      O77317   3.847   2.965   3.256
25692WAT     H177318   3.820   2.985   3.162
25692WAT     H277319   3.827   3.044   3.314
25693WAT      O77320   0.689   2.967   8.391
25693WAT     H177321   0.636   3.006   8.316
25693WAT     H277322   0.648   2.992   8.478
25694WAT      O77323   5.881   6.755   7.596
25694WAT     H177324   5.928   6.789   7.677
25694WAT     H277325   5.844   6.832   7.544
25695WAT      O77326   0.162   0.637   1.163
25695WAT     H177327   0.145   0.540   1.181
25695WAT     H277328   0.085   0.692   1.197
25696WAT      O77329   2.680   2.413   4.131
25696WAT     H177330   2.688   2.314   4.123
25696WAT     H277331   2.771   2.454   4.134
25697WAT      O77332   8.219   8.690   4.152
25697WAT     H177333   8.150   8.685   4.081
25697WAT     H277334   8.175   8.703   4.241
25698WAT      O77335   7.377   2.650   1.963
25698WAT     H177336   7.310   2.704   2.013
25698WAT     H277337   7.331   2.594   1.894
25699WAT      O77338   0.082   4.171   0.700
25699WAT     H177339   0.052   4.266   0.700
25699WAT     H277340   0.137   4.154   0.618
25700WAT      O77341   8.058   1.787   7.990
25700WAT     H177342   8.059   1.839   7.905
25700WAT     H277343   8.122   1.710   7.983
25701WAT      O77344   2.462   5.048   6.149
25701WAT     H177345   2.496   5.063   6.242
25701WAT     H277346   2.417   5.131   6.116
25702WAT      O77347   1.405   9.841   1.355
25702WAT     H177348   1.410   9.782   1.435
25702WAT     H277349   1.480   9.907   1.357
25703WAT      O77350   3.675   0.417   9.581
25703WAT     H177351   3.668   0.334   9.526
25703WAT     H277352   3.650   0.397   9.676
25704WAT      O77353   8.455   3.826   5.115
25704WAT     H177354   8.492   3.761   5.048
25704WAT     H277355   8.387   3.884   5.070
25705WAT      O77356   9.715   0.783   9.304
25705WAT     H177357   9.781   0.708   9.315
25705WAT     H277358   9.693   0.794   9.208
25706WAT      O77359   1.049   4.539   6.424
25706WAT     H177360   1.130   4.597   6.422
25706WAT     H277361   1.064   4.463   6.488
25707WAT      O77362   3.069   0.423   4.217
25707WAT     H177363   3.025   0.510   4.237
25707WAT     H277364   3.035   0.352   4.279
25708WAT      O77365   6.107   8.627   3.052
25708WAT     H177366   6.082   8.699   3.116
25708WAT     H277367   6.110   8.539   3.099
25709WAT      O77368   9.208   7.092   3.222
25709WAT     H177369   9.275   7.160   3.192
25709WAT     H277370   9.116   7.119   3.191
25710WAT      O77371   3.933   4.069   3.527
25710WAT     H177372   3.889   4.151   3.563
25710WAT     H277373   3.921   4.064   3.428
25711WAT      O77374   2.475   8.762   4.150
25711WAT     H177375   2.396   8.823   4.138
25711WAT     H277376   2.556   8.804   4.110
25712WAT      O77377   0.089   0.161   5.192
25712WAT     H177378   0.162   0.164   5.123
25712WAT     H277379   0.027   0.086   5.172
25713WAT      O77380   6.249   7.009   6.535
25713WAT     H177381   6.182   6.944   6.500
25713WAT     H277382   6.248   7.092   6.480
25714WAT      O77383   1.701   7.935   4.365
25714WAT     H177384   1.681   7.961   4.271
25714WAT     H277385   1.800   7.929   4.378
25715WAT      O77386   9.152   9.498   9.620
25715WAT     H177387   9.159   9.576   9.559
25715WAT     H277388   9.063   9.499   9.666
25716WAT      O77389   3.287   1.203   8.333
25716WAT     H177390   3.280   1.253   8.247
25716WAT     H277391   3.337   1.259   8.400
25717WAT      O77392   5.239   9.695   6.624
25717WAT     H177393   5.151   9.737   6.603
25717WAT     H277394   5.224   9.613   6.679
25718WAT      O77395   1.990   8.341   7.414
25718WAT     H177396   1.920   8.372   7.478
25718WAT     H277397   2.001   8.409   7.341
25719WAT      O77398   6.076   2.916   3.908
25719WAT     H177399   5.981   2.943   3.893
25719WAT     H277400   6.137   2.988   3.874
25720WAT      O77401   8.336   9.171   0.235
25720WAT     H177402   8.371   9.204   0.147
25720WAT     H277403   8.413   9.145   0.293
25721WAT      O77404   8.244   4.419   4.756
25721WAT     H177405   8.295   4.502   4.732
25721WAT     H277406   8.291   4.339   4.718
25722WAT      O77407   9.444   0.963   6.702
25722WAT     H177408   9.414   0.878   6.744
25722WAT     H277409   9.456   1.033   6.772
25723WAT      O77410   8.036   8.660   9.057
25723WAT     H177411   8.089   8.707   8.987
25723WAT     H277412   7.996   8.577   9.018
25724WAT      O77413   8.100   0.982   9.518
25724WAT     H177414   8.188   1.024   9.540
25724WAT     H277415   8.031   1.014   9.582
25725WAT      O77416   9.687   9.320   7.595
25725WAT     H177417   9.645   9.408   7.572
25725WAT     H277418   9.750   9.293   7.522
25726WAT      O77419   7.034   0.621   1.097
25726WAT     H177420   7.014   0.523   1.098
25726WAT     H277421   7.123   0.638   1.139
25727WAT      O77422   0.785   5.412   7.477
25727WAT     H177423   0.709   5.356   7.511
25727WAT     H277424   0.855   5.353   7.438
25728WAT      O77425   1.818   4.437   8.919
25728WAT     H177426   1.917   4.424   8.910
25728WAT     H277427   1.771   4.354   8.889
25729WAT      O77428   4.222   7.229   8.196
25729WAT     H177429   4.172   7.232   8.283
25729WAT     H277430   4.195   7.306   8.139
25730WAT      O77431   4.399   4.167   7.732
25730WAT     H177432   4.368   4.114   7.811
25730WAT     H277433   4.351   4.255   7.731
25731WAT      O77434   0.130   5.082   8.618
25731WAT     H177435   0.229   5.076   8.624
25731WAT     H277436   0.089   5.021   8.686
25732WAT      O77437   2.150   9.387   2.845
25732WAT     H177438   2.178   9.454   2.776
25732WAT     H277439   2.059   9.410   2.878
25733WAT      O77440   0.819   6.467   3.094
25733WAT     H177441   0.827   6.383   3.041
25733WAT     H277442   0.833   6.447   3.191
25734WAT      O77443   0.231   5.101   5.146
25734WAT     H177444   0.224   5.199   5.130
25734WAT     H277445   0.141   5.059   5.139
25735WAT      O77446   3.465   1.374   8.418
25735WAT     H177447   3.540   1.315   8.450
25735WAT     H277448   3.494   1.424   8.337
25736WAT      O77449   6.390   9.171   4.390
25736WAT     H177450   6.455   9.128   4.452
25736WAT     H277451   6.297   9.154   4.423
25737WAT      O77452   4.556   1.797   0.976
25737WAT     H177453   4.654   1.774   0.972
25737WAT     H277454   4.545   1.887   1.020
25738WAT      O77455   5.458   8.665   8.593
25738WAT     H177456   5.533   8.704   8.539
25738WAT     H277457   5.490   8.647   8.686
25739WAT      O77458   4.228   0.493   8.071
25739WAT     H177459   4.226   0.416   8.135
25739WAT     H277460   4.202   0.461   7.980
25740WAT      O77461   6.433   1.178   1.726
25740WAT     H177462   6.395   1.267   1.699
25740WAT     H277463   6.504   1.151   1.661
25741WAT      O77464   1.437   0.490   8.561
25741WAT     H177465   1.356   0.549   8.564
25741WAT     H277466   1.431   0.431   8.481
25742WAT      O77467   8.506   7.825   8.548
25742WAT     H177468   8.602   7.850   8.562
25742WAT     H277469   8.493   7.797   8.453
25743WAT      O77470   6.395   3.422   3.942
25743WAT     H177471   6.313   3.399   3.890
25743WAT     H277472   6.463   3.350   3.929
25744WAT      O77473   1.872   3.981   8.784
25744WAT     H177474   1.970   3.995   8.797
25744WAT     H277475   1.846   3.890   8.814
25745WAT      O77476   2.950   0.984   0.316
25745WAT     H177477   2.966   1.082   0.325
25745WAT     H277478   3.035   0.938   0.293
25746WAT      O77479   5.047   8.205   7.951
25746WAT     H177480   5.066   8.283   7.892
25746WAT     H277481   5.010   8.130   7.896
25747WAT      O77482   3.768   5.589   1.382
25747WAT     H177483   3.831   5.535   1.326
25747WAT     H277484   3.680   5.543   1.387
25748WAT      O77485   6.876   7.336   7.355
25748WAT     H177486   6.925   7.362   7.439
25748WAT     H277487   6.928   7.267   7.306
25749WAT      O77488   8.219   2.575   3.287
25749WAT     H177489   8.145   2.639   3.266
25749WAT     H277490   8.280   2.617   3.354
25750WAT      O77491   6.283   6.260   6.594
25750WAT     H177492   6.266   6.257   6.692
25750WAT     H277493   6.320   6.350   6.569
25751WAT      O77494   7.493   1.658   3.534
25751WAT     H177495   7.549   1.740   3.526
25751WAT     H277496   7.498   1.623   3.628
25752WAT      O77497   6.061   8.474   9.816
25752WAT     H177498   5.992   8.544   9.836
25752WAT     H277499   6.026   8.410   9.748
25753WAT      O77500   9.500   8.326   2.459
25753WAT     H177501   9.415   8.274   2.460
25753WAT     H277502   9.481   8.423   2.477
25754WAT      O77503   2.683   9.751   4.415
25754WAT     H177504   2.615   9.678   4.410
25754WAT     H277505   2.662   9.811   4.493
25755WAT      O77506   6.773   7.340   9.702
25755WAT     H177507   6.730   7.338   9.612
25755WAT     H277508   6.828   7.258   9.715
25756WAT      O77509   6.764   6.010   7.166
25756WAT     H177510   6.812   5.954   7.099
25756WAT     H277511   6.773   5.969   7.257
25757WAT      O77512   8.283   3.095   2.306
25757WAT     H177513   8.308   3.176   2.359
25757WAT     H277514   8.228   3.033   2.362
25758WAT      O77515   0.088   7.307   4.916
25758WAT     H177516   0.182   7.307   4.884
25758WAT     H277517   0.027   7.280   4.841
25759WAT      O77518   5.937   2.945   2.329
25759WAT     H177519   5.922   2.988   2.240
25759WAT     H277520   5.873   2.870   2.341
25760WAT      O77521   8.361   3.021   9.287
25760WAT     H177522   8.425   2.974   9.347
25760WAT     H277523   8.267   3.003   9.319
25761WAT      O77524   6.494   5.688   9.281
25761WAT     H177525   6.424   5.754   9.306
25761WAT     H277526   6.579   5.737   9.260
25762WAT      O77527   7.304   5.960   8.583
25762WAT     H177528   7.373   5.933   8.516
25762WAT     H277529   7.349   5.981   8.670
25763WAT      O77530   0.575   4.177   7.650
25763WAT     H177531   0.507   4.245   7.623
25763WAT     H277532   0.596   4.188   7.747
25764WAT      O77533   7.155   3.015   4.104
25764WAT     H177534   7.120   2.924   4.122
25764WAT     H277535   7.080   3.076   4.078
25765WAT      O77536   4.922   2.365   3.891
25765WAT     H177537   4.965   2.455   3.887
25765WAT     H277538   4.838   2.371   3.945
25766WAT      O77539   8.489   5.410   1.503
25766WAT     H177540   8.565   5.472   1.483
25766WAT     H277541   8.408   5.441   1.454
25767WAT      O77542   6.269   5.359   0.678
25767WAT     H177543   6.366   5.342   0.659
25767WAT     H277544   6.257   5.453   0.708
25768WAT      O77545   5.170   4.201   9.604
25768WAT     H177546   5.212   4.157   9.525
25768WAT     H277547   5.081   4.238   9.578
25769WAT      O77548   5.307   9.389   9.874
25769WAT     H177549   5.327   9.380   9.777
25769WAT     H277550   5.375   9.338   9.927
25770WAT      O77551   2.443   4.752   3.700
25770WAT     H177552   2.457   4.654   3.682
25770WAT     H277553   2.347   4.776   3.682
25771WAT      O77554   6.424   1.609   3.837
25771WAT     H177555   6.371   1.525   3.845
25771WAT     H277556   6.381   1.681   3.892
25772WAT      O77557   2.390   6.025   7.912
25772WAT     H177558   2.444   6.086   7.970
25772WAT     H277559   2.448   5.951   7.878
25773WAT      O77560   7.736   6.290   6.888
25773WAT     H177561   7.818   6.344   6.869
25773WAT     H277562   7.655   6.348   6.880
25774WAT      O77563   8.756   5.421   8.801
25774WAT     H177564   8.681   5.480   8.831
25774WAT     H277565   8.842   5.471   8.807
25775WAT      O77566   1.535   9.127   2.963
25775WAT     H177567   1.451   9.174   2.936
25775WAT     H277568   1.559   9.058   2.895
25776WAT      O77569   6.304   0.628   8.572
25776WAT     H177570   6.296   0.705   8.635
25776WAT     H277571   6.293   0.542   8.622
25777WAT      O77572   9.432   0.647   5.362
25777WAT     H177573   9.519   0.604   5.339
25777WAT     H277574   9.423   0.733   5.312
25778WAT      O77575   1.803   2.199   0.343
25778WAT     H177576   1.705   2.219   0.347
25778WAT     H277577   1.829   2.178   0.249
25779WAT      O77578   8.862   9.130   7.670
25779WAT     H177579   8.927   9.136   7.747
25779WAT     H277580   8.785   9.073   7.697
25780WAT      O77581   4.259   3.784   5.106
25780WAT     H177582   4.268   3.748   5.199
25780WAT     H277583   4.337   3.843   5.085
25781WAT      O77584   1.677   7.097   6.684
25781WAT     H177585   1.714   7.147   6.606
25781WAT     H277586   1.643   7.162   6.752
25782WAT      O77587   4.843   8.764   2.551
25782WAT     H177588   4.776   8.694   2.576
25782WAT     H277589   4.921   8.759   2.614
25783WAT      O77590   8.704   8.698   4.700
25783WAT     H177591   8.649   8.711   4.782
25783WAT     H277592   8.762   8.618   4.711
25784WAT      O77593   2.558   7.831   4.233
25784WAT     H177594   2.576   7.805   4.327
25784WAT     H277595   2.645   7.848   4.186
25785WAT      O77596   3.705   6.592   7.326
25785WAT     H177597   3.779   6.545   7.279
25785WAT     H277598   3.649   6.525   7.376
25786WAT      O77599   0.806   2.797   0.986
25786WAT     H177600   0.901   2.787   1.014
25786WAT     H277601   0.796   2.768   0.891
25787WAT      O77602   6.178   7.834   4.728
25787WAT     H177603   6.164   7.742   4.764
25787WAT     H277604   6.208   7.894   4.802
25788WAT      O77605   1.057   0.748   2.438
25788WAT     H177606   1.065   0.652   2.465
25788WAT     H277607   0.961   0.773   2.432
25789WAT      O77608   4.271   4.466   1.020
25789WAT     H177609   4.315   4.377   1.014
25789WAT     H277610   4.332   4.531   1.064
25790WAT      O77611   6.803   1.671   0.404
25790WAT     H177612   6.725   1.657   0.464
25790WAT     H277613   6.799   1.763   0.364
25791WAT      O77614   1.022   7.299   6.565
25791WAT     H177615   1.056   7.255   6.648
25791WAT     H277616   1.006   7.396   6.582
25792WAT      O77617   8.905   3.171   0.738
25792WAT     H177618   8.927   3.238   0.808
25792WAT     H277619   8.931   3.206   0.648
25793WAT      O77620   9.123   3.075   4.279
25793WAT     H177621   9.204   3.015   4.282
25793WAT     H277622   9.130   3.136   4.200
25794WAT      O77623   3.456   3.089   4.958
25794WAT     H177624   3.412   3.116   5.044
25794WAT     H277625   3.401   3.121   4.881
25795WAT      O77626   1.538   6.373   0.941
25795WAT     H177627   1.586   6.442   0.886
25795WAT     H277628   1.594   6.350   1.021
25796WAT      O77629   3.428   7.317   0.941
25796WAT     H177630   3.471   7.257   0.873
25796WAT     H277631   3.422   7.269   1.028
25797WAT      O77632   2.753   6.331   7.515
25797WAT     H177633   2.763   6.421   7.558
25797WAT     H277634   2.844   6.293   7.496
25798WAT      O77635   6.960   0.868   9.170
25798WAT     H177636   6.902   0.818   9.106
25798WAT     H277637   7.040   0.905   9.122
25799WAT      O77638   7.422   6.974   6.058
25799WAT     H177639   7.447   7.058   6.107
25799WAT     H277640   7.480   6.963   5.978
25800WAT      O77641   3.604   9.124   4.890
25800WAT     H177642   3.656   9.039   4.891
25800WAT     H277643   3.566   9.142   4.981
25801WAT      O77644   6.703   9.792   2.445
25801WAT     H177645   6.760   9.872   2.427
25801WAT     H277646   6.759   9.710   2.440
25802WAT      O77647   9.866   3.517   6.386
25802WAT     H177648   9.830   3.585   6.449
25802WAT     H277649   9.844   3.543   6.292
25803WAT      O77650   3.036   3.544   1.334
25803WAT     H177651   3.099   3.603   1.282
25803WAT     H277652   2.944   3.582   1.330
25804WAT      O77653   9.881   4.650   7.659
25804WAT     H177654   9.899   4.704   7.577
25804WAT     H277655   9.960   4.592   7.678
25805WAT      O77656   7.733   0.885   0.867
25805WAT     H177657   7.768   0.978   0.876
25805WAT     H277658   7.809   0.823   0.846
25806WAT      O77659   5.617   3.070   5.313
25806WAT     H177660   5.596   3.104   5.405
25806WAT     H277661   5.609   3.145   5.248
25807WAT      O77662   4.681   4.627   1.473
25807WAT     H177663   4.634   4.547   1.435
25807WAT     H277664   4.618   4.704   1.478
25808WAT      O77665   8.697   4.365   2.333
25808WAT     H177666   8.663   4.303   2.262
25808WAT     H277667   8.652   4.454   2.323
25809WAT      O77668   5.551   7.075   2.650
25809WAT     H177669   5.618   7.149   2.663
25809WAT     H277670   5.573   7.000   2.712
25810WAT      O77671   1.052   3.428   1.125
25810WAT     H177672   1.101   3.345   1.100
25810WAT     H277673   1.106   3.479   1.192
25811WAT      O77674   1.771   3.079   8.763
25811WAT     H177675   1.710   3.047   8.691
25811WAT     H277676   1.860   3.035   8.753
25812WAT      O77677   2.073   4.203   1.440
25812WAT     H177678   2.057   4.148   1.358
25812WAT     H277679   2.065   4.300   1.418
25813WAT      O77680   0.397   8.004   0.249
25813WAT     H177681   0.347   8.079   0.207
25813WAT     H277682   0.400   7.926   0.187
25814WAT      O77683   7.597   8.180   1.854
25814WAT     H177684   7.534   8.258   1.856
25814WAT     H277685   7.645   8.173   1.942
25815WAT      O77686   2.860   6.172   4.503
25815WAT     H177687   2.856   6.076   4.475
25815WAT     H277688   2.948   6.191   4.546
25816WAT      O77689   5.444   2.692   8.523
25816WAT     H177690   5.503   2.627   8.475
25816WAT     H277691   5.357   2.649   8.544
25817WAT      O77692   8.257   9.828   1.733
25817WAT     H177693   8.157   9.822   1.728
25817WAT     H277694   8.288   9.905   1.678
25818WAT      O77695   1.505   2.330   7.683
25818WAT     H177696   1.568   2.369   7.749
25818WAT     H277697   1.555   2.299   7.602
25819WAT      O77698   1.027   8.128   1.555
25819WAT     H177699   0.943   8.181   1.552
25819WAT     H277700   1.005   8.034   1.582
25820WAT      O77701   0.571   5.545   4.683
25820WAT     H177702   0.649   5.527   4.623
25820WAT     H277703   0.510   5.612   4.640
25821WAT      O77704   4.077   9.607   6.348
25821WAT     H177705   4.074   9.697   6.305
25821WAT     H277706   4.053   9.614   6.444
25822WAT      O77707   7.079   5.545   9.552
25822WAT     H177708   7.177   5.557   9.572
25822WAT     H277709   7.035   5.501   9.629
25823WAT      O77710   4.998   6.429   5.488
25823WAT     H177711   4.921   6.368   5.509
25823WAT     H277712   4.978   6.520   5.524
25824WAT      O77713   5.381   4.447   5.666
25824WAT     H177714   5.429   4.522   5.712
25824WAT     H277715   5.282   4.465   5.667
25825WAT      O77716   1.393   5.942   0.284
25825WAT     H177717   1.414   6.006   0.210
25825WAT     H277718   1.477   5.897   0.314
25826WAT      O77719   4.805   0.296   6.312
25826WAT     H177720   4.775   0.236   6.386
25826WAT     H277721   4.816   0.241   6.228
25827WAT      O77722   3.952   6.685   9.680
25827WAT     H177723   4.029   6.709   9.621
25827WAT     H277724   3.969   6.720   9.772
25828WAT      O77725   4.786   4.519   0.171
25828WAT     H177726   4.848   4.454   0.215
25828WAT     H277727   4.801   4.611   0.208
25829WAT      O77728   7.907   6.941   6.741
25829WAT     H177729   7.861   6.946   6.652
25829WAT     H277730   8.002   6.971   6.731
25830WAT      O77731   8.126   4.457   8.727
25830WAT     H177732   8.044   4.418   8.768
25830WAT     H277733   8.126   4.440   8.629
25831WAT      O77734   4.547   4.127   9.546
25831WAT     H177735   4.526   4.030   9.536
25831WAT     H277736   4.541   4.152   9.643
25832WAT      O77737   1.154   3.435   4.527
25832WAT     H177738   1.076   3.380   4.557
25832WAT     H277739   1.157   3.520   4.579
25833WAT      O77740   0.371   7.040   6.694
25833WAT     H177741   0.342   7.109   6.761
25833WAT     H277742   0.470   7.028   6.699
25834WAT      O77743   1.653   7.892   3.290
25834WAT     H177744   1.708   7.867   3.210
25834WAT     H277745   1.557   7.867   3.273
25835WAT      O77746   2.261   2.358   5.782
25835WAT     H177747   2.354   2.360   5.744
25835WAT     H277748   2.198   2.402   5.717
25836WAT      O77749   6.439   0.650   6.892
25836WAT     H177750   6.537   0.653   6.874
25836WAT     H277751   6.395   0.591   6.824
25837WAT      O77752   3.740   3.651   8.719
25837WAT     H177753   3.733   3.554   8.697
25837WAT     H277754   3.787   3.699   8.645
25838WAT      O77755   3.341   7.633   4.763
25838WAT     H177756   3.333   7.658   4.859
25838WAT     H277757   3.377   7.711   4.711
25839WAT      O77758   8.364   6.041   5.018
25839WAT     H177759   8.449   6.032   5.070
25839WAT     H277760   8.297   5.976   5.054
25840WAT      O77761   5.767   9.774   2.188
25840WAT     H177762   5.795   9.689   2.144
25840WAT     H277763   5.846   9.835   2.196
25841WAT      O77764   4.126   5.381   4.097
25841WAT     H177765   4.199   5.396   4.164
25841WAT     H277766   4.039   5.411   4.137
25842WAT      O77767   3.043   8.542   7.790
25842WAT     H177768   3.116   8.514   7.727
25842WAT     H277769   2.983   8.465   7.808
25843WAT      O77770   6.550   0.290   1.309
25843WAT     H177771   6.508   0.367   1.356
25843WAT     H277772   6.588   0.320   1.222
25844WAT      O77773   9.776   9.020   3.765
25844WAT     H177774   9.763   9.102   3.821
25844WAT     H277775   9.872   9.014   3.738
25845WAT      O77776   1.576   6.811   6.982
25845WAT     H177777   1.564   6.836   6.886
25845WAT     H277778   1.601   6.715   6.989
25846WAT      O77779   2.790   8.211   6.446
25846WAT     H177780   2.878   8.210   6.493
25846WAT     H277781   2.717   8.213   6.514
25847WAT      O77782   2.942   6.498   6.251
25847WAT     H177783   2.987   6.574   6.203
25847WAT     H277784   2.845   6.497   6.229
25848WAT      O77785   3.454   2.454   1.905
25848WAT     H177786   3.455   2.513   1.824
25848WAT     H277787   3.382   2.385   1.895
25849WAT      O77788   7.686   3.630   0.496
25849WAT     H177789   7.737   3.552   0.532
25849WAT     H277790   7.735   3.670   0.419
25850WAT      O77791   2.426   0.849   3.789
25850WAT     H177792   2.479   0.932   3.807
25850WAT     H277793   2.489   0.771   3.784
25851WAT      O77794   1.450   9.286   9.722
25851WAT     H177795   1.511   9.282   9.801
25851WAT     H277796   1.366   9.335   9.746
25852WAT      O77797   9.715   8.211   2.012
25852WAT     H177798   9.733   8.116   1.983
25852WAT     H277799   9.692   8.212   2.109
25853WAT      O77800   5.567   5.316   0.773
25853WAT     H177801   5.612   5.304   0.685
25853WAT     H277802   5.608   5.254   0.840
25854WAT      O77803   0.627   9.622   3.274
25854WAT     H177804   0.543   9.656   3.318
25854WAT     H277805   0.650   9.682   3.197
25855WAT      O77806   4.678   3.581   4.847
25855WAT     H177807   4.748   3.624   4.791
25855WAT     H277808   4.606   3.545   4.788
25856WAT      O77809   8.658   0.674   6.833
25856WAT     H177810   8.700   0.585   6.817
25856WAT     H277811   8.600   0.669   6.915
25857WAT      O77812   5.345   5.671   1.411
25857WAT     H177813   5.292   5.708   1.487
25857WAT     H277814   5.432   5.719   1.404
25858WAT      O77815   5.850   5.715   8.385
25858WAT     H177816   5.808   5.653   8.451
25858WAT     H277817   5.808   5.702   8.295
25859WAT      O77818   3.341   5.647   4.665
25859WAT     H177819   3.401   5.599   4.729
25859WAT     H277820   3.378   5.639   4.572
25860WAT      O77821   1.728   9.437   2.767
25860WAT     H177822   1.788   9.456   2.845
25860WAT     H277823   1.782   9.429   2.684
25861WAT      O77824   6.501   7.320   8.911
25861WAT     H177825   6.590   7.280   8.931
25861WAT     H277826   6.454   7.266   8.841
25862WAT      O77827   1.205   5.308   0.537
25862WAT     H177828   1.143   5.362   0.593
25862WAT     H277829   1.197   5.211   0.562
25863WAT      O77830   3.416   4.671   6.349
25863WAT     H177831   3.365   4.750   6.316
25863WAT     H277832   3.462   4.626   6.272
25864WAT      O77833   7.584   8.186   0.660
25864WAT     H177834   7.592   8.150   0.753
25864WAT     H277835   7.491   8.222   0.646
25865WAT      O77836   3.072   6.833   0.880
25865WAT     H177837   3.057   6.887   0.963
25865WAT     H277838   3.019   6.749   0.886
25866WAT      O77839   4.716   1.839   5.428
25866WAT     H177840   4.754   1.865   5.340
25866WAT     H277841   4.768   1.883   5.502
25867WAT      O77842   3.658   8.294   1.882
25867WAT     H177843   3.696   8.201   1.878
25867WAT     H277844   3.565   8.290   1.917
25868WAT      O77845   6.215   0.532   4.348
25868WAT     H177846   6.301   0.582   4.335
25868WAT     H277847   6.140   0.597   4.360
25869WAT      O77848   7.745   4.490   9.442
25869WAT     H177849   7.748   4.449   9.533
25869WAT     H277850   7.816   4.561   9.434
25870WAT      O77851   1.060   2.030   7.775
25870WAT     H177852   1.071   2.071   7.684
25870WAT     H277853   1.023   2.099   7.838
25871WAT      O77854   9.253   7.224   1.958
25871WAT     H177855   9.252   7.204   2.056
25871WAT     H277856   9.247   7.323   1.944
25872WAT      O77857   9.039   8.045   8.657
25872WAT     H177858   9.076   8.122   8.709
25872WAT     H277859   9.035   7.964   8.715
25873WAT      O77860   9.485   5.176   1.667
25873WAT     H177861   9.420   5.105   1.695
25873WAT     H277862   9.438   5.264   1.662
25874WAT      O77863   1.357   0.771   2.611
25874WAT     H177864   1.340   0.696   2.547
25874WAT     H277865   1.376   0.734   2.701
25875WAT      O77866   2.114   4.596   1.037
25875WAT     H177867   2.194   4.542   1.011
25875WAT     H277868   2.075   4.639   0.955
25876WAT      O77869   0.466   7.837   7.123
25876WAT     H177870   0.421   7.758   7.166
25876WAT     H277871   0.504   7.896   7.193
25877WAT      O77872   8.484   6.358   3.555
25877WAT     H177873   8.492   6.273   3.503
25877WAT     H277874   8.481   6.435   3.492
25878WAT      O77875   9.006   7.400   1.585
25878WAT     H177876   9.074   7.428   1.653
25878WAT     H277877   8.931   7.351   1.630
25879WAT      O77878   7.078   4.814   7.954
25879WAT     H177879   6.979   4.800   7.952
25879WAT     H277880   7.097   4.902   7.999
25880WAT      O77881   3.800   9.444   7.845
25880WAT     H177882   3.844   9.531   7.824
25880WAT     H277883   3.702   9.452   7.829
25881WAT      O77884   1.542   1.935   7.470
25881WAT     H177885   1.463   1.988   7.436
25881WAT     H277886   1.626   1.986   7.452
25882WAT      O77887   2.090   4.980   1.963
25882WAT     H177888   2.017   5.027   2.013
25882WAT     H277889   2.172   4.978   2.019
25883WAT      O77890   5.155   7.329   0.215
25883WAT     H177891   5.078   7.298   0.159
25883WAT     H277892   5.212   7.251   0.239
25884WAT      O77893   4.557   9.529   4.469
25884WAT     H177894   4.626   9.523   4.541
25884WAT     H277895   4.603   9.540   4.381
25885WAT      O77896   8.084   9.352   4.703
25885WAT     H177897   8.157   9.361   4.771
25885WAT     H277898   8.050   9.258   4.703
25886WAT      O77899   0.278   3.660   6.031
25886WAT     H177900   0.227   3.730   6.080
25886WAT     H277901   0.237   3.571   6.046
25887WAT      O77902   3.652   7.462   5.320
25887WAT     H177903   3.589   7.399   5.274
25887WAT     H277904   3.704   7.513   5.252
25888WAT      O77905   7.558   3.333   2.899
25888WAT     H177906   7.469   3.290   2.881
25888WAT     H277907   7.549   3.432   2.888
25889WAT      O77908   4.751   5.449   3.091
25889WAT     H177909   4.848   5.443   3.112
25889WAT     H277910   4.717   5.540   3.116
25890WAT      O77911   7.644   1.292   9.721
25890WAT     H177912   7.577   1.318   9.791
25890WAT     H277913   7.730   1.339   9.738
25891WAT      O77914   6.654   0.835   2.933
25891WAT     H177915   6.561   0.863   2.912
25891WAT     H277916   6.680   0.870   3.023
25892WAT      O77917   9.467   6.747   1.002
25892WAT     H177918   9.541   6.693   0.963
25892WAT     H277919   9.419   6.796   0.929
25893WAT      O77920   4.670   6.156   9.607
25893WAT     H177921   4.607   6.083   9.582
25893WAT     H277922   4.629   6.212   9.679
25894WAT      O77923   4.832   6.634   7.481
25894WAT     H177924   4.872   6.548   7.450
25894WAT     H277925   4.822   6.632   7.580
25895WAT      O77926   1.205   5.237   9.501
25895WAT     H177927   1.205   5.157   9.442
25895WAT     H277928   1.143   5.223   9.578
25896WAT      O77929   0.591   6.981   4.197
25896WAT     H177930   0.668   7.033   4.161
25896WAT     H277931   0.565   6.911   4.130
25897WAT      O77932   9.265   7.700   6.678
25897WAT     H177933   9.245   7.603   6.691
25897WAT     H277934   9.210   7.754   6.742
25898WAT      O77935   5.705   3.988   2.783
25898WAT     H177936   5.731   4.044   2.861
25898WAT     H277937   5.612   4.009   2.755
25899WAT      O77938   5.929   9.564   5.773
25899WAT     H177939   5.830   9.563   5.783
25899WAT     H277940   5.959   9.657   5.748
25900WAT      O77941   3.529   2.047   5.687
25900WAT     H177942   3.555   1.961   5.732
25900WAT     H277943   3.459   2.093   5.743
25901WAT      O77944   8.730   7.509   6.543
25901WAT     H177945   8.653   7.497   6.605
25901WAT     H277946   8.732   7.435   6.476
25902WAT      O77947   4.288   6.054   0.085
25902WAT     H177948   4.352   5.985   0.052
25902WAT     H277949   4.240   6.095   0.008
25903WAT      O77950   4.632   7.891   7.217
25903WAT     H177951   4.701   7.961   7.234
25903WAT     H277952   4.628   7.872   7.119
25904WAT      O77953   9.622   2.804   9.540
25904WAT     H177954   9.716   2.804   9.506
25904WAT     H277955   9.622   2.831   9.636
25905WAT      O77956   2.753   9.392   8.749
25905WAT     H177957   2.715   9.402   8.657
25905WAT     H277958   2.846   9.355   8.742
25906WAT      O77959   8.278   7.450   7.721
25906WAT     H177960   8.295   7.541   7.682
25906WAT     H277961   8.346   7.431   7.792
25907WAT      O77962   4.576   8.302   1.599
25907WAT     H177963   4.598   8.391   1.560
25907WAT     H277964   4.573   8.233   1.526
25908WAT      O77965   5.960   4.790   8.234
25908WAT     H177966   5.864   4.799   8.210
25908WAT     H277967   6.015   4.848   8.175
25909WAT      O77968   4.475   7.815   5.416
25909WAT     H177969   4.407   7.854   5.354
25909WAT     H277970   4.449   7.722   5.441
25910WAT      O77971   5.266   8.889   4.537
25910WAT     H177972   5.215   8.806   4.560
25910WAT     H277973   5.294   8.886   4.441
25911WAT      O77974   6.980   4.472   9.558
25911WAT     H177975   7.000   4.389   9.506
25911WAT     H277976   7.059   4.534   9.554
25912WAT      O77977   7.330   3.390   4.328
25912WAT     H177978   7.354   3.294   4.313
25912WAT     H277979   7.254   3.414   4.268
25913WAT      O77980   8.123   9.427   5.977
25913WAT     H177981   8.069   9.369   5.916
25913WAT     H277982   8.099   9.523   5.961
25914WAT      O77983   2.965   4.307   0.012
25914WAT     H177984   2.951   4.234   0.079
25914WAT     H277985   2.895   4.377   0.025
25915WAT      O77986   1.537   1.123   7.956
25915WAT     H177987   1.598   1.119   7.877
25915WAT     H277988   1.452   1.168   7.929
25916WAT      O77989   8.241   2.852   3.617
25916WAT     H177990   8.334   2.888   3.624
25916WAT     H277991   8.240   2.756   3.646
25917WAT      O77992   3.636   5.416   8.000
25917WAT     H177993   3.582   5.332   8.004
25917WAT     H277994   3.729   5.397   8.029
25918WAT      O77995   3.932   6.157   4.236
25918WAT     H177996   4.027   6.167   4.265
25918WAT     H277997   3.882   6.241   4.258
25919WAT      O77998   3.572   7.597   5.564
25919WAT     H177999   3.597   7.554   5.477
25919WAT     H278000   3.545   7.527   5.629
25920WAT      O78001   1.682   3.655   2.202
25920WAT     H178002   1.622   3.582   2.235
25920WAT     H278003   1.746   3.618   2.135
25921WAT      O78004   2.666   4.162   4.275
25921WAT     H178005   2.687   4.183   4.370
25921WAT     H278006   2.599   4.088   4.271
25922WAT      O78007   2.405   4.069   3.981
25922WAT     H178008   2.418   4.039   3.887
25922WAT     H278009   2.378   4.165   3.982
25923WAT      O78010   3.629   4.024   2.390
25923WAT     H178011   3.565   4.097   2.412
25923WAT     H278012   3.663   4.035   2.297
25924WAT      O78013   9.391   9.314   1.468
25924WAT     H178014   9.422   9.303   1.563
25924WAT     H278015   9.355   9.227   1.435
25925WAT      O78016   3.997   7.516   6.584
25925WAT     H178017   4.038   7.592   6.635
25925WAT     H278018   4.052   7.498   6.503
25926WAT      O78019   0.881   0.913   7.909
25926WAT     H178020   0.820   0.992   7.922
25926WAT     H278021   0.826   0.831   7.893
25927WAT      O78022   0.147   2.821   7.323
25927WAT     H178023   0.238   2.855   7.300
25927WAT     H278024   0.148   2.721   7.327
25928WAT      O78025   3.468   4.157   7.044
25928WAT     H178026   3.526   4.234   7.073
25928WAT     H278027   3.381   4.161   7.092
25929WAT      O78028   8.130   3.585   9.616
25929WAT     H178029   8.060   3.528   9.573
25929WAT     H278030   8.086   3.647   9.682
25930WAT      O78031   8.705   7.254   0.516
25930WAT     H178032   8.651   7.230   0.597
25930WAT     H278033   8.645   7.261   0.437
25931WAT      O78034   4.414   3.027   8.302
25931WAT     H178035   4.501   3.036   8.255
25931WAT     H278036   4.413   3.086   8.383
25932WAT      O78037   6.648   3.369   0.294
25932WAT     H178038   6.641   3.273   0.268
25932WAT     H278039   6.567   3.396   0.346
25933WAT      O78040   5.283   2.955   4.659
25933WAT     H178041   5.372   2.943   4.613
25933WAT     H278042   5.224   3.013   4.602
25934WAT      O78043   3.339   9.424   2.126
25934WAT     H178044   3.423   9.434   2.072
25934WAT     H278045   3.285   9.508   2.120
25935WAT      O78046   8.572   1.395   8.994
25935WAT     H178047   8.617   1.473   9.037
25935WAT     H278048   8.533   1.336   9.064
25936WAT      O78049   1.557   1.867   2.635
25936WAT     H178050   1.470   1.823   2.614
25936WAT     H278051   1.542   1.939   2.704
25937WAT      O78052   5.765   1.388   7.671
25937WAT     H178053   5.681   1.441   7.677
25937WAT     H278054   5.773   1.347   7.581
25938WAT      O78055   6.603   9.697   3.904
25938WAT     H178056   6.597   9.796   3.897
25938WAT     H278057   6.539   9.655   3.839
25939WAT      O78058   7.713   7.265   9.777
25939WAT     H178059   7.641   7.247   9.844
25939WAT     H278060   7.795   7.297   9.826
25940WAT      O78061   1.560   3.060   2.688
25940WAT     H178062   1.549   2.974   2.640
25940WAT     H278063   1.473   3.085   2.732
25941WAT      O78064   4.431   1.057   8.024
25941WAT     H178065   4.450   1.117   7.947
25941WAT     H278066   4.361   1.098   8.082
25942WAT      O78067   1.748   8.763   5.598
25942WAT     H178068   1.760   8.702   5.520
25942WAT     H278069   1.655   8.798   5.599
25943WAT      O78070   8.992   0.390   5.861
25943WAT     H178071   8.966   0.359   5.953
25943WAT     H278072   9.082   0.352   5.837
25944WAT      O78073   7.685   8.134   5.707
25944WAT     H178074   7.729   8.051   5.675
25944WAT     H278075   7.632   8.175   5.633
25945WAT      O78076   1.937   8.693   4.760
25945WAT     H178077   1.874   8.660   4.690
25945WAT     H278078   1.885   8.729   4.838
25946WAT      O78079   9.239   4.313   2.293
25946WAT     H178080   9.160   4.251   2.288
25946WAT     H278081   9.266   4.340   2.201
25947WAT      O78082   7.388   2.000   5.165
25947WAT     H178083   7.306   1.967   5.212
25947WAT     H278084   7.448   1.924   5.143
25948WAT      O78085   2.870   0.844   7.843
25948WAT     H178086   2.802   0.776   7.870
25948WAT     H278087   2.832   0.936   7.851
25949WAT      O78088   5.968   3.099   0.338
25949WAT     H178089   5.975   3.146   0.426
25949WAT     H278090   6.044   3.127   0.280
25950WAT      O78091   9.519   5.298   2.937
25950WAT     H178092   9.479   5.208   2.955
25950WAT     H278093   9.446   5.364   2.919
25951WAT      O78094   6.681   9.327   1.515
25951WAT     H178095   6.587   9.292   1.517
25951WAT     H278096   6.744   9.252   1.493
25952WAT      O78097   3.990   3.253   8.725
25952WAT     H178098   4.021   3.253   8.629
25952WAT     H278099   3.998   3.161   8.762
25953WAT      O78100   0.078   4.773   9.511
25953WAT     H178101   0.149   4.729   9.566
25953WAT     H278102   0.046   4.855   9.558
25954WAT      O78103   2.581   1.709   0.056
25954WAT     H178104   2.675   1.737   0.072
25954WAT     H278105   2.524   1.789   0.039
25955WAT      O78106   4.359   7.690   2.602
25955WAT     H178107   4.429   7.709   2.533
25955WAT     H278108   4.271   7.676   2.558
25956WAT      O78109   6.421   8.861   2.189
25956WAT     H178110   6.470   8.836   2.106
25956WAT     H278111   6.326   8.830   2.183
25957WAT      O78112   8.339   3.641   9.449
25957WAT     H178113   8.309   3.711   9.383
25957WAT     H278114   8.262   3.617   9.508
25958WAT      O78115   2.495   8.227   8.043
25958WAT     H178116   2.512   8.325   8.054
25958WAT     H278117   2.454   8.211   7.953
25959WAT      O78118   7.986   2.469   9.480
25959WAT     H178119   7.897   2.423   9.476
25959WAT     H278120   8.059   2.401   9.484
25960WAT      O78121   2.914   1.604   3.132
25960WAT     H178122   2.867   1.691   3.139
25960WAT     H278123   2.959   1.583   3.219
25961WAT      O78124   9.854   3.979   8.982
25961WAT     H178125   9.797   4.030   8.918
25961WAT     H278126   9.951   4.000   8.965
25962WAT      O78127   7.221   9.099   7.376
25962WAT     H178128   7.152   9.148   7.322
25962WAT     H278129   7.217   9.130   7.471
25963WAT      O78130   0.756   8.538   5.172
25963WAT     H178131   0.675   8.531   5.231
25963WAT     H278132   0.727   8.545   5.077
25964WAT      O78133   7.935   5.580   6.528
25964WAT     H178134   7.991   5.662   6.520
25964WAT     H278135   7.872   5.590   6.605
25965WAT      O78136   2.081   3.304   3.870
25965WAT     H178137   2.009   3.246   3.910
25965WAT     H278138   2.089   3.388   3.923
25966WAT      O78139   6.774   7.983   5.862
25966WAT     H178140   6.867   7.995   5.829
25966WAT     H278141   6.713   7.965   5.785
25967WAT      O78142   4.897   2.340   2.096
25967WAT     H178143   4.824   2.300   2.041
25967WAT     H278144   4.868   2.344   2.192
25968WAT      O78145   5.058   0.316   7.764
25968WAT     H178146   5.054   0.217   7.751
25968WAT     H278147   4.975   0.347   7.812
25969WAT      O78148   0.458   6.056   6.801
25969WAT     H178149   0.477   5.977   6.742
25969WAT     H278150   0.360   6.074   6.802
25970WAT      O78151   4.459   6.503   3.827
25970WAT     H178152   4.506   6.500   3.740
25970WAT     H278153   4.521   6.475   3.900
25971WAT      O78154   8.719   3.263   9.056
25971WAT     H178155   8.781   3.242   9.132
25971WAT     H278156   8.625   3.265   9.089
25972WAT      O78157   3.536   1.641   0.651
25972WAT     H178158   3.628   1.623   0.686
25972WAT     H278159   3.533   1.615   0.554
25973WAT      O78160   5.212   9.542   3.538
25973WAT     H178161   5.141   9.569   3.473
25973WAT     H278162   5.190   9.578   3.629
25974WAT      O78163   9.337   2.467   4.329
25974WAT     H178164   9.254   2.511   4.295
25974WAT     H278165   9.314   2.377   4.368
25975WAT      O78166   5.233   5.027   6.831
25975WAT     H178167   5.184   4.942   6.847
25975WAT     H278168   5.216   5.059   6.738
25976WAT      O78169   0.500   7.948   7.365
25976WAT     H178170   0.469   7.868   7.417
25976WAT     H278171   0.503   8.027   7.426
25977WAT      O78172   6.597   5.074   9.503
25977WAT     H178173   6.672   5.026   9.457
25977WAT     H278174   6.577   5.029   9.590
25978WAT      O78175   4.509   5.170   3.389
25978WAT     H178176   4.477   5.085   3.348
25978WAT     H278177   4.609   5.170   3.392
25979WAT      O78178   6.835   7.519   7.152
25979WAT     H178179   6.839   7.482   7.245
25979WAT     H278180   6.766   7.470   7.099
25980WAT      O78181   0.116   8.713   6.519
25980WAT     H178182   0.027   8.754   6.540
25980WAT     H278183   0.117   8.682   6.424
25981WAT      O78184   8.772   5.454   0.078
25981WAT     H178185   8.718   5.453  -0.006
25981WAT     H278186   8.862   5.415   0.060
25982WAT      O78187   7.438   3.043   7.635
25982WAT     H178188   7.385   3.001   7.709
25982WAT     H278189   7.473   3.131   7.665
25983WAT      O78190   5.505   4.287   1.837
25983WAT     H178191   5.504   4.325   1.745
25983WAT     H278192   5.413   4.291   1.876
25984WAT      O78193   9.585   3.717   5.254
25984WAT     H178194   9.539   3.806   5.261
25984WAT     H278195   9.533   3.649   5.306
25985WAT      O78196   6.020   6.873   8.500
25985WAT     H178197   5.954   6.822   8.556
25985WAT     H278198   6.012   6.843   8.405
25986WAT      O78199   7.056   7.363   4.863
25986WAT     H178200   7.113   7.325   4.937
25986WAT     H278201   7.080   7.318   4.777
25987WAT      O78202   5.242   7.893   5.976
25987WAT     H178203   5.302   7.875   6.054
25987WAT     H278204   5.196   7.809   5.948
25988WAT      O78205   5.406   7.238   3.449
25988WAT     H178206   5.430   7.326   3.489
25988WAT     H278207   5.377   7.175   3.521
25989WAT      O78208   4.543   8.109   6.394
25989WAT     H178209   4.619   8.173   6.405
25989WAT     H278210   4.526   8.062   6.480
25990WAT      O78211   6.731   7.103   5.883
25990WAT     H178212   6.722   7.012   5.925
25990WAT     H278213   6.808   7.102   5.819
25991WAT      O78214   7.310   8.325   7.461
25991WAT     H178215   7.376   8.371   7.402
25991WAT     H278216   7.316   8.363   7.553
25992WAT      O78217   2.641   8.260   1.549
25992WAT     H178218   2.579   8.234   1.624
25992WAT     H278219   2.640   8.189   1.479
25993WAT      O78220   3.235   7.342   5.311
25993WAT     H178221   3.267   7.340   5.406
25993WAT     H278222   3.311   7.320   5.250
25994WAT      O78223   3.649   5.774   4.112
25994WAT     H178224   3.707   5.783   4.031
25994WAT     H278225   3.704   5.745   4.190
25995WAT      O78226   9.855   6.692   6.110
25995WAT     H178227   9.806   6.739   6.036
25995WAT     H278228   9.884   6.759   6.178
25996WAT      O78229   4.677   5.654   8.763
25996WAT     H178230   4.675   5.749   8.793
25996WAT     H278231   4.594   5.633   8.712
25997WAT      O78232   3.543   0.200   9.843
25997WAT     H178233   3.476   0.157   9.782
25997WAT     H278234   3.635   0.171   9.817
25998WAT      O78235   7.907   6.051   4.682
25998WAT     H178236   7.816   6.015   4.704
25998WAT     H278237   7.897   6.137   4.633
25999WAT      O78238   4.856   5.461   2.528
25999WAT     H178239   4.902   5.526   2.468
25999WAT     H278240   4.833   5.505   2.615
26000WAT      O78241   7.246   3.984   7.067
26000WAT     H178242   7.282   4.064   7.020
26000WAT     H278243   7.302   3.904   7.045
26001WAT      O78244   7.366   7.913   7.725
26001WAT     H178245   7.276   7.898   7.684
26001WAT     H278246   7.418   7.976   7.668
26002WAT      O78247   8.426   4.429   1.619
26002WAT     H178248   8.458   4.346   1.574
26002WAT     H278249   8.494   4.501   1.606
26003WAT      O78250   1.534   8.504   0.945
26003WAT     H178251   1.572   8.440   1.013
26003WAT     H278252   1.560   8.473   0.854
26004WAT      O78253   3.608   8.138   3.970
26004WAT     H178254   3.582   8.042   3.957
26004WAT     H278255   3.707   8.145   3.973
26005WAT      O78256   2.455   2.639   5.851
26005WAT     H178257   2.498   2.676   5.769
26005WAT     H278258   2.355   2.645   5.843
26006WAT      O78259   2.506   6.189   9.778
26006WAT     H178260   2.585   6.132   9.799
26006WAT     H278261   2.424   6.151   9.822
26007WAT      O78262   4.412   6.675   7.995
26007WAT     H178263   4.424   6.750   7.929
26007WAT     H278264   4.378   6.712   8.081
26008WAT      O78265   2.056   0.056   4.696
26008WAT     H178266   2.059   0.007   4.609
26008WAT     H278267   1.968   0.103   4.705
26009WAT      O78268   9.184   6.897   7.131
26009WAT     H178269   9.175   6.821   7.067
26009WAT     H278270   9.280   6.910   7.155
26010WAT      O78271   5.052   1.411   0.805
26010WAT     H178272   5.003   1.436   0.888
26010WAT     H278273   4.998   1.343   0.754
26011WAT      O78274   9.532   6.659   7.658
26011WAT     H178275   9.506   6.587   7.722
26011WAT     H278276   9.498   6.637   7.567
26012WAT      O78277   5.680   3.257   0.788
26012WAT     H178278   5.619   3.201   0.843
26012WAT     H278279   5.740   3.311   0.848
26013WAT      O78280   7.588   4.066   3.316
26013WAT     H178281   7.672   4.020   3.347
26013WAT     H278282   7.611   4.134   3.246
26014WAT      O78283   1.311   9.357   8.336
26014WAT     H178284   1.370   9.302   8.277
26014WAT     H278285   1.356   9.371   8.425
26015WAT      O78286   2.272   5.914   0.314
26015WAT     H178287   2.271   5.820   0.347
26015WAT     H278288   2.356   5.959   0.345
26016WAT      O78289   9.234   2.182   4.888
26016WAT     H178290   9.205   2.191   4.984
26016WAT     H278291   9.265   2.089   4.871
26017WAT      O78292   6.005   6.851   0.286
26017WAT     H178293   6.064   6.895   0.219
26017WAT     H278294   5.933   6.800   0.239
26018WAT      O78295   9.124   1.958   3.632
26018WAT     H178296   9.176   1.875   3.611
26018WAT     H278297   9.029   1.933   3.653
26019WAT      O78298   6.767   8.492   5.903
26019WAT     H178299   6.838   8.459   5.841
26019WAT     H278300   6.681   8.447   5.882
26020WAT      O78301   0.317   5.144   0.359
26020WAT     H178302   0.412   5.143   0.390
26020WAT     H278303   0.313   5.115   0.263
26021WAT      O78304   0.878   7.191   7.584
26021WAT     H178305   0.944   7.131   7.539
26021WAT     H278306   0.790   7.186   7.537
26022WAT      O78307   4.565   8.895   2.789
26022WAT     H178308   4.658   8.917   2.817
26022WAT     H278309   4.513   8.980   2.778
26023WAT      O78310   8.970   4.157   6.414
26023WAT     H178311   9.017   4.115   6.337
26023WAT     H278312   8.872   4.134   6.411
26024WAT      O78313   6.393   6.010   2.083
26024WAT     H178314   6.358   5.956   2.007
26024WAT     H278315   6.397   6.106   2.058
26025WAT      O78316   3.959   4.317   0.446
26025WAT     H178317   3.957   4.225   0.485
26025WAT     H278318   3.904   4.378   0.504
26026WAT      O78319   2.758   3.838   7.009
26026WAT     H178320   2.742   3.781   7.090
26026WAT     H278321   2.818   3.790   6.945
26027WAT      O78322   5.890   1.112   4.663
26027WAT     H178323   5.873   1.180   4.591
26027WAT     H278324   5.984   1.079   4.657
26028WAT      O78325   4.866   8.536   7.220
26028WAT     H178326   4.796   8.605   7.199
26028WAT     H278327   4.841   8.488   7.305
26029WAT      O78328   2.711   7.452   0.023
26029WAT     H178329   2.800   7.424   0.059
26029WAT     H278330   2.722   7.488  -0.070
26030WAT      O78331   8.245   1.296   3.163
26030WAT     H178332   8.242   1.196   3.159
26030WAT     H278333   8.174   1.333   3.103
26031WAT      O78334   6.862   8.695   2.025
26031WAT     H178335   6.841   8.620   2.086
26031WAT     H278336   6.881   8.778   2.078
26032WAT      O78337   7.704   3.244   9.373
26032WAT     H178338   7.608   3.254   9.401
26032WAT     H278339   7.754   3.197   9.445
26033WAT      O78340   9.231   5.883   9.049
26033WAT     H178341   9.199   5.866   8.956
26033WAT     H278342   9.191   5.816   9.111
26034WAT      O78343   8.766   1.818   5.612
26034WAT     H178344   8.824   1.794   5.534
26034WAT     H278345   8.678   1.771   5.604
26035WAT      O78346   7.427   2.267   4.744
26035WAT     H178347   7.518   2.226   4.746
26035WAT     H278348   7.358   2.194   4.744
26036WAT      O78349   8.306   3.989   1.385
26036WAT     H178350   8.283   4.026   1.296
26036WAT     H278351   8.242   4.023   1.453
26037WAT      O78352   8.283   0.876   6.102
26037WAT     H178353   8.222   0.799   6.123
26037WAT     H278354   8.360   0.876   6.166
26038WAT      O78355   0.458   7.534   6.830
26038WAT     H178356   0.519   7.479   6.772
26038WAT     H278357   0.439   7.485   6.915
26039WAT      O78358   2.041   3.040   4.413
26039WAT     H178359   2.110   3.112   4.404
26039WAT     H278360   2.066   2.980   4.489
26040WAT      O78361   1.822   3.767   7.742
26040WAT     H178362   1.779   3.681   7.716
26040WAT     H278363   1.815   3.832   7.666
26041WAT      O78364   2.197   2.683   5.832
26041WAT     H178365   2.133   2.690   5.908
26041WAT     H278366   2.165   2.612   5.768
26042WAT      O78367   1.337   8.042   2.850
26042WAT     H178368   1.276   8.110   2.892
26042WAT     H278369   1.310   8.027   2.755
26043WAT      O78370   2.207   0.601   8.983
26043WAT     H178371   2.201   0.678   8.919
26043WAT     H278372   2.166   0.627   9.070
26044WAT      O78373   9.472   6.799   0.452
26044WAT     H178374   9.486   6.742   0.371
26044WAT     H278375   9.560   6.836   0.482
26045WAT      O78376   1.223   7.798   2.985
26045WAT     H178377   1.274   7.713   2.971
26045WAT     H278378   1.275   7.874   2.947
26046WAT      O78379   6.463   4.573   1.963
26046WAT     H178380   6.521   4.550   1.885
26046WAT     H278381   6.488   4.664   1.997
26047WAT      O78382   2.224   7.415   0.641
26047WAT     H178383   2.206   7.476   0.718
26047WAT     H278384   2.243   7.323   0.675
26048WAT      O78385   5.715   3.439   4.494
26048WAT     H178386   5.667   3.507   4.549
26048WAT     H278387   5.808   3.470   4.477
26049WAT      O78388   6.248   6.932   9.265
26049WAT     H178389   6.175   6.864   9.268
26049WAT     H278390   6.332   6.889   9.230
26050WAT      O78391   4.447   8.636   9.794
26050WAT     H178392   4.372   8.655   9.858
26050WAT     H278393   4.421   8.669   9.702
26051WAT      O78394   5.972   3.855   7.064
26051WAT     H178395   5.963   3.927   6.995
26051WAT     H278396   5.884   3.808   7.073
26052WAT      O78397   0.284   0.127   7.226
26052WAT     H178398   0.378   0.141   7.259
26052WAT     H278399   0.270   0.181   7.143
26053WAT      O78400   2.470   4.394   9.656
26053WAT     H178401   2.445   4.471   9.716
26053WAT     H278402   2.397   4.378   9.590
26054WAT      O78403   2.480   4.250   1.687
26054WAT     H178404   2.510   4.157   1.712
26054WAT     H278405   2.411   4.244   1.615
26055WAT      O78406   5.614   2.174   2.400
26055WAT     H178407   5.656   2.111   2.335
26055WAT     H278408   5.517   2.182   2.382
26056WAT      O78409   7.521   7.851   2.027
26056WAT     H178410   7.578   7.772   2.006
26056WAT     H278411   7.571   7.935   2.005
26057WAT      O78412   5.395   0.292   5.635
26057WAT     H178413   5.458   0.216   5.651
26057WAT     H278414   5.309   0.274   5.683
26058WAT      O78415   9.321   5.437   8.363
26058WAT     H178416   9.299   5.339   8.360
26058WAT     H278417   9.404   5.454   8.309
26059WAT      O78418   1.174   5.465   3.853
26059WAT     H178419   1.261   5.419   3.871
26059WAT     H278420   1.171   5.494   3.758
26060WAT      O78421   5.575   4.582   6.243
26060WAT     H178422   5.650   4.527   6.205
26060WAT     H278423   5.488   4.540   6.219
26061WAT      O78424   4.288   2.153   3.605
26061WAT     H178425   4.227   2.131   3.681
26061WAT     H278426   4.321   2.247   3.613
26062WAT      O78427   8.965   8.563   6.295
26062WAT     H178428   8.932   8.548   6.388
26062WAT     H278429   8.971   8.661   6.277
26063WAT      O78430   6.408   6.160   0.739
26063WAT     H178431   6.481   6.219   0.705
26063WAT     H278432   6.447   6.088   0.796
26064WAT      O78433   8.289   5.022   3.101
26064WAT     H178434   8.200   5.005   3.143
26064WAT     H278435   8.277   5.051   3.006
26065WAT      O78436   5.799   6.921   5.714
26065WAT     H178437   5.803   6.997   5.649
26065WAT     H278438   5.706   6.883   5.714
26066WAT      O78439   7.641   3.585   7.136
26066WAT     H178440   7.733   3.622   7.119
26066WAT     H278441   7.644   3.485   7.132
26067WAT      O78442   2.439   8.451   2.881
26067WAT     H178443   2.414   8.421   2.789
26067WAT     H278444   2.358   8.484   2.929
26068WAT      O78445   8.956   2.993   4.484
26068WAT     H178446   9.001   3.026   4.402
26068WAT     H278447   8.888   2.923   4.459
26069WAT      O78448   8.460   6.672   8.751
26069WAT     H178449   8.499   6.637   8.837
26069WAT     H278450   8.380   6.728   8.772
26070WAT      O78451   3.360   8.800   0.341
26070WAT     H178452   3.434   8.861   0.312
26070WAT     H278453   3.315   8.837   0.422
26071WAT      O78454   6.651   0.127   6.357
26071WAT     H178455   6.623   0.210   6.406
26071WAT     H278456   6.709   0.152   6.280
26072WAT      O78457   5.421   0.966   4.895
26072WAT     H178458   5.517   0.975   4.868
26072WAT     H278459   5.415   0.939   4.991
26073WAT      O78460   6.391   8.212   8.163
26073WAT     H178461   6.394   8.193   8.261
26073WAT     H278462   6.374   8.127   8.113
26074WAT      O78463   9.243   2.607   8.946
26074WAT     H178464   9.274   2.701   8.961
26074WAT     H278465   9.155   2.608   8.899
26075WAT      O78466   8.904   5.840   8.938
26075WAT     H178467   8.827   5.903   8.928
26075WAT     H278468   8.901   5.797   9.028
26076WAT      O78469   4.846   3.382   8.134
26076WAT     H178470   4.877   3.411   8.224
26076WAT     H278471   4.919   3.393   8.067
26077WAT      O78472   2.559   0.743   5.045
26077WAT     H178473   2.509   0.700   4.970
26077WAT     H278474   2.508   0.823   5.078
26078WAT      O78475   8.770   5.503   5.601
26078WAT     H178476   8.845   5.545   5.652
26078WAT     H278477   8.756   5.409   5.632
26079WAT      O78478   7.139   3.602   4.832
26079WAT     H178479   7.076   3.623   4.757
26079WAT     H278480   7.089   3.552   4.904
26080WAT      O78481   5.421   4.119   4.661
26080WAT     H178482   5.345   4.068   4.702
26080WAT     H278483   5.475   4.162   4.734
26081WAT      O78484   2.755   7.811   0.165
26081WAT     H178485   2.707   7.728   0.192
26081WAT     H278486   2.760   7.874   0.242
26082WAT      O78487   2.378   0.674   8.652
26082WAT     H178488   2.402   0.685   8.556
26082WAT     H278489   2.378   0.577   8.676
26083WAT      O78490   2.876   7.354   3.005
26083WAT     H178491   2.804   7.409   3.046
26083WAT     H278492   2.914   7.402   2.925
26084WAT      O78493   1.414   6.031   1.443
26084WAT     H178494   1.506   6.005   1.414
26084WAT     H278495   1.420   6.089   1.524
26085WAT      O78496   0.148   9.283   4.829
26085WAT     H178497   0.078   9.257   4.896
26085WAT     H278498   0.189   9.201   4.790
26086WAT      O78499   0.583   0.749   3.368
26086WAT     H178500   0.614   0.689   3.294
26086WAT     H278501   0.483   0.753   3.367
26087WAT      O78502   0.234   5.869   3.559
26087WAT     H178503   0.250   5.960   3.594
26087WAT     H278504   0.136   5.858   3.538
26088WAT      O78505   7.023   1.087   0.755
26088WAT     H178506   7.046   1.042   0.841
26088WAT     H278507   6.990   1.180   0.773
26089WAT      O78508   4.756   0.581   9.115
26089WAT     H178509   4.698   0.659   9.139
26089WAT     H278510   4.699   0.502   9.094
26090WAT      O78511   5.576   6.724   5.756
26090WAT     H178512   5.513   6.760   5.825
26090WAT     H278513   5.531   6.722   5.667
26091WAT      O78514   6.647   4.921   3.203
26091WAT     H178515   6.563   4.867   3.196
26091WAT     H278516   6.724   4.870   3.165
26092WAT      O78517   6.479   6.776   7.958
26092WAT     H178518   6.548   6.725   7.906
26092WAT     H278519   6.515   6.867   7.980
26093WAT      O78520   8.138   7.701   1.546
26093WAT     H178521   8.088   7.787   1.548
26093WAT     H278522   8.177   7.687   1.455
26094WAT      O78523   3.284   6.781   1.573
26094WAT     H178524   3.277   6.777   1.672
26094WAT     H278525   3.329   6.698   1.539
26095WAT      O78526   2.568   8.848   5.848
26095WAT     H178527   2.610   8.768   5.807
26095WAT     H278528   2.633   8.924   5.846
26096WAT      O78529   4.178   3.550   2.940
26096WAT     H178530   4.125   3.629   2.971
26096WAT     H278531   4.144   3.520   2.851
26097WAT      O78532   8.828   4.375   9.468
26097WAT     H178533   8.847   4.367   9.370
26097WAT     H278534   8.904   4.334   9.519
26098WAT      O78535   0.579   1.680   8.860
26098WAT     H178536   0.612   1.761   8.811
26098WAT     H278537   0.628   1.599   8.826
26099WAT      O78538   3.097   9.788   5.056
26099WAT     H178539   3.141   9.754   4.972
26099WAT     H278540   3.010   9.740   5.070
26100WAT      O78541   4.709   7.543   2.326
26100WAT     H178542   4.624   7.513   2.283
26100WAT     H278543   4.785   7.488   2.291
26101WAT      O78544   0.602   5.877   9.422
26101WAT     H178545   0.581   5.928   9.338
26101WAT     H278546   0.566   5.927   9.501
26102WAT      O78547   4.691   0.171   3.677
26102WAT     H178548   4.718   0.107   3.605
26102WAT     H278549   4.615   0.228   3.645
26103WAT      O78550   2.993   3.930   9.263
26103WAT     H178551   3.058   3.861   9.232
26103WAT     H278552   2.925   3.888   9.323
26104WAT      O78553   5.452   7.400   8.774
26104WAT     H178554   5.365   7.432   8.737
26104WAT     H278555   5.525   7.419   8.709
26105WAT      O78556   3.979   9.465   4.361
26105WAT     H178557   4.078   9.464   4.348
26105WAT     H278558   3.938   9.386   4.315
26106WAT      O78559   0.691   7.153   2.787
26106WAT     H178560   0.654   7.235   2.744
26106WAT     H278561   0.688   7.164   2.886
26107WAT      O78562   2.087   1.776   7.829
26107WAT     H178563   2.073   1.678   7.819
26107WAT     H278564   2.038   1.809   7.910
26108WAT      O78565   2.738   2.871   7.017
26108WAT     H178566   2.675   2.927   7.072
26108WAT     H278567   2.685   2.808   6.960
26109WAT      O78568   2.389   5.217   2.667
26109WAT     H178569   2.416   5.270   2.586
26109WAT     H278570   2.471   5.185   2.714
26110WAT      O78571   6.252   0.381   2.007
26110WAT     H178572   6.164   0.343   1.980
26110WAT     H278573   6.281   0.450   1.940
26111WAT      O78574   9.689   1.116   2.870
26111WAT     H178575   9.607   1.133   2.923
26111WAT     H278576   9.769   1.113   2.931
26112WAT      O78577   7.097   3.919   4.040
26112WAT     H178578   7.008   3.903   3.997
26112WAT     H278579   7.090   3.995   4.105
26113WAT      O78580   0.530   0.441   9.181
26113WAT     H178581   0.555   0.494   9.100
26113WAT     H278582   0.539   0.499   9.263
26114WAT      O78583   7.194   6.652   9.065
26114WAT     H178584   7.178   6.739   9.112
26114WAT     H278585   7.255   6.595   9.120
26115WAT      O78586   7.128   6.206   8.652
26115WAT     H178587   7.148   6.138   8.723
26115WAT     H278588   7.155   6.297   8.685
26116WAT      O78589   3.832   4.210   2.533
26116WAT     H178590   3.751   4.221   2.592
26116WAT     H278591   3.804   4.173   2.445
26117WAT      O78592   8.715   2.222   0.954
26117WAT     H178593   8.815   2.223   0.945
26117WAT     H278594   8.675   2.294   0.898
26118WAT      O78595   0.769   8.332   9.742
26118WAT     H178596   0.710   8.314   9.663
26118WAT     H278597   0.844   8.393   9.715
26119WAT      O78598   8.755   2.394   5.604
26119WAT     H178599   8.783   2.306   5.567
26119WAT     H278600   8.664   2.418   5.568
26120WAT      O78601   9.541   4.092   9.281
26120WAT     H178602   9.563   4.000   9.250
26120WAT     H278603   9.442   4.102   9.288
26121WAT      O78604   7.749   7.053   2.579
26121WAT     H178605   7.716   7.130   2.633
26121WAT     H278606   7.808   6.995   2.635
26122WAT      O78607   4.354   8.171   3.662
26122WAT     H178608   4.293   8.250   3.650
26122WAT     H278609   4.436   8.200   3.712
26123WAT      O78610   9.828   7.135   7.462
26123WAT     H178611   9.754   7.096   7.518
26123WAT     H278612   9.790   7.204   7.400
26124WAT      O78613   6.689   5.552   3.227
26124WAT     H178614   6.629   5.581   3.153
26124WAT     H278615   6.780   5.531   3.191
26125WAT      O78616   8.112   7.132   5.595
26125WAT     H178617   8.177   7.116   5.521
26125WAT     H278618   8.120   7.227   5.626
26126WAT      O78619   8.474   8.404   1.138
26126WAT     H178620   8.542   8.377   1.070
26126WAT     H278621   8.490   8.499   1.166
26127WAT      O78622   7.575   6.581   5.349
26127WAT     H178623   7.515   6.631   5.287
26127WAT     H278624   7.567   6.619   5.441
26128WAT      O78625   2.615   9.294   9.161
26128WAT     H178626   2.650   9.377   9.119
26128WAT     H278627   2.515   9.298   9.166
26129WAT      O78628   3.087   4.254   5.841
26129WAT     H178629   3.051   4.347   5.854
26129WAT     H278630   3.011   4.192   5.821
26130WAT      O78631   7.153   1.033   2.944
26130WAT     H178632   7.117   1.097   3.013
26130WAT     H278633   7.077   0.995   2.891
26131WAT      O78634   7.605   7.396   2.923
26131WAT     H178635   7.661   7.456   2.866
26131WAT     H278636   7.518   7.377   2.877
26132WAT      O78637   6.219   7.885   7.090
26132WAT     H178638   6.225   7.976   7.048
26132WAT     H278639   6.311   7.857   7.120
26133WAT      O78640   9.158   4.126   6.966
26133WAT     H178641   9.187   4.189   6.894
26133WAT     H278642   9.231   4.119   7.034
26134WAT      O78643   7.236   9.655   4.146
26134WAT     H178644   7.256   9.733   4.206
26134WAT     H278645   7.267   9.570   4.190
26135WAT      O78646   6.384   5.621   3.537
26135WAT     H178647   6.386   5.553   3.463
26135WAT     H278648   6.430   5.585   3.617
26136WAT      O78649   6.284   9.216   7.059
26136WAT     H178650   6.304   9.126   7.099
26136WAT     H278651   6.333   9.287   7.108
26137WAT      O78652   0.900   1.537   8.207
26137WAT     H178653   0.892   1.498   8.299
26137WAT     H278654   0.817   1.518   8.155
26138WAT      O78655   3.618   5.137   0.142
26138WAT     H178656   3.561   5.160   0.220
26138WAT     H278657   3.673   5.217   0.116
26139WAT      O78658   6.330   5.390   7.852
26139WAT     H178659   6.430   5.381   7.856
26139WAT     H278660   6.290   5.349   7.934
26140WAT      O78661   0.818   3.198   2.734
26140WAT     H178662   0.832   3.120   2.673
26140WAT     H278663   0.748   3.175   2.802
26141WAT      O78664   8.265   3.551   6.605
26141WAT     H178665   8.225   3.605   6.532
26141WAT     H278666   8.349   3.595   6.637
26142WAT      O78667   8.742   7.437   4.600
26142WAT     H178668   8.762   7.397   4.511
26142WAT     H278669   8.800   7.394   4.669
26143WAT      O78670   8.951   1.476   4.971
26143WAT     H178671   8.877   1.536   4.939
26143WAT     H278672   8.964   1.402   4.906
26144WAT      O78673   7.591   4.700   7.103
26144WAT     H178674   7.622   4.732   7.014
26144WAT     H278675   7.516   4.758   7.135
26145WAT      O78676   8.774   0.155   0.229
26145WAT     H178677   8.848   0.212   0.266
26145WAT     H278678   8.801   0.059   0.231
26146WAT      O78679   2.415   5.048   6.583
26146WAT     H178680   2.367   4.964   6.606
26146WAT     H278681   2.481   5.031   6.510
26147WAT      O78682   4.567   0.796   8.029
26147WAT     H178683   4.488   0.858   8.027
26147WAT     H278684   4.534   0.702   8.035
26148WAT      O78685   4.223   1.210   1.322
26148WAT     H178686   4.284   1.219   1.401
26148WAT     H278687   4.265   1.151   1.254
26149WAT      O78688   7.130   9.351   3.869
26149WAT     H178689   7.121   9.410   3.789
26149WAT     H278690   7.072   9.386   3.943
26150WAT      O78691   2.547   3.078   3.823
26150WAT     H178692   2.515   2.987   3.848
26150WAT     H278693   2.646   3.084   3.835
26151WAT      O78694   8.711   8.584   5.937
26151WAT     H178695   8.718   8.680   5.963
26151WAT     H278696   8.751   8.527   6.009
26152WAT      O78697   3.114   0.543   4.963
26152WAT     H178698   3.098   0.581   5.054
26152WAT     H278699   3.172   0.462   4.970
26153WAT      O78700   1.784   6.614   0.245
26153WAT     H178701   1.700   6.567   0.274
26153WAT     H278702   1.864   6.561   0.273
26154WAT      O78703   2.835   7.204   7.802
26154WAT     H178704   2.739   7.229   7.797
26154WAT     H278705   2.845   7.121   7.857
26155WAT      O78706   6.165   9.415   5.718
26155WAT     H178707   6.111   9.498   5.703
26155WAT     H278708   6.164   9.392   5.815
26156WAT      O78709   5.884   0.994   9.444
26156WAT     H178710   5.929   1.042   9.520
26156WAT     H278711   5.789   1.024   9.438
26157WAT      O78712   9.718   4.669   5.094
26157WAT     H178713   9.669   4.746   5.135
26157WAT     H278714   9.658   4.621   5.031
26158WAT      O78715   6.944   1.534   5.350
26158WAT     H178716   6.856   1.573   5.326
26158WAT     H278717   6.973   1.471   5.278
26159WAT      O78718   2.448   5.275   8.937
26159WAT     H178719   2.396   5.195   8.906
26159WAT     H278720   2.463   5.268   9.035
26160WAT      O78721   6.951   1.777   8.640
26160WAT     H178722   7.027   1.837   8.614
26160WAT     H278723   6.941   1.776   8.740
26161WAT      O78724   5.311   6.599   5.525
26161WAT     H178725   5.411   6.606   5.520
26161WAT     H278726   5.284   6.576   5.618
26162WAT      O78727   0.385   4.692   4.826
26162WAT     H178728   0.399   4.618   4.760
26162WAT     H278729   0.287   4.705   4.842
26163WAT      O78730   9.002   5.675   1.851
26163WAT     H178731   8.922   5.713   1.897
26163WAT     H278732   8.972   5.617   1.775
26164WAT      O78733   5.551   4.983   7.080
26164WAT     H178734   5.555   5.074   7.121
26164WAT     H278735   5.456   4.950   7.082
26165WAT      O78736   0.589   9.402   0.724
26165WAT     H178737   0.521   9.374   0.792
26165WAT     H278738   0.610   9.499   0.736
26166WAT      O78739   9.472   4.266   2.738
26166WAT     H178740   9.467   4.317   2.652
26166WAT     H278741   9.494   4.170   2.718
26167WAT      O78742   1.909   5.999   1.464
26167WAT     H178743   1.980   5.936   1.432
26167WAT     H278744   1.937   6.041   1.550
26168WAT      O78745   1.723   5.647   4.967
26168WAT     H178746   1.655   5.717   4.946
26168WAT     H278747   1.741   5.647   5.065
26169WAT      O78748   7.124   5.102   0.286
26169WAT     H178749   7.087   5.019   0.243
26169WAT     H278750   7.071   5.181   0.255
26170WAT      O78751   8.280   7.875   1.951
26170WAT     H178752   8.284   7.964   1.997
26170WAT     H278753   8.367   7.828   1.964
26171WAT      O78754   0.672   5.037   7.681
26171WAT     H178755   0.678   5.089   7.766
26171WAT     H278756   0.625   5.091   7.612
26172WAT      O78757   0.397   0.605   9.831
26172WAT     H178758   0.422   0.574   9.739
26172WAT     H278759   0.327   0.677   9.824
26173WAT      O78760   8.339   2.026   0.436
26173WAT     H178761   8.247   2.009   0.472
26173WAT     H278762   8.398   2.059   0.509
26174WAT      O78763   1.703   4.110   4.730
26174WAT     H178764   1.739   4.033   4.678
26174WAT     H278765   1.776   4.153   4.783
26175WAT      O78766   1.295   2.364   9.268
26175WAT     H178767   1.202   2.337   9.244
26175WAT     H278768   1.301   2.463   9.277
26176WAT      O78769   6.814   2.042   0.589
26176WAT     H178770   6.800   2.031   0.491
26176WAT     H278771   6.768   2.125   0.620
26177WAT      O78772   4.786   9.464   8.934
26177WAT     H178773   4.776   9.438   8.838
26177WAT     H278774   4.721   9.413   8.990
26178WAT      O78775   9.803   0.437   8.884
26178WAT     H178776   9.716   0.392   8.863
26178WAT     H278777   9.821   0.508   8.816
26179WAT      O78778   2.334   7.025   4.142
26179WAT     H178779   2.265   7.050   4.210
26179WAT     H278780   2.350   6.926   4.146
26180WAT      O78781   5.320   2.903   3.836
26180WAT     H178782   5.339   2.829   3.900
26180WAT     H278783   5.346   2.875   3.743
26181WAT      O78784   9.476   0.182   4.494
26181WAT     H178785   9.554   0.242   4.511
26181WAT     H278786   9.501   0.088   4.520
26182WAT      O78787   6.493   3.296   5.398
26182WAT     H178788   6.478   3.199   5.418
26182WAT     H278789   6.590   3.318   5.409
26183WAT      O78790   3.514   6.912   7.583
26183WAT     H178791   3.490   6.999   7.626
26183WAT     H278792   3.437   6.879   7.530
26184WAT      O78793   0.537   6.682   1.490
26184WAT     H178794   0.525   6.592   1.448
26184WAT     H278795   0.520   6.753   1.422
26185WAT      O78796   3.158   0.030   3.379
26185WAT     H178797   3.130   0.020   3.283
26185WAT     H278798   3.241   0.086   3.383
26186WAT      O78799   8.137   0.146   8.948
26186WAT     H178800   8.142   0.182   8.855
26186WAT     H278801   8.177   0.211   9.011
26187WAT      O78802   1.320   7.379   9.247
26187WAT     H178803   1.278   7.449   9.306
26187WAT     H278804   1.419   7.388   9.251
26188WAT      O78805   9.473   1.200   6.363
26188WAT     H178806   9.495   1.261   6.440
26188WAT     H278807   9.379   1.217   6.333
26189WAT      O78808   4.814   2.047   1.193
26189WAT     H178809   4.852   2.024   1.283
26189WAT     H278810   4.878   2.019   1.121
26190WAT      O78811   3.992   6.939   6.882
26190WAT     H178812   4.044   6.907   6.802
26190WAT     H278813   3.916   6.996   6.852
26191WAT      O78814   1.179   1.841   2.049
26191WAT     H178815   1.218   1.772   2.110
26191WAT     H278816   1.117   1.901   2.101
26192WAT      O78817   3.966   7.339   1.513
26192WAT     H178818   3.868   7.359   1.506
26192WAT     H278819   3.978   7.243   1.537
26193WAT      O78820   6.037   6.679   4.058
26193WAT     H178821   6.024   6.603   3.994
26193WAT     H278822   6.073   6.758   4.008
26194WAT      O78823   5.162   0.055   4.048
26194WAT     H178824   5.165   0.144   4.002
26194WAT     H278825   5.240  -0.000   4.018
26195WAT      O78826   9.511   2.914   1.770
26195WAT     H178827   9.479   2.970   1.694
26195WAT     H278828   9.583   2.964   1.820
26196WAT      O78829   2.183   1.396   8.064
26196WAT     H178830   2.142   1.329   8.126
26196WAT     H278831   2.275   1.418   8.095
26197WAT      O78832   7.228   1.915   8.376
26197WAT     H178833   7.271   1.833   8.339
26197WAT     H278834   7.136   1.926   8.337
26198WAT      O78835   8.728   1.005   9.222
26198WAT     H178836   8.656   0.956   9.270
26198WAT     H278837   8.807   0.945   9.210
26199WAT      O78838   6.028   5.123   2.982
26199WAT     H178839   5.970   5.104   2.903
26199WAT     H278840   6.080   5.207   2.965
26200WAT      O78841   9.629   1.027   1.212
26200WAT     H178842   9.540   0.995   1.245
26200WAT     H278843   9.648   0.986   1.123
26201WAT      O78844   9.660   5.526   5.184
26201WAT     H178845   9.754   5.554   5.204
26201WAT     H278846   9.657   5.488   5.091
26202WAT      O78847   1.168   0.507   4.532
26202WAT     H178848   1.088   0.554   4.571
26202WAT     H278849   1.214   0.568   4.467
26203WAT      O78850   8.968   1.227   8.776
26203WAT     H178851   8.992   1.284   8.698
26203WAT     H278852   8.872   1.239   8.798
26204WAT      O78853   9.055   3.518   7.139
26204WAT     H178854   9.033   3.430   7.183
26204WAT     H278855   9.050   3.507   7.040
26205WAT      O78856   7.054   4.415   8.346
26205WAT     H178857   7.121   4.342   8.358
26205WAT     H278858   7.041   4.432   8.248
26206WAT      O78859   2.513   0.521   1.314
26206WAT     H178860   2.578   0.542   1.387
26206WAT     H278861   2.535   0.575   1.233
26207WAT      O78862   3.026   4.816   1.432
26207WAT     H178863   2.949   4.754   1.414
26207WAT     H278864   3.051   4.863   1.347
26208WAT      O78865   4.915   2.511   2.720
26208WAT     H178866   4.855   2.458   2.780
26208WAT     H278867   4.963   2.580   2.773
26209WAT      O78868   1.017   4.819   1.166
26209WAT     H178869   0.992   4.902   1.117
26209WAT     H278870   0.969   4.815   1.254
26210WAT      O78871   8.004   5.645   5.560
26210WAT     H178872   8.046   5.608   5.477
26210WAT     H278873   8.043   5.735   5.580
26211WAT      O78874   8.771   6.874   4.953
26211WAT     H178875   8.869   6.885   4.971
26211WAT     H278876   8.758   6.845   4.858
26212WAT      O78877   0.029   0.949   2.101
26212WAT     H178878   0.080   0.955   2.187
26212WAT     H278879   0.086   0.903   2.033
26213WAT      O78880   0.475   2.517   3.758
26213WAT     H178881   0.495   2.578   3.834
26213WAT     H278882   0.464   2.570   3.674
26214WAT      O78883   1.373   0.814   6.382
26214WAT     H178884   1.302   0.864   6.433
26214WAT     H278885   1.347   0.808   6.286
26215WAT      O78886   1.646   2.681   8.353
26215WAT     H178887   1.610   2.590   8.333
26215WAT     H278888   1.639   2.699   8.451
26216WAT      O78889   8.062   6.401   1.388
26216WAT     H178890   8.039   6.403   1.485
26216WAT     H278891   7.978   6.412   1.334
26217WAT      O78892   6.966   5.310   0.207
26217WAT     H178893   6.946   5.403   0.236
26217WAT     H278894   6.886   5.252   0.225
26218WAT      O78895   0.242   3.653   5.738
26218WAT     H178896   0.337   3.680   5.724
26218WAT     H278897   0.218   3.666   5.835
26219WAT      O78898   3.634   3.239   8.985
26219WAT     H178899   3.635   3.204   8.891
26219WAT     H278900   3.718   3.211   9.032
26220WAT      O78901   7.791   9.403   9.572
26220WAT     H178902   7.845   9.370   9.494
26220WAT     H278903   7.839   9.380   9.657
26221WAT      O78904   1.717   4.727   4.381
26221WAT     H178905   1.622   4.717   4.353
26221WAT     H278906   1.775   4.666   4.326
26222WAT      O78907   4.874   7.482   6.126
26222WAT     H178908   4.813   7.552   6.163
26222WAT     H278909   4.956   7.526   6.088
26223WAT      O78910   2.868   7.277   4.702
26223WAT     H178911   2.808   7.203   4.672
26223WAT     H278912   2.957   7.268   4.657
26224WAT      O78913   6.715   0.649   2.203
26224WAT     H178914   6.729   0.602   2.115
26224WAT     H278915   6.617   0.660   2.219
26225WAT      O78916   4.835   2.018   5.621
26225WAT     H178917   4.815   2.023   5.719
26225WAT     H278918   4.929   1.987   5.608
26226WAT      O78919   8.560   6.985   1.302
26226WAT     H178920   8.584   6.923   1.377
26226WAT     H278921   8.643   7.022   1.261
26227WAT      O78922   4.944   3.759   5.164
26227WAT     H178923   4.851   3.758   5.201
26227WAT     H278924   5.001   3.821   5.217
26228WAT      O78925   1.678   7.618   1.490
26228WAT     H178926   1.585   7.636   1.522
26228WAT     H278927   1.742   7.633   1.565
26229WAT      O78928   1.326   8.897   2.754
26229WAT     H178929   1.262   8.844   2.699
26229WAT     H278930   1.284   8.918   2.843
26230WAT      O78931   7.102   4.846   1.378
26230WAT     H178932   7.115   4.938   1.415
26230WAT     H278933   7.017   4.807   1.415
26231WAT      O78934   7.381   3.672   6.532
26231WAT     H178935   7.410   3.584   6.568
26231WAT     H278936   7.335   3.658   6.444
26232WAT      O78937   1.447   2.473   6.946
26232WAT     H178938   1.465   2.379   6.918
26232WAT     H278939   1.350   2.494   6.934
26233WAT      O78940   5.877   0.129   4.908
26233WAT     H178941   5.937   0.202   4.876
26233WAT     H278942   5.863   0.138   5.007
26234WAT      O78943   3.260   4.552   3.828
26234WAT     H178944   3.230   4.611   3.903
26234WAT     H278945   3.223   4.586   3.742
26235WAT      O78946   8.734   6.398   5.373
26235WAT     H178947   8.770   6.420   5.464
26235WAT     H278948   8.677   6.316   5.379
26236WAT      O78949   1.021   8.464   1.309
26236WAT     H178950   0.934   8.420   1.289
26236WAT     H278951   1.015   8.512   1.397
26237WAT      O78952   6.091   1.841   6.546
26237WAT     H178953   6.069   1.781   6.470
26237WAT     H278954   6.073   1.936   6.520
26238WAT      O78955   0.281   0.312   9.666
26238WAT     H178956   0.266   0.410   9.677
26238WAT     H278957   0.367   0.297   9.617
26239WAT      O78958   6.999   2.202   3.482
26239WAT     H178959   7.032   2.162   3.396
26239WAT     H278960   7.030   2.146   3.559
26240WAT      O78961   2.510   1.928   5.585
26240WAT     H178962   2.430   1.965   5.538
26240WAT     H278963   2.496   1.932   5.684
26241WAT      O78964   6.264   9.229   1.713
26241WAT     H178965   6.334   9.228   1.642
26241WAT     H278966   6.290   9.293   1.785
26242WAT      O78967   9.723   9.239   1.138
26242WAT     H178968   9.680   9.240   1.228
26242WAT     H278969   9.774   9.324   1.125
26243WAT      O78970   5.663   3.019   9.417
26243WAT     H178971   5.669   3.045   9.514
26243WAT     H278972   5.573   3.044   9.382
26244WAT      O78973   3.644   1.488   1.883
26244WAT     H178974   3.600   1.573   1.913
26244WAT     H278975   3.626   1.474   1.785
26245WAT      O78976   7.134   2.688   2.532
26245WAT     H178977   7.110   2.781   2.502
26245WAT     H278978   7.081   2.622   2.478
26246WAT      O78979   0.156   4.339   6.251
26246WAT     H178980   0.159   4.408   6.324
26246WAT     H278981   0.221   4.364   6.180
26247WAT      O78982   6.112   8.000   2.880
26247WAT     H178983   6.077   7.958   2.964
26247WAT     H278984   6.171   8.077   2.903
26248WAT      O78985   8.160   0.727   8.323
26248WAT     H178986   8.158   0.797   8.393
26248WAT     H278987   8.255   0.699   8.307
26249WAT      O78988   7.595   8.062   4.374
26249WAT     H178989   7.675   8.069   4.314
26249WAT     H278990   7.594   8.138   4.438
26250WAT      O78991  -0.004   5.963   6.290
26250WAT     H178992  -0.007   5.996   6.195
26250WAT     H278993   0.089   5.975   6.326
26251WAT      O78994   5.398   5.090   1.647
26251WAT     H178995   5.482   5.067   1.599
26251WAT     H278996   5.392   5.190   1.658
26252WAT      O78997   0.661   4.799   1.122
26252WAT     H178998   0.720   4.742   1.064
26252WAT     H278999   0.672   4.772   1.217
26253WAT      O79000   6.547   1.561   6.326
26253WAT     H179001   6.467   1.592   6.376
26253WAT     H279002   6.625   1.619   6.348
26254WAT      O79003   6.398   0.965   1.522
26254WAT     H179004   6.428   0.967   1.617
26254WAT     H279005   6.477   0.982   1.462
26255WAT      O79006   4.790   5.169   8.815
26255WAT     H179007   4.797   5.161   8.715
26255WAT     H279008   4.831   5.089   8.858
26256WAT      O79009   7.593   8.285   4.864
26256WAT     H179010   7.558   8.273   4.957
26256WAT     H279011   7.670   8.222   4.849
26257WAT      O79012   8.368   0.043   2.698
26257WAT     H179013   8.456   0.087   2.683
26257WAT     H279014   8.334   0.067   2.789
26258WAT      O79015   6.268   8.994   7.828
26258WAT     H179016   6.231   8.958   7.743
26258WAT     H279017   6.355   8.951   7.848
26259WAT      O79018   0.422   7.356   2.399
26259WAT     H179019   0.498   7.290   2.398
26259WAT     H279020   0.411   7.395   2.308
26260WAT      O79021   6.315   6.107   0.481
26260WAT     H179022   6.233   6.050   0.487
26260WAT     H279023   6.353   6.121   0.573
26261WAT      O79024   9.703   7.670   6.421
26261WAT     H179025   9.692   7.651   6.324
26261WAT     H279026   9.798   7.652   6.447
26262WAT      O79027   9.184   6.084   6.877
26262WAT     H179028   9.093   6.103   6.913
26262WAT     H279029   9.253   6.124   6.939
26263WAT      O79030   1.020   5.747   7.520
26263WAT     H179031   1.021   5.667   7.459
26263WAT     H279032   1.112   5.764   7.554
26264WAT      O79033   7.337   4.508   3.877
26264WAT     H179034   7.292   4.532   3.963
26264WAT     H279035   7.274   4.522   3.801
26265WAT      O79036   1.116   2.678   0.775
26265WAT     H179037   1.067   2.599   0.740
26265WAT     H279038   1.102   2.756   0.713
26266WAT      O79039   2.207   0.781   5.263
26266WAT     H179040   2.228   0.745   5.354
26266WAT     H279041   2.185   0.878   5.270
26267WAT      O79042   2.949   9.476   3.456
26267WAT     H179043   3.022   9.526   3.502
26267WAT     H279044   2.909   9.410   3.520
26268WAT      O79045   7.211   1.403   0.739
26268WAT     H179046   7.131   1.432   0.792
26268WAT     H279047   7.269   1.482   0.719
26269WAT      O79048   3.825   2.368   7.834
26269WAT     H179049   3.840   2.327   7.924
26269WAT     H279050   3.755   2.439   7.841
26270WAT      O79051   4.055   1.920   9.688
26270WAT     H179052   3.993   1.856   9.735
26270WAT     H279053   4.092   1.876   9.606
26271WAT      O79054   9.701   2.557   6.636
26271WAT     H179055   9.637   2.576   6.562
26271WAT     H279056   9.651   2.530   6.718
26272WAT      O79057   5.862   5.230   6.850
26272WAT     H179058   5.914   5.279   6.920
26272WAT     H279059   5.890   5.134   6.850
26273WAT      O79060   8.777   2.681   8.504
26273WAT     H179061   8.845   2.615   8.536
26273WAT     H279062   8.695   2.633   8.474
26274WAT      O79063   7.845   4.397   7.807
26274WAT     H179064   7.820   4.311   7.852
26274WAT     H279065   7.921   4.381   7.745
26275WAT      O79066   1.061   5.627   2.384
26275WAT     H179067   1.131   5.691   2.354
26275WAT     H279068   1.078   5.601   2.479
26276WAT      O79069   2.910   1.525   5.861
26276WAT     H179070   2.832   1.515   5.923
26276WAT     H279071   2.988   1.563   5.911
26277WAT      O79072   9.458   5.368   8.847
26277WAT     H179073   9.489   5.290   8.793
26277WAT     H279074   9.436   5.337   8.940
26278WAT      O79075   4.804   4.982   1.172
26278WAT     H179076   4.839   4.937   1.255
26278WAT     H279077   4.851   4.944   1.093
26279WAT      O79078   5.751   8.795   7.607
26279WAT     H179079   5.681   8.866   7.599
26279WAT     H279080   5.781   8.767   7.516
26280WAT      O79081   9.147   8.997   9.709
26280WAT     H179082   9.086   8.997   9.629
26280WAT     H279083   9.239   8.972   9.680
26281WAT      O79084   1.024   0.161   7.830
26281WAT     H179085   0.964   0.240   7.846
26281WAT     H279086   1.119   0.193   7.823
26282WAT      O79087   9.123   0.232   4.286
26282WAT     H179088   9.190   0.279   4.343
26282WAT     H279089   9.167   0.155   4.240
26283WAT      O79090   1.378   8.378   2.565
26283WAT     H179091   1.417   8.454   2.514
26283WAT     H279092   1.310   8.331   2.510
26284WAT      O79093   7.798   0.113   2.948
26284WAT     H179094   7.798   0.197   3.002
26284WAT     H279095   7.748   0.128   2.862
26285WAT      O79096   4.919   3.428   4.533
26285WAT     H179097   4.972   3.366   4.591
26285WAT     H279098   4.842   3.378   4.494
26286WAT      O79099   1.870   4.453   9.844
26286WAT     H179100   1.853   4.479   9.749
26286WAT     H279101   1.958   4.406   9.850
26287WAT      O79102   4.499   2.451   5.517
26287WAT     H179103   4.410   2.478   5.480
26287WAT     H279104   4.500   2.352   5.532
26288WAT      O79105   2.347   5.277   7.516
26288WAT     H179106   2.254   5.240   7.504
26288WAT     H279107   2.402   5.256   7.436
26289WAT      O79108   0.150   4.357   2.295
26289WAT     H179109   0.069   4.299   2.285
26289WAT     H279110   0.215   4.336   2.223
26290WAT      O79111   7.911   0.186   5.329
26290WAT     H179112   7.949   0.244   5.401
26290WAT     H279113   7.973   0.184   5.251
26291WAT      O79114   1.346   7.637   2.112
26291WAT     H179115   1.300   7.602   2.194
26291WAT     H279116   1.278   7.675   2.050
26292WAT      O79117   9.105   9.198   8.428
26292WAT     H179118   9.158   9.226   8.348
26292WAT     H279119   9.151   9.122   8.474
26293WAT      O79120   8.786   5.776   1.091
26293WAT     H179121   8.824   5.717   1.163
26293WAT     H279122   8.859   5.831   1.052
26294WAT      O79123   0.554   3.114   6.596
26294WAT     H179124   0.493   3.190   6.572
26294WAT     H279125   0.604   3.084   6.515
26295WAT      O79126   9.759   2.701   9.884
26295WAT     H179127   9.831   2.644   9.846
26295WAT     H279128   9.743   2.674   9.979
26296WAT      O79129   1.451   5.647   6.911
26296WAT     H179130   1.477   5.586   6.836
26296WAT     H279131   1.523   5.646   6.981
26297WAT      O79132   5.194   1.402   3.291
26297WAT     H179133   5.148   1.397   3.380
26297WAT     H279134   5.195   1.497   3.259
26298WAT      O79135   8.415   7.474   3.005
26298WAT     H179136   8.472   7.523   2.940
26298WAT     H279137   8.328   7.522   3.017
26299WAT      O79138   6.521   9.584   5.380
26299WAT     H179139   6.447   9.552   5.440
26299WAT     H279140   6.584   9.640   5.433
26300WAT      O79141   1.045   2.479   2.122
26300WAT     H179142   1.117   2.414   2.096
26300WAT     H279143   1.047   2.558   2.061
26301WAT      O79144   6.229   0.280   1.366
26301WAT     H179145   6.238   0.180   1.372
26301WAT     H279146   6.284   0.313   1.289
26302WAT      O79147   6.631   1.366   7.815
26302WAT     H179148   6.712   1.379   7.758
26302WAT     H279149   6.567   1.304   7.769
26303WAT      O79150   9.494   9.346   4.150
26303WAT     H179151   9.497   9.275   4.221
26303WAT     H279152   9.524   9.433   4.188
26304WAT      O79153   3.039   7.278   7.963
26304WAT     H179154   2.957   7.305   7.913
26304WAT     H279155   3.012   7.224   8.043
26305WAT      O79156   1.781   4.309   3.039
26305WAT     H179157   1.803   4.311   3.137
26305WAT     H279158   1.764   4.214   3.012
26306WAT      O79159   7.299   1.221   0.547
26306WAT     H179160   7.389   1.254   0.519
26306WAT     H279161   7.266   1.275   0.624
26307WAT      O79162   4.553   7.990   5.661
26307WAT     H179163   4.485   8.010   5.732
26307WAT     H279164   4.525   7.909   5.610
26308WAT      O79165   9.081   4.105   5.471
26308WAT     H179166   8.997   4.152   5.443
26308WAT     H279167   9.057   4.028   5.530
26309WAT      O79168   1.456   4.984   9.213
26309WAT     H179169   1.551   5.012   9.223
26309WAT     H279170   1.421   4.953   9.302
26310WAT      O79171   4.669   4.561   4.148
26310WAT     H179172   4.715   4.582   4.061
26310WAT     H279173   4.670   4.463   4.164
26311WAT      O79174   4.043   4.551   1.133
26311WAT     H179175   4.044   4.645   1.166
26311WAT     H279176   4.128   4.533   1.083
26312WAT      O79177   4.553   7.110   6.067
26312WAT     H179178   4.598   7.136   6.153
26312WAT     H279179   4.516   7.018   6.076
26313WAT      O79180   4.235   0.931   5.514
26313WAT     H179181   4.278   1.005   5.463
26313WAT     H279182   4.136   0.945   5.514
26314WAT      O79183   2.767   4.672   8.260
26314WAT     H179184   2.674   4.708   8.272
26314WAT     H279185   2.764   4.573   8.246
26315WAT      O79186   1.417   2.598   7.342
26315WAT     H179187   1.369   2.595   7.430
26315WAT     H279188   1.504   2.645   7.352
26316WAT      O79189   5.495   9.131   9.578
26316WAT     H179190   5.534   9.204   9.523
26316WAT     H279191   5.568   9.069   9.608
26317WAT      O79192   4.291   7.426   7.363
26317WAT     H179193   4.253   7.379   7.284
26317WAT     H279194   4.385   7.453   7.344
26318WAT      O79195   4.931   8.466   8.315
26318WAT     H179196   4.934   8.523   8.233
26318WAT     H279197   4.980   8.381   8.299
26319WAT      O79198   3.112   0.010   1.064
26319WAT     H179199   3.059  -0.062   1.019
26319WAT     H279200   3.130   0.084   1.000
26320WAT      O79201   7.027   1.348   7.347
26320WAT     H179202   7.055   1.297   7.266
26320WAT     H279203   7.093   1.420   7.367
26321WAT      O79204   0.956   3.859   4.443
26321WAT     H179205   0.980   3.762   4.440
26321WAT     H279206   0.927   3.889   4.352
26322WAT      O79207   7.954   9.547   0.003
26322WAT     H179208   7.952   9.476  -0.066
26322WAT     H279209   8.041   9.544   0.053
26323WAT      O79210   4.982   3.858   5.558
26323WAT     H179211   4.895   3.889   5.598
26323WAT     H279212   4.964   3.781   5.496
26324WAT      O79213   1.138   7.785   6.595
26324WAT     H179214   1.092   7.811   6.680
26324WAT     H279215   1.135   7.862   6.531
26325WAT      O79216   2.727   8.733   0.884
26325WAT     H179217   2.674   8.814   0.857
26325WAT     H279218   2.781   8.701   0.806
26326WAT      O79219   1.225   7.519   5.499
26326WAT     H179220   1.255   7.545   5.407
26326WAT     H279221   1.243   7.422   5.514
26327WAT      O79222   6.248   3.488   2.217
26327WAT     H179223   6.286   3.576   2.244
26327WAT     H279224   6.282   3.463   2.126
26328WAT      O79225   9.331   8.965   4.098
26328WAT     H179226   9.403   8.916   4.147
26328WAT     H279227   9.359   8.979   4.003
26329WAT      O79228   4.597   0.144   8.427
26329WAT     H179229   4.597   0.199   8.511
26329WAT     H279230   4.555   0.055   8.446
26330WAT      O79231   3.758   1.894   6.562
26330WAT     H179232   3.795   1.949   6.636
26330WAT     H279233   3.727   1.806   6.598
26331WAT      O79234   1.893   4.299   9.444
26331WAT     H179235   1.988   4.315   9.415
26331WAT     H279236   1.856   4.383   9.484
26332WAT      O79237   2.499   4.247   8.947
26332WAT     H179238   2.544   4.328   8.909
26332WAT     H279239   2.555   4.207   9.019
26333WAT      O79240   7.669   8.488   9.111
26333WAT     H179241   7.644   8.401   9.154
26333WAT     H279242   7.741   8.472   9.044
26334WAT      O79243   8.623   8.187   7.365
26334WAT     H179244   8.582   8.147   7.447
26334WAT     H279245   8.574   8.270   7.339
26335WAT      O79246   5.808   5.202   5.368
26335WAT     H179247   5.846   5.204   5.460
26335WAT     H279248   5.721   5.153   5.368
26336WAT      O79249   1.063   2.760   9.675
26336WAT     H179250   1.086   2.844   9.625
26336WAT     H279251   0.994   2.709   9.624
26337WAT      O79252   8.431   4.391   9.534
26337WAT     H179253   8.471   4.322   9.473
26337WAT     H279254   8.504   4.442   9.579
26338WAT      O79255   3.426   4.164   3.773
26338WAT     H179256   3.465   4.253   3.798
26338WAT     H279257   3.390   4.119   3.854
26339WAT      O79258   6.245   3.500   5.931
26339WAT     H179259   6.197   3.544   6.007
26339WAT     H279260   6.228   3.551   5.846
26340WAT      O79261   4.258   6.776   2.007
26340WAT     H179262   4.235   6.836   2.083
26340WAT     H279263   4.329   6.819   1.951
26341WAT      O79264   7.075   9.281   1.158
26341WAT     H179265   7.125   9.217   1.216
26341WAT     H279266   7.114   9.372   1.169
26342WAT      O79267   4.749   2.109   0.645
26342WAT     H179268   4.697   2.164   0.711
26342WAT     H279269   4.736   2.012   0.665
26343WAT      O79270   6.092   6.240   3.104
26343WAT     H179271   6.186   6.275   3.093
26343WAT     H279272   6.067   6.187   3.023
26344WAT      O79273   2.374   0.286   0.056
26344WAT     H179274   2.396   0.299   0.153
26344WAT     H279275   2.394   0.192   0.029
26345WAT      O79276   6.353   2.506   4.485
26345WAT     H179277   6.290   2.581   4.463
26345WAT     H279278   6.420   2.538   4.553
26346WAT      O79279   7.869   4.801   6.636
26346WAT     H179280   7.912   4.758   6.715
26346WAT     H279281   7.938   4.845   6.580
26347WAT      O79282   1.838   1.983   1.429
26347WAT     H179283   1.769   1.957   1.496
26347WAT     H279284   1.877   2.072   1.453
26348WAT      O79285   3.769   7.375   9.510
26348WAT     H179286   3.744   7.295   9.455
26348WAT     H279287   3.805   7.446   9.450
26349WAT      O79288   1.014   0.309   3.623
26349WAT     H179289   0.985   0.360   3.704
26349WAT     H279290   0.937   0.256   3.588
26350WAT      O79291   6.996   5.672   5.109
26350WAT     H179292   7.074   5.677   5.046
26350WAT     H279293   7.024   5.628   5.194
26351WAT      O79294   2.682   4.462   8.866
26351WAT     H179295   2.772   4.418   8.866
26351WAT     H279296   2.668   4.511   8.952
26352WAT      O79297   4.295   1.015   3.195
26352WAT     H179298   4.361   1.087   3.220
26352WAT     H279299   4.205   1.039   3.231
26353WAT      O79300   2.832   2.786   4.603
26353WAT     H179301   2.756   2.724   4.620
26353WAT     H279302   2.900   2.776   4.676
26354WAT      O79303   0.917   8.793   6.034
26354WAT     H179304   0.962   8.801   6.124
26354WAT     H279305   0.870   8.878   6.013
26355WAT      O79306   8.640   5.060   6.788
26355WAT     H179307   8.721   5.060   6.729
26355WAT     H279308   8.559   5.077   6.733
26356WAT      O79309   6.019   7.148   2.302
26356WAT     H179310   6.101   7.102   2.337
26356WAT     H279311   5.938   7.107   2.345
26357WAT      O79312   4.469   7.405   4.477
26357WAT     H179313   4.399   7.385   4.546
26357WAT     H279314   4.427   7.450   4.399
26358WAT      O79315   0.380   4.113   3.168
26358WAT     H179316   0.466   4.063   3.168
26358WAT     H279317   0.378   4.177   3.091
26359WAT      O79318   9.635   9.226   8.067
26359WAT     H179319   9.654   9.312   8.115
26359WAT     H279320   9.539   9.225   8.038
26360WAT      O79321   9.254   9.092   5.975
26360WAT     H179322   9.308   9.009   5.989
26360WAT     H279323   9.298   9.148   5.904
26361WAT      O79324   0.476   9.014   3.912
26361WAT     H179325   0.566   9.002   3.955
26361WAT     H279326   0.434   8.925   3.898
26362WAT      O79327   4.242   1.091   7.701
26362WAT     H179328   4.178   1.158   7.739
26362WAT     H279329   4.335   1.117   7.725
26363WAT      O79330   5.520   1.663   6.262
26363WAT     H179331   5.429   1.664   6.221
26363WAT     H279332   5.563   1.574   6.247
26364WAT      O79333   2.987   6.380   6.713
26364WAT     H179334   2.939   6.368   6.800
26364WAT     H279335   3.036   6.467   6.714
26365WAT      O79336   4.272   8.138   4.946
26365WAT     H179337   4.234   8.210   4.888
26365WAT     H279338   4.364   8.115   4.915
26366WAT      O79339   3.427   5.652   8.556
26366WAT     H179340   3.346   5.709   8.540
26366WAT     H279341   3.456   5.610   8.470
26367WAT      O79342   9.461   4.021   3.402
26367WAT     H179343   9.527   3.946   3.415
26367WAT     H279344   9.452   4.073   3.486
26368WAT      O79345   1.222   3.699   4.238
26368WAT     H179346   1.302   3.640   4.250
26368WAT     H279347   1.139   3.646   4.253
26369WAT      O79348   9.264   4.223   9.752
26369WAT     H179349   9.324   4.300   9.731
26369WAT     H279350   9.256   4.213   9.851
26370WAT      O79351   7.958   7.568   0.511
26370WAT     H179352   7.955   7.582   0.412
26370WAT     H279353   7.947   7.655   0.558
26371WAT      O79354   1.185   0.185   9.066
26371WAT     H179355   1.109   0.165   9.128
26371WAT     H279356   1.151   0.189   8.972
26372WAT      O79357   9.124   8.346   3.305
26372WAT     H179358   9.093   8.370   3.213
26372WAT     H279359   9.142   8.248   3.309
26373WAT      O79360   7.017   2.459   3.369
26373WAT     H179361   7.004   2.374   3.421
26373WAT     H279362   6.949   2.464   3.296
26374WAT      O79363   3.254   1.039   1.288
26374WAT     H179364   3.207   1.048   1.376
26374WAT     H279365   3.329   1.105   1.283
26375WAT      O79366   1.533   4.726   7.307
26375WAT     H179367   1.597   4.659   7.344
26375WAT     H279368   1.449   4.725   7.360
26376WAT      O79369   2.548   2.364   0.405
26376WAT     H179370   2.491   2.445   0.419
26376WAT     H279371   2.605   2.349   0.486
26377WAT      O79372   8.247   9.471   1.758
26377WAT     H179373   8.262   9.532   1.836
26377WAT     H279374   8.191   9.393   1.787
26378WAT      O79375   5.628   5.654   3.397
26378WAT     H179376   5.556   5.596   3.435
26378WAT     H279377   5.671   5.707   3.470
26379WAT      O79378   4.717   4.244   2.430
26379WAT     H179379   4.720   4.150   2.396
26379WAT     H279380   4.693   4.243   2.527
26380WAT      O79381   9.891   8.634   8.712
26380WAT     H179382   9.914   8.703   8.643
26380WAT     H279383   9.812   8.665   8.765
26381WAT      O79384   8.184   4.193   6.712
26381WAT     H179385   8.148   4.199   6.805
26381WAT     H279386   8.284   4.200   6.715
26382WAT      O79387   9.191   3.461   2.268
26382WAT     H179388   9.232   3.378   2.304
26382WAT     H279389   9.101   3.439   2.228
26383WAT      O79390   0.302   3.153   5.448
26383WAT     H179391   0.330   3.237   5.494
26383WAT     H279392   0.247   3.175   5.367
26384WAT      O79393   8.199   8.115   4.719
26384WAT     H179394   8.110   8.094   4.758
26384WAT     H279395   8.211   8.214   4.711
26385WAT      O79396   1.298   2.693   0.342
26385WAT     H179397   1.274   2.779   0.298
26385WAT     H279398   1.392   2.698   0.375
26386WAT      O79399   8.416   2.214   4.524
26386WAT     H179400   8.385   2.166   4.442
26386WAT     H279401   8.358   2.294   4.540
26387WAT      O79402   1.075   1.231   9.605
26387WAT     H179403   1.005   1.271   9.663
26387WAT     H279404   1.136   1.303   9.571
26388WAT      O79405   2.700   6.740   1.116
26388WAT     H179406   2.614   6.749   1.067
26388WAT     H279407   2.683   6.705   1.208
26389WAT      O79408   6.468   8.071   0.338
26389WAT     H179409   6.553   8.019   0.330
26389WAT     H279410   6.461   8.136   0.262
26390WAT      O79411   7.697   3.896   2.323
26390WAT     H179412   7.751   3.904   2.239
26390WAT     H279413   7.749   3.842   2.390
26391WAT      O79414   1.859   7.674   1.672
26391WAT     H179415   1.950   7.715   1.681
26391WAT     H279416   1.810   7.684   1.758
26392WAT      O79417   0.190   4.234   5.282
26392WAT     H179418   0.286   4.208   5.299
26392WAT     H279419   0.168   4.215   5.186
26393WAT      O79420   2.815   2.733   5.696
26393WAT     H179421   2.876   2.807   5.667
26393WAT     H279422   2.733   2.773   5.738
26394WAT      O79423   3.621   5.286   4.029
26394WAT     H179424   3.590   5.352   4.097
26394WAT     H279425   3.614   5.194   4.067
26395WAT      O79426   2.653   1.378   0.748
26395WAT     H179427   2.626   1.409   0.657
26395WAT     H279428   2.706   1.294   0.740
26396WAT      O79429   8.470   4.022   8.967
26396WAT     H179430   8.538   4.034   9.040
26396WAT     H279431   8.490   3.937   8.917
26397WAT      O79432   4.493   6.311   1.034
26397WAT     H179433   4.517   6.246   0.962
26397WAT     H279434   4.519   6.273   1.123
26398WAT      O79435   1.342   6.228   6.966
26398WAT     H179436   1.381   6.198   7.053
26398WAT     H279437   1.243   6.234   6.974
26399WAT      O79438   0.125   7.754   7.544
26399WAT     H179439   0.091   7.679   7.487
26399WAT     H279440   0.055   7.825   7.550
26400WAT      O79441   0.455   5.544   1.314
26400WAT     H179442   0.487   5.451   1.296
26400WAT     H279443   0.360   5.541   1.344
26401WAT      O79444   4.398   9.543   3.781
26401WAT     H179445   4.462   9.485   3.732
26401WAT     H279446   4.305   9.505   3.774
26402WAT      O79447   7.943   6.352   3.348
26402WAT     H179448   7.998   6.377   3.268
26402WAT     H279449   7.991   6.379   3.432
26403WAT      O79450   8.039   4.313   4.187
26403WAT     H179451   8.055   4.215   4.187
26403WAT     H279452   8.031   4.347   4.281
26404WAT      O79453   0.909   8.795   4.126
26404WAT     H179454   0.892   8.715   4.068
26404WAT     H279455   0.838   8.864   4.109
26405WAT      O79456   7.576   1.111   5.971
26405WAT     H179457   7.541   1.201   5.998
26405WAT     H279458   7.531   1.040   6.026
26406WAT      O79459   1.219   5.862   2.809
26406WAT     H179460   1.261   5.953   2.810
26406WAT     H279461   1.211   5.829   2.903
26407WAT      O79462   8.697   5.861   3.989
26407WAT     H179463   8.676   5.958   4.005
26407WAT     H279464   8.661   5.807   4.065
26408WAT      O79465   8.608   5.171   4.019
26408WAT     H179466   8.647   5.263   4.025
26408WAT     H279467   8.649   5.113   4.088
26409WAT      O79468   7.205   9.557   5.065
26409WAT     H179469   7.134   9.552   5.136
26409WAT     H279470   7.171   9.514   4.982
26410WAT      O79471   5.453   4.220   9.378
26410WAT     H179472   5.507   4.192   9.299
26410WAT     H279473   5.406   4.306   9.358
26411WAT      O79474   5.579   8.609   3.807
26411WAT     H179475   5.528   8.638   3.888
26411WAT     H279476   5.591   8.510   3.809
26412WAT      O79477   1.863   3.609   2.012
26412WAT     H179478   1.936   3.540   2.013
26412WAT     H279479   1.901   3.695   1.978
26413WAT      O79480   6.626   5.639   7.382
26413WAT     H179481   6.679   5.558   7.359
26413WAT     H279482   6.541   5.612   7.426
26414WAT      O79483   1.814   2.434   6.278
26414WAT     H179484   1.827   2.405   6.183
26414WAT     H279485   1.805   2.534   6.282
26415WAT      O79486   7.187   5.485   5.586
26415WAT     H179487   7.225   5.421   5.519
26415WAT     H279488   7.119   5.438   5.642
26416WAT      O79489   4.586   4.396   2.105
26416WAT     H179490   4.592   4.431   2.198
26416WAT     H279491   4.675   4.361   2.077
26417WAT      O79492   6.796   7.530   5.798
26417WAT     H179493   6.798   7.496   5.892
26417WAT     H279494   6.702   7.531   5.765
26418WAT      O79495   7.948   8.158   8.132
26418WAT     H179496   8.042   8.140   8.103
26418WAT     H279497   7.926   8.254   8.116
26419WAT      O79498   9.513   7.912   3.948
26419WAT     H179499   9.515   7.852   3.868
26419WAT     H279500   9.419   7.940   3.967
26420WAT      O79501   4.561   6.467   4.475
26420WAT     H179502   4.516   6.553   4.502
26420WAT     H279503   4.531   6.440   4.384
26421WAT      O79504   4.550   1.513   1.073
26421WAT     H179505   4.513   1.504   1.166
26421WAT     H279506   4.571   1.609   1.055
26422WAT      O79507   5.194   5.173   5.993
26422WAT     H179508   5.120   5.111   5.968
26422WAT     H279509   5.260   5.125   6.050
26423WAT      O79510   2.693   0.546   5.943
26423WAT     H179511   2.657   0.632   5.978
26423WAT     H279512   2.623   0.500   5.888
26424WAT      O79513   5.007   1.356   6.116
26424WAT     H179514   5.031   1.261   6.099
26424WAT     H279515   5.024   1.411   6.034
26425WAT      O79516   1.562   7.413   3.478
26425WAT     H179517   1.578   7.365   3.392
26425WAT     H279518   1.607   7.364   3.553
26426WAT      O79519   2.979   8.278   9.632
26426WAT     H179520   3.074   8.255   9.653
26426WAT     H279521   2.921   8.197   9.644
26427WAT      O79522   4.852   3.115   6.865
26427WAT     H179523   4.830   3.120   6.962
26427WAT     H279524   4.906   3.195   6.839
26428WAT      O79525   1.746   8.643   5.844
26428WAT     H179526   1.737   8.544   5.834
26428WAT     H279527   1.738   8.686   5.754
26429WAT      O79528   8.803   5.515   8.346
26429WAT     H179529   8.890   5.469   8.328
26429WAT     H279530   8.764   5.479   8.431
26430WAT      O79531   3.108   1.436   4.692
26430WAT     H179532   3.014   1.425   4.724
26430WAT     H279533   3.166   1.368   4.736
26431WAT      O79534   6.728   9.449   3.879
26431WAT     H179535   6.707   9.545   3.896
26431WAT     H279536   6.811   9.423   3.928
26432WAT      O79537   6.746   5.675   8.665
26432WAT     H179538   6.662   5.729   8.674
26432WAT     H279539   6.795   5.676   8.752
26433WAT      O79540   4.128   4.601   1.860
26433WAT     H179541   4.028   4.608   1.860
26433WAT     H279542   4.167   4.684   1.901
26434WAT      O79543   6.434   4.644   1.236
26434WAT     H179544   6.422   4.550   1.204
26434WAT     H279545   6.379   4.658   1.318
26435WAT      O79546   2.583   5.829   7.252
26435WAT     H179547   2.657   5.838   7.318
26435WAT     H279548   2.619   5.796   7.165
26436WAT      O79549   5.399   9.546   5.867
26436WAT     H179550   5.376   9.458   5.909
26436WAT     H279551   5.383   9.619   5.933
26437WAT      O79552   5.616   6.364   3.277
26437WAT     H179553   5.709   6.357   3.241
26437WAT     H279554   5.551   6.350   3.203
26438WAT      O79555   0.906   7.864   6.314
26438WAT     H179556   0.905   7.908   6.404
26438WAT     H279557   0.855   7.779   6.318
26439WAT      O79558   4.601   1.587   7.888
26439WAT     H179559   4.589   1.529   7.969
26439WAT     H279560   4.521   1.578   7.829
26440WAT      O79561   1.397   8.591   0.552
26440WAT     H179562   1.410   8.690   0.556
26440WAT     H279563   1.374   8.564   0.458
26441WAT      O79564   2.541   0.188   4.164
26441WAT     H179565   2.542   0.262   4.098
26441WAT     H279566   2.597   0.112   4.130
26442WAT      O79567   7.845   9.460   2.484
26442WAT     H179568   7.750   9.444   2.457
26442WAT     H279569   7.886   9.374   2.516
26443WAT      O79570   8.908   9.491   8.136
26443WAT     H179571   8.835   9.560   8.137
26443WAT     H279572   8.964   9.502   8.054
26444WAT      O79573   3.313   0.630   5.272
26444WAT     H179574   3.227   0.639   5.323
26444WAT     H279575   3.347   0.536   5.280
26445WAT      O79576   1.910   8.310   4.842
26445WAT     H179577   1.989   8.366   4.869
26445WAT     H279578   1.838   8.369   4.806
26446WAT      O79579   9.008   5.114   2.645
26446WAT     H179580   8.968   5.078   2.729
26446WAT     H279581   9.033   5.039   2.584
26447WAT      O79582   2.311   0.173   0.808
26447WAT     H179583   2.317   0.132   0.716
26447WAT     H279584   2.219   0.159   0.844
26448WAT      O79585   1.471   8.080   3.687
26448WAT     H179586   1.463   8.177   3.712
26448WAT     H279587   1.452   8.024   3.767
26449WAT      O79588   8.024   8.450   8.701
26449WAT     H179589   8.006   8.409   8.612
26449WAT     H279590   8.111   8.414   8.738
26450WAT      O79591   8.697   5.324   6.253
26450WAT     H179592   8.664   5.318   6.158
26450WAT     H279593   8.666   5.410   6.293
26451WAT      O79594   8.529   0.271   2.372
26451WAT     H179595   8.564   0.185   2.336
26451WAT     H279596   8.550   0.278   2.469
26452WAT      O79597   5.007   3.739   6.222
26452WAT     H179598   4.959   3.823   6.196
26452WAT     H279599   4.948   3.660   6.205
26453WAT      O79600   0.934   7.883   4.009
26453WAT     H179601   0.935   7.846   3.916
26453WAT     H279602   0.975   7.816   4.072
26454WAT      O79603   5.857   8.806   7.843
26454WAT     H179604   5.827   8.720   7.885
26454WAT     H279605   5.828   8.808   7.747
26455WAT      O79606   3.623   6.085   3.642
26455WAT     H179607   3.628   6.045   3.733
26455WAT     H279608   3.661   6.021   3.575
26456WAT      O79609   3.538   4.658   9.426
26456WAT     H179610   3.622   4.643   9.373
26456WAT     H279611   3.498   4.745   9.400
26457WAT      O79612   4.644   0.488   1.456
26457WAT     H179613   4.545   0.500   1.452
26457WAT     H279614   4.682   0.548   1.526
26458WAT      O79615   0.874   9.556   6.785
26458WAT     H179616   0.839   9.593   6.871
26458WAT     H279617   0.862   9.623   6.712
26459WAT      O79618   8.276   2.470   5.106
26459WAT     H179619   8.279   2.569   5.091
26459WAT     H279620   8.370   2.434   5.107
26460WAT      O79621   0.292   0.679   5.105
26460WAT     H179622   0.325   0.585   5.114
26460WAT     H279623   0.355   0.741   5.151
26461WAT      O79624   9.004   8.620   2.775
26461WAT     H179625   9.071   8.630   2.848
26461WAT     H279626   9.046   8.571   2.698
26462WAT      O79627   7.473   8.123   1.176
26462WAT     H179628   7.455   8.221   1.166
26462WAT     H279629   7.399   8.071   1.134
26463WAT      O79630   5.391   1.151   6.537
26463WAT     H179631   5.447   1.068   6.532
26463WAT     H279632   5.390   1.183   6.632
26464WAT      O79633   4.843   6.383   1.121
26464WAT     H179634   4.780   6.364   1.046
26464WAT     H279635   4.937   6.389   1.086
26465WAT      O79636   7.527   2.549   1.250
26465WAT     H179637   7.587   2.599   1.188
26465WAT     H279638   7.534   2.451   1.231
26466WAT      O79639   8.325   2.424   7.921
26466WAT     H179640   8.405   2.391   7.972
26466WAT     H279641   8.349   2.432   7.824
26467WAT      O79642   3.158   9.795   1.313
26467WAT     H179643   3.254   9.784   1.342
26467WAT     H279644   3.155   9.839   1.223
26468WAT      O79645   2.453   8.787   4.434
26468WAT     H179646   2.407   8.705   4.470
26468WAT     H279647   2.466   8.778   4.335
26469WAT      O79648   9.661   5.158   3.804
26469WAT     H179649   9.605   5.235   3.832
26469WAT     H279650   9.606   5.094   3.750
26470WAT      O79651   0.803   5.654   5.125
26470WAT     H179652   0.801   5.700   5.213
26470WAT     H279653   0.847   5.713   5.057
26471WAT      O79654   1.215   5.816   1.191
26471WAT     H179655   1.123   5.800   1.155
26471WAT     H279656   1.276   5.742   1.160
26472WAT      O79657   5.782   0.521   9.296
26472WAT     H179658   5.793   0.604   9.349
26472WAT     H279659   5.826   0.445   9.344
26473WAT      O79660   3.328   3.629   5.686
26473WAT     H179661   3.393   3.634   5.610
26473WAT     H279662   3.363   3.681   5.764
26474WAT      O79663   2.300   6.252   3.303
26474WAT     H179664   2.371   6.286   3.241
26474WAT     H279665   2.341   6.190   3.370
26475WAT      O79666   6.367   0.408   0.097
26475WAT     H179667   6.315   0.491   0.083
26475WAT     H279668   6.318   0.348   0.160
26476WAT      O79669   5.703   2.226   6.785
26476WAT     H179670   5.730   2.319   6.814
26476WAT     H279671   5.605   2.215   6.799
26477WAT      O79672   0.391   8.393   9.569
26477WAT     H179673   0.328   8.317   9.556
26477WAT     H279674   0.342   8.479   9.557
26478WAT      O79675   9.165   4.860   5.159
26478WAT     H179676   9.132   4.769   5.133
26478WAT     H279677   9.143   4.877   5.255
26479WAT      O79678   7.664   7.461   9.328
26479WAT     H179679   7.712   7.480   9.243
26479WAT     H279680   7.580   7.516   9.332
26480WAT      O79681   3.803   7.168   0.225
26480WAT     H179682   3.772   7.198   0.316
26480WAT     H279683   3.875   7.099   0.236
26481WAT      O79684   4.837   4.715   7.741
26481WAT     H179685   4.791   4.660   7.811
26481WAT     H279686   4.820   4.675   7.651
26482WAT      O79687   6.455   9.473   1.327
26482WAT     H179688   6.445   9.572   1.334
26482WAT     H279689   6.438   9.430   1.416
26483WAT      O79690   8.761   0.258   1.860
26483WAT     H179691   8.844   0.205   1.883
26483WAT     H279692   8.710   0.210   1.789
26484WAT      O79693   5.336   6.873   8.514
26484WAT     H179694   5.395   6.860   8.593
26484WAT     H279695   5.245   6.903   8.545
26485WAT      O79696   0.119   8.286   8.969
26485WAT     H179697   0.124   8.300   9.068
26485WAT     H279698   0.028   8.253   8.944
26486WAT      O79699   3.797   8.441   5.650
26486WAT     H179700   3.854   8.450   5.569
26486WAT     H279701   3.852   8.461   5.731
26487WAT      O79702   9.466   3.749   0.361
26487WAT     H179703   9.531   3.808   0.408
26487WAT     H279704   9.396   3.805   0.317
26488WAT      O79705   6.868   7.814   4.600
26488WAT     H179706   6.961   7.830   4.635
26488WAT     H279707   6.821   7.751   4.662
26489WAT      O79708   5.037   9.488   0.163
26489WAT     H179709   5.078   9.413   0.214
26489WAT     H279710   5.107   9.556   0.140
26490WAT      O79711   5.433   7.327   8.351
26490WAT     H179712   5.341   7.293   8.371
26490WAT     H279713   5.490   7.251   8.319
26491WAT      O79714   8.674   6.878   4.262
26491WAT     H179715   8.728   6.800   4.228
26491WAT     H279716   8.734   6.941   4.311
26492WAT      O79717   3.306   3.200   2.276
26492WAT     H179718   3.230   3.143   2.247
26492WAT     H279719   3.274   3.292   2.297
26493WAT      O79720   8.203   8.523   4.831
26493WAT     H179721   8.104   8.525   4.821
26493WAT     H279722   8.246   8.519   4.740
26494WAT      O79723   1.071   8.188   1.303
26494WAT     H179724   1.057   8.286   1.286
26494WAT     H279725   1.049   8.167   1.398
26495WAT      O79726   5.375   0.371   1.608
26495WAT     H179727   5.276   0.363   1.607
26495WAT     H279728   5.406   0.412   1.522
26496WAT      O79729   2.604   3.587   7.862
26496WAT     H179730   2.663   3.618   7.788
26496WAT     H279731   2.652   3.596   7.949
26497WAT      O79732   4.519   9.007   2.303
26497WAT     H179733   4.531   8.959   2.216
26497WAT     H279734   4.441   8.967   2.352
26498WAT      O79735   8.883   7.925   5.492
26498WAT     H179736   8.941   8.005   5.480
26498WAT     H279737   8.804   7.930   5.430
26499WAT      O79738   5.363   9.552   8.634
26499WAT     H179739   5.334   9.479   8.697
26499WAT     H279740   5.327   9.534   8.543
26500WAT      O79741   2.705   8.943   9.496
26500WAT     H179742   2.757   8.899   9.569
26500WAT     H279743   2.609   8.949   9.522
26501WAT      O79744   5.602   5.000   0.676
26501WAT     H179745   5.556   4.949   0.749
26501WAT     H279746   5.693   5.027   0.706
26502WAT      O79747   3.876   7.941   1.543
26502WAT     H179748   3.837   8.022   1.588
26502WAT     H279749   3.810   7.865   1.549
26503WAT      O79750   5.046   0.759   3.113
26503WAT     H179751   4.975   0.713   3.058
26503WAT     H279752   5.080   0.838   3.063
26504WAT      O79753   1.054   1.484   8.927
26504WAT     H179754   1.100   1.413   8.874
26504WAT     H279755   0.957   1.463   8.936
26505WAT      O79756   7.406   7.202   2.982
26505WAT     H179757   7.505   7.197   2.998
26505WAT     H279758   7.381   7.139   2.909
26506WAT      O79759   1.067   1.459   6.755
26506WAT     H179760   1.135   1.441   6.827
26506WAT     H279761   1.056   1.377   6.699
26507WAT      O79762   3.803   9.715   9.485
26507WAT     H179763   3.872   9.784   9.508
26507WAT     H279764   3.764   9.736   9.395
26508WAT      O79765   2.656   8.542   4.519
26508WAT     H179766   2.691   8.634   4.538
26508WAT     H279767   2.724   8.491   4.466
26509WAT      O79768   7.781   8.230   2.380
26509WAT     H179769   7.693   8.183   2.388
26509WAT     H279770   7.783   8.283   2.295
26510WAT      O79771   5.978   6.232   5.261
26510WAT     H179772   5.907   6.166   5.238
26510WAT     H279773   6.062   6.209   5.211
26511WAT      O79774   1.442   5.268   1.808
26511WAT     H179775   1.508   5.338   1.833
26511WAT     H279776   1.468   5.181   1.848
26512WAT      O79777   1.632   1.067   3.308
26512WAT     H179778   1.664   1.080   3.401
26512WAT     H279779   1.634   1.154   3.259
26513WAT      O79780   7.402   7.280   2.361
26513WAT     H179781   7.331   7.251   2.425
26513WAT     H279782   7.492   7.249   2.393
26514WAT      O79783   7.917   5.813   5.198
26514WAT     H179784   7.877   5.752   5.129
26514WAT     H279785   7.843   5.861   5.246
26515WAT      O79786   2.288   4.500   1.577
26515WAT     H179787   2.226   4.481   1.501
26515WAT     H279788   2.245   4.471   1.663
26516WAT      O79789   6.701   3.348   8.753
26516WAT     H179790   6.619   3.404   8.765
26516WAT     H279791   6.762   3.359   8.832
26517WAT      O79792   2.023   4.478   1.390
26517WAT     H179793   2.079   4.556   1.361
26517WAT     H279794   1.927   4.505   1.389
26518WAT      O79795   2.521   2.385   5.706
26518WAT     H179796   2.483   2.437   5.629
26518WAT     H279797   2.615   2.417   5.723
26519WAT      O79798   6.748   1.127   9.110
26519WAT     H179799   6.674   1.074   9.153
26519WAT     H279800   6.801   1.173   9.181
26520WAT      O79801   9.045   1.372   1.131
26520WAT     H179802   9.045   1.353   1.032
26520WAT     H279803   8.964   1.425   1.154
26521WAT      O79804   2.361   7.399   0.900
26521WAT     H179805   2.397   7.319   0.854
26521WAT     H279806   2.411   7.480   0.871
26522WAT      O79807   6.194   5.448   8.511
26522WAT     H179808   6.114   5.389   8.499
26522WAT     H279809   6.253   5.409   8.582
26523WAT      O79810   4.315   2.626   2.400
26523WAT     H179811   4.282   2.721   2.401
26523WAT     H279812   4.239   2.564   2.381
26524WAT      O79813   1.194   4.544   1.809
26524WAT     H179814   1.186   4.446   1.794
26524WAT     H279815   1.182   4.592   1.722
26525WAT      O79816   3.705   5.994   8.647
26525WAT     H179817   3.651   6.076   8.626
26525WAT     H279818   3.800   6.020   8.663
26526WAT      O79819   8.554   2.157   7.729
26526WAT     H179820   8.623   2.126   7.795
26526WAT     H279821   8.465   2.118   7.752
26527WAT      O79822   8.191   8.066   8.945
26527WAT     H179823   8.119   8.087   9.012
26527WAT     H279824   8.260   8.008   8.989
26528WAT      O79825   2.982   6.782   1.765
26528WAT     H179826   3.015   6.690   1.745
26528WAT     H279827   2.890   6.793   1.727
26529WAT      O79828   7.358   4.020   9.641
26529WAT     H179829   7.313   4.103   9.673
26529WAT     H279830   7.289   3.957   9.603
26530WAT      O79831   8.300   9.587   3.975
26530WAT     H179832   8.202   9.587   3.996
26530WAT     H279833   8.314   9.559   3.880
26531WAT      O79834   4.238   4.921   9.330
26531WAT     H179835   4.243   4.834   9.281
26531WAT     H279836   4.295   4.916   9.412
26532WAT      O79837   8.961   9.452   2.271
26532WAT     H179838   8.865   9.438   2.296
26532WAT     H279839   9.019   9.391   2.326
26533WAT      O79840   5.592   3.802   5.997
26533WAT     H179841   5.575   3.784   5.900
26533WAT     H279842   5.542   3.884   6.026
26534WAT      O79843   1.048   8.471   9.712
26534WAT     H179844   1.062   8.376   9.682
26534WAT     H279845   1.133   8.523   9.700
26535WAT      O79846   6.980   3.436   7.705
26535WAT     H179847   7.026   3.412   7.620
26535WAT     H279848   6.889   3.395   7.707
26536WAT      O79849   7.239   9.367   6.858
26536WAT     H179850   7.163   9.316   6.898
26536WAT     H279851   7.207   9.458   6.832
26537WAT      O79852   0.454   1.761   2.987
26537WAT     H179853   0.518   1.800   3.054
26537WAT     H279854   0.490   1.775   2.895
26538WAT      O79855   4.738   9.078   7.816
26538WAT     H179856   4.642   9.091   7.792
26538WAT     H279857   4.772   8.994   7.773
26539WAT      O79858   1.208   9.232   3.695
26539WAT     H179859   1.191   9.293   3.618
26539WAT     H279860   1.174   9.275   3.779
26540WAT      O79861   2.329   9.230   4.608
26540WAT     H179862   2.348   9.134   4.628
26540WAT     H279863   2.311   9.241   4.510
26541WAT      O79864   4.707   8.236   8.799
26541WAT     H179865   4.719   8.193   8.888
26541WAT     H279866   4.695   8.334   8.810
26542WAT      O79867   5.600   6.302   9.734
26542WAT     H179868   5.562   6.311   9.642
26542WAT     H279869   5.574   6.381   9.789
26543WAT      O79870   8.027   9.041   5.984
26543WAT     H179871   7.971   9.021   6.064
26543WAT     H279872   8.100   9.105   6.009
26544WAT      O79873   3.109   8.799   2.667
26544WAT     H179874   3.104   8.701   2.685
26544WAT     H279875   3.181   8.840   2.722
26545WAT      O79876   5.186   7.324   2.865
26545WAT     H179877   5.212   7.233   2.899
26545WAT     H279878   5.200   7.327   2.766
26546WAT      O79879   3.108   1.151   6.086
26546WAT     H179880   3.164   1.137   6.167
26546WAT     H279881   3.016   1.116   6.103
26547WAT      O79882   2.959   8.994   1.615
26547WAT     H179883   2.893   8.978   1.541
26547WAT     H279884   2.922   9.062   1.678
26548WAT      O79885   1.810   1.850   6.693
26548WAT     H179886   1.899   1.892   6.712
26548WAT     H279887   1.779   1.876   6.602
26549WAT      O79888   7.524   6.114   7.058
26549WAT     H179889   7.537   6.167   6.975
26549WAT     H279890   7.590   6.142   7.127
26550WAT      O79891   4.282   0.912   5.935
26550WAT     H179892   4.314   0.979   5.868
26550WAT     H279893   4.228   0.842   5.889
26551WAT      O79894   4.920   4.795   9.299
26551WAT     H179895   4.976   4.874   9.325
26551WAT     H279896   4.840   4.790   9.360
26552WAT      O79897   1.717   3.864   3.743
26552WAT     H179898   1.737   3.845   3.647
26552WAT     H279899   1.801   3.896   3.789
26553WAT      O79900   1.532   6.943   0.882
26553WAT     H179901   1.453   6.897   0.921
26553WAT     H279902   1.613   6.924   0.938
26554WAT      O79903   9.766   4.396   4.419
26554WAT     H179904   9.799   4.350   4.336
26554WAT     H279905   9.751   4.493   4.400
26555WAT      O79906   0.613   0.863   0.920
26555WAT     H179907   0.640   0.876   1.016
26555WAT     H279908   0.551   0.784   0.914
26556WAT      O79909   4.710   1.512   0.022
26556WAT     H179910   4.660   1.484   0.104
26556WAT     H279911   4.808   1.500   0.037
26557WAT      O79912   2.325   7.427   3.646
26557WAT     H179913   2.304   7.408   3.742
26557WAT     H279914   2.278   7.360   3.588
26558WAT      O79915   1.380   6.770   5.401
26558WAT     H179916   1.478   6.770   5.385
26558WAT     H279917   1.333   6.735   5.320
26559WAT      O79918   3.166   0.398   0.124
26559WAT     H179919   3.125   0.440   0.205
26559WAT     H279920   3.253   0.355   0.150
26560WAT      O79921   2.202   6.196   5.183
26560WAT     H179922   2.239   6.121   5.129
26560WAT     H279923   2.136   6.247   5.129
26561WAT      O79924   4.979   5.266   9.517
26561WAT     H179925   4.902   5.228   9.568
26561WAT     H279926   5.036   5.322   9.577
26562WAT      O79927   2.949   6.326   8.999
26562WAT     H179928   3.020   6.396   8.997
26562WAT     H279929   2.888   6.338   8.921
26563WAT      O79930   4.388   9.472   4.980
26563WAT     H179931   4.402   9.558   4.932
26563WAT     H279932   4.470   9.448   5.032
26564WAT      O79933   4.041   8.713   7.099
26564WAT     H179934   3.988   8.662   7.033
26564WAT     H279935   4.038   8.810   7.077
26565WAT      O79936   5.286   5.243   1.975
26565WAT     H179937   5.306   5.285   1.886
26565WAT     H279938   5.197   5.198   1.972
26566WAT      O79939   0.163   5.249   4.367
26566WAT     H179940   0.179   5.154   4.341
26566WAT     H279941   0.240   5.281   4.422
26567WAT      O79942   8.976   1.777   5.426
26567WAT     H179943   8.976   1.772   5.326
26567WAT     H279944   9.022   1.861   5.455
26568WAT      O79945   8.304   6.966   7.654
26568WAT     H179946   8.311   7.066   7.657
26568WAT     H279947   8.371   6.930   7.589
26569WAT      O79948   3.030   0.366   9.247
26569WAT     H179949   2.930   0.365   9.249
26569WAT     H279950   3.064   0.272   9.256
26570WAT      O79951   4.287   0.650   5.201
26570WAT     H179952   4.269   0.745   5.227
26570WAT     H279953   4.200   0.601   5.192
26571WAT      O79954   9.808   1.331   9.384
26571WAT     H179955   9.723   1.296   9.345
26571WAT     H279956   9.833   1.276   9.465
26572WAT      O79957   2.676   0.318   8.032
26572WAT     H179958   2.709   0.367   8.113
26572WAT     H279959   2.588   0.275   8.053
26573WAT      O79960   9.663   1.532   9.702
26573WAT     H179961   9.701   1.560   9.614
26573WAT     H279962   9.698   1.441   9.725
26574WAT      O79963   0.651   2.967   1.349
26574WAT     H179964   0.574   3.007   1.399
26574WAT     H279965   0.737   3.006   1.384
26575WAT      O79966   5.642   9.187   0.555
26575WAT     H179967   5.712   9.237   0.606
26575WAT     H279968   5.646   9.212   0.459
26576WAT      O79969   0.940   8.177   6.701
26576WAT     H179970   1.026   8.166   6.752
26576WAT     H279971   0.925   8.273   6.681
26577WAT      O79972   9.752   9.173   7.811
26577WAT     H179973   9.680   9.144   7.874
26577WAT     H279974   9.717   9.245   7.751
26578WAT      O79975   7.374   8.614   6.973
26578WAT     H179976   7.448   8.660   7.023
26578WAT     H279977   7.413   8.558   6.901
26579WAT      O79978   6.222   9.131   4.680
26579WAT     H179979   6.194   9.087   4.766
26579WAT     H279980   6.217   9.230   4.691
26580WAT      O79981   5.588   5.251   3.116
26580WAT     H179982   5.635   5.179   3.167
26580WAT     H279983   5.516   5.210   3.060
26581WAT      O79984   5.850   1.939   8.581
26581WAT     H179985   5.836   2.021   8.637
26581WAT     H279986   5.764   1.887   8.578
26582WAT      O79987   4.351   7.261   9.676
26582WAT     H179988   4.356   7.322   9.756
26582WAT     H279989   4.256   7.234   9.661
26583WAT      O79990   6.114   3.908   5.188
26583WAT     H179991   6.145   3.999   5.158
26583WAT     H279992   6.055   3.868   5.117
26584WAT      O79993   6.049   2.172   3.724
26584WAT     H179994   6.054   2.195   3.627
26584WAT     H279995   6.113   2.097   3.744
26585WAT      O79996   4.033   4.966   7.760
26585WAT     H179997   4.131   4.958   7.779
26585WAT     H279998   4.010   5.061   7.740
26586WAT      O79999   0.639   7.201   2.344
26586WAT     H180000   0.639   7.103   2.365
26586WAT     H280001   0.732   7.230   2.322
26587WAT      O80002   6.669   2.307   4.212
26587WAT     H180003   6.616   2.303   4.297
26587WAT     H280004   6.700   2.400   4.196
26588WAT      O80005   1.341   1.069   1.455
26588WAT     H180006   1.441   1.061   1.458
26588WAT     H280007   1.317   1.160   1.422
26589WAT      O80008   4.832   2.067   3.668
26589WAT     H180009   4.749   2.121   3.673
26589WAT     H280010   4.853   2.045   3.573
26590WAT      O80011   8.364   1.869   5.765
26590WAT     H180012   8.288   1.929   5.742
26590WAT     H280013   8.447   1.923   5.777
26591WAT      O80014   8.748   2.328   6.301
26591WAT     H180015   8.670   2.376   6.342
26591WAT     H280016   8.819   2.316   6.370
26592WAT      O80017   2.165   8.887   8.304
26592WAT     H180018   2.207   8.922   8.388
26592WAT     H280019   2.072   8.857   8.323
26593WAT      O80020   5.049   4.892   8.129
26593WAT     H180021   5.055   4.922   8.034
26593WAT     H280022   5.012   4.799   8.132
26594WAT      O80023   7.132   0.858   2.021
26594WAT     H180024   7.145   0.905   1.934
26594WAT     H280025   7.214   0.806   2.043
26595WAT      O80026   6.316   4.832   8.653
26595WAT     H180027   6.292   4.870   8.564
26595WAT     H280028   6.300   4.733   8.654
26596WAT      O80029   1.378   1.418   4.086
26596WAT     H180030   1.313   1.368   4.027
26596WAT     H280031   1.417   1.355   4.153
26597WAT      O80032   8.376   5.375   2.245
26597WAT     H180033   8.346   5.300   2.186
26597WAT     H280034   8.476   5.377   2.248
26598WAT      O80035   8.648   6.562   0.131
26598WAT     H180036   8.730   6.565   0.074
26598WAT     H280037   8.583   6.497   0.093
26599WAT      O80038   6.402   7.710   2.158
26599WAT     H180039   6.481   7.658   2.127
26599WAT     H280040   6.370   7.770   2.085
26600WAT      O80041   2.445   3.970   3.718
26600WAT     H180042   2.494   3.939   3.636
26600WAT     H280043   2.377   4.038   3.692
26601WAT      O80044   0.534   7.333   0.070
26601WAT     H180045   0.611   7.321   0.007
26601WAT     H280046   0.564   7.315   0.164
26602WAT      O80047   9.877   3.059   6.980
26602WAT     H180048   9.909   3.131   7.041
26602WAT     H280049   9.952   3.026   6.924
26603WAT      O80050   5.663   1.271   5.347
26603WAT     H180051   5.678   1.319   5.433
26603WAT     H280052   5.607   1.328   5.286
26604WAT      O80053   0.261   7.827   3.724
26604WAT     H180054   0.224   7.861   3.637
26604WAT     H280055   0.201   7.856   3.799
26605WAT      O80056   8.703   4.506   0.722
26605WAT     H180057   8.793   4.505   0.679
26605WAT     H280058   8.712   4.530   0.818
26606WAT      O80059   1.553   8.386   5.157
26606WAT     H180060   1.503   8.375   5.070
26606WAT     H280061   1.575   8.296   5.194
26607WAT      O80062   2.442   8.062   0.350
26607WAT     H180063   2.495   7.995   0.403
26607WAT     H280064   2.490   8.150   0.351
26608WAT      O80065   6.009   7.267   5.088
26608WAT     H180066   5.970   7.201   5.152
26608WAT     H280067   5.991   7.237   4.994
26609WAT      O80068   6.230   1.980   0.685
26609WAT     H180069   6.158   2.045   0.708
26609WAT     H280070   6.247   1.983   0.586
26610WAT      O80071   9.456   9.211   9.853
26610WAT     H180072   9.530   9.143   9.857
26610WAT     H280073   9.492   9.300   9.879
26611WAT      O80074   3.410   8.012   2.456
26611WAT     H180075   3.413   7.962   2.370
26611WAT     H280076   3.436   7.951   2.531
26612WAT      O80077   9.292   7.887   9.183
26612WAT     H180078   9.380   7.911   9.142
26612WAT     H280079   9.247   7.970   9.217
26613WAT      O80080   2.392   6.999   1.100
26613WAT     H180081   2.315   7.003   1.036
26613WAT     H280082   2.436   7.089   1.104
26614WAT      O80083   9.236   8.397   4.876
26614WAT     H180084   9.290   8.457   4.934
26614WAT     H280085   9.201   8.321   4.931
26615WAT      O80086   1.802   4.863   8.849
26615WAT     H180087   1.799   4.927   8.772
26615WAT     H280088   1.714   4.865   8.897
26616WAT      O80089   2.796   6.372   1.273
26616WAT     H180090   2.769   6.464   1.300
26616WAT     H280091   2.788   6.362   1.174
26617WAT      O80092   7.332   5.004   7.696
26617WAT     H180093   7.297   4.916   7.728
26617WAT     H280094   7.275   5.078   7.733
26618WAT      O80095   6.781   3.146   9.148
26618WAT     H180096   6.801   3.169   9.244
26618WAT     H280097   6.864   3.159   9.093
26619WAT      O80098   3.053   8.899   6.968
26619WAT     H180099   2.999   8.822   6.935
26619WAT     H280100   3.101   8.942   6.891
26620WAT      O80101   9.808   7.966   4.686
26620WAT     H180102   9.853   8.017   4.612
26620WAT     H280103   9.848   7.875   4.694
26621WAT      O80104   4.085   8.905   4.720
26621WAT     H180105   4.021   8.969   4.763
26621WAT     H280106   4.179   8.931   4.744
26622WAT      O80107   4.208   8.989   4.231
26622WAT     H180108   4.148   8.911   4.245
26622WAT     H280109   4.231   9.030   4.319
26623WAT      O80110   4.492   3.277   6.595
26623WAT     H180111   4.470   3.374   6.605
26623WAT     H280112   4.519   3.240   6.684
26624WAT      O80113   3.116   1.742   3.744
26624WAT     H180114   3.184   1.687   3.794
26624WAT     H280115   3.163   1.805   3.682
26625WAT      O80116   1.291   6.811   0.956
26625WAT     H180117   1.211   6.869   0.967
26625WAT     H280118   1.262   6.718   0.933
26626WAT      O80119   4.247   5.669   8.147
26626WAT     H180120   4.190   5.735   8.098
26626WAT     H280121   4.340   5.704   8.155
26627WAT      O80122   1.856   4.416   6.348
26627WAT     H180123   1.847   4.516   6.350
26627WAT     H280124   1.916   4.386   6.423
26628WAT      O80125   9.787   4.271   7.167
26628WAT     H180126   9.779   4.319   7.254
26628WAT     H280127   9.883   4.266   7.140
26629WAT      O80128   9.884   5.718   5.233
26629WAT     H180129   9.970   5.688   5.274
26629WAT     H280130   9.834   5.774   5.299
26630WAT      O80131   8.862   7.211   0.104
26630WAT     H180132   8.771   7.232   0.140
26630WAT     H280133   8.930   7.219   0.177
26631WAT      O80134   1.828   8.693   8.682
26631WAT     H180135   1.904   8.634   8.707
26631WAT     H280136   1.840   8.782   8.726
26632WAT      O80137   2.207   8.785   0.266
26632WAT     H180138   2.230   8.689   0.251
26632WAT     H280139   2.129   8.809   0.209
26633WAT      O80140   8.875   8.834   0.468
26633WAT     H180141   8.869   8.745   0.514
26633WAT     H280142   8.921   8.899   0.527
26634WAT      O80143   8.303   4.346   3.931
26634WAT     H180144   8.359   4.396   3.865
26634WAT     H280145   8.327   4.376   4.024
26635WAT      O80146   6.151   7.517   6.881
26635WAT     H180147   6.225   7.577   6.849
26635WAT     H280148   6.126   7.542   6.975
26636WAT      O80149   2.403   4.157   5.788
26636WAT     H180150   2.455   4.238   5.761
26636WAT     H280151   2.322   4.149   5.730
26637WAT      O80152   3.357   8.878   2.798
26637WAT     H180153   3.431   8.826   2.841
26637WAT     H280154   3.394   8.932   2.722
26638WAT      O80155   8.793   5.292   4.666
26638WAT     H180156   8.787   5.333   4.757
26638WAT     H280157   8.730   5.214   4.660
26639WAT      O80158   7.763   8.948   5.528
26639WAT     H180159   7.782   8.917   5.621
26639WAT     H280160   7.762   9.048   5.525
26640WAT      O80161   8.213   6.910   3.028
26640WAT     H180162   8.193   6.817   2.997
26640WAT     H280163   8.129   6.952   3.064
26641WAT      O80164   4.690   7.997   4.455
26641WAT     H180165   4.686   7.899   4.472
26641WAT     H280166   4.778   8.021   4.413
26642WAT      O80167   2.082   5.551   4.970
26642WAT     H180168   2.083   5.649   4.950
26642WAT     H280169   2.175   5.520   4.989
26643WAT      O80170   3.108   1.953   4.125
26643WAT     H180171   3.172   1.894   4.173
26643WAT     H280172   3.150   1.989   4.042
26644WAT      O80173   1.452   1.571   7.259
26644WAT     H180174   1.455   1.660   7.213
26644WAT     H280175   1.544   1.532   7.262
26645WAT      O80176   7.066   2.393   1.688
26645WAT     H180177   7.055   2.306   1.640
26645WAT     H280178   6.976   2.426   1.717
26646WAT      O80179   9.521   5.664   4.040
26646WAT     H180180   9.517   5.691   4.136
26646WAT     H280181   9.428   5.645   4.007
26647WAT      O80182   7.122   8.715   3.300
26647WAT     H180183   7.219   8.724   3.280
26647WAT     H280184   7.071   8.701   3.215
26648WAT      O80185   4.161   7.295   6.062
26648WAT     H180186   4.195   7.328   5.974
26648WAT     H280187   4.081   7.237   6.048
26649WAT      O80188   2.368   3.402   5.419
26649WAT     H180189   2.411   3.376   5.333
26649WAT     H280190   2.424   3.472   5.465
26650WAT      O80191   8.481   7.558   7.356
26650WAT     H180192   8.526   7.635   7.310
26650WAT     H280193   8.393   7.587   7.392
26651WAT      O80194   1.803   6.581   4.509
26651WAT     H180195   1.824   6.635   4.427
26651WAT     H280196   1.727   6.519   4.489
26652WAT      O80197   7.107   1.789   5.701
26652WAT     H180198   7.091   1.718   5.770
26652WAT     H280199   7.116   1.747   5.611
26653WAT      O80200   5.783   8.405   3.243
26653WAT     H180201   5.799   8.325   3.184
26653WAT     H280202   5.822   8.486   3.200
26654WAT      O80203   7.120   6.904   3.579
26654WAT     H180204   7.210   6.946   3.596
26654WAT     H280205   7.106   6.896   3.480
26655WAT      O80206   9.202   7.092   3.522
26655WAT     H180207   9.278   7.156   3.518
26655WAT     H280208   9.157   7.088   3.433
26656WAT      O80209   2.205   8.020   2.238
26656WAT     H180210   2.213   7.935   2.291
26656WAT     H280211   2.296   8.059   2.225
26657WAT      O80212   2.180   9.170   6.348
26657WAT     H180213   2.176   9.091   6.286
26657WAT     H280214   2.250   9.234   6.315
26658WAT      O80215   3.162   7.339   7.225
26658WAT     H180216   3.178   7.394   7.142
26658WAT     H280217   3.148   7.400   7.303
26659WAT      O80218   1.997   0.696   2.074
26659WAT     H180219   2.073   0.697   2.009
26659WAT     H280220   2.015   0.763   2.146
26660WAT      O80221   4.199   9.041   5.869
26660WAT     H180222   4.195   9.034   5.969
26660WAT     H280223   4.119   8.995   5.830
26661WAT      O80224   3.044   0.766   3.924
26661WAT     H180225   2.967   0.829   3.936
26661WAT     H280226   3.126   0.816   3.899
26662WAT      O80227   1.751   2.969   5.167
26662WAT     H180228   1.741   2.921   5.080
26662WAT     H280229   1.823   3.038   5.159
26663WAT      O80230   2.037   0.392   8.066
26663WAT     H180231   1.978   0.311   8.056
26663WAT     H280232   1.987   0.464   8.114
26664WAT      O80233   1.820   3.067   5.605
26664WAT     H180234   1.720   3.065   5.606
26664WAT     H280235   1.851   3.159   5.629
26665WAT      O80236   0.243   8.046   1.466
26665WAT     H180237   0.194   8.132   1.455
26665WAT     H280238   0.313   8.039   1.395
26666WAT      O80239   4.016   3.323   4.734
26666WAT     H180240   4.035   3.234   4.776
26666WAT     H280241   3.931   3.360   4.771
26667WAT      O80242   9.404   4.484   7.788
26667WAT     H180243   9.504   4.476   7.778
26667WAT     H280244   9.364   4.510   7.700
26668WAT      O80245   1.590   7.539   8.001
26668WAT     H180246   1.547   7.554   7.912
26668WAT     H280247   1.689   7.538   7.991
26669WAT      O80248   0.219   3.401   6.059
26669WAT     H180249   0.268   3.365   6.139
26669WAT     H280250   0.246   3.351   5.977
26670WAT      O80251   8.984   5.759   2.436
26670WAT     H180252   9.026   5.739   2.347
26670WAT     H280253   8.899   5.707   2.445
26671WAT      O80254   6.873   9.741   1.448
26671WAT     H180255   6.807   9.808   1.481
26671WAT     H280256   6.893   9.674   1.520
26672WAT      O80257   9.369   7.290   3.510
26672WAT     H180258   9.446   7.316   3.452
26672WAT     H280259   9.328   7.373   3.549
26673WAT      O80260   7.738   7.317   8.592
26673WAT     H180261   7.819   7.375   8.583
26673WAT     H280262   7.656   7.374   8.585
26674WAT      O80263   3.024   5.363   5.568
26674WAT     H180264   3.058   5.431   5.633
26674WAT     H280265   3.000   5.409   5.482
26675WAT      O80266   2.441   2.741   8.289
26675WAT     H180267   2.384   2.660   8.300
26675WAT     H280268   2.525   2.731   8.342
26676WAT      O80269   1.653   3.017   0.107
26676WAT     H180270   1.676   3.042   0.201
26676WAT     H280271   1.733   2.976   0.063
26677WAT      O80272   7.172   1.275   3.593
26677WAT     H180273   7.128   1.250   3.680
26677WAT     H280274   7.112   1.339   3.544
26678WAT      O80275   7.789   9.593   3.110
26678WAT     H180276   7.816   9.520   3.173
26678WAT     H280277   7.706   9.638   3.144
26679WAT      O80278   6.831   0.791   8.534
26679WAT     H180279   6.911   0.781   8.475
26679WAT     H280280   6.757   0.732   8.500
26680WAT      O80281   4.006   5.834   5.610
26680WAT     H180282   4.024   5.795   5.701
26680WAT     H280283   3.977   5.761   5.548
26681WAT      O80284   1.564   2.612   9.196
26681WAT     H180285   1.534   2.578   9.285
26681WAT     H280286   1.630   2.548   9.156
26682WAT      O80287   0.914   4.452   3.289
26682WAT     H180288   0.913   4.407   3.200
26682WAT     H280289   1.005   4.489   3.307
26683WAT      O80290   9.697   6.271   8.541
26683WAT     H180291   9.707   6.171   8.542
26683WAT     H280292   9.775   6.313   8.587
26684WAT      O80293   3.439   7.999   0.900
26684WAT     H180294   3.475   8.082   0.859
26684WAT     H280295   3.427   8.013   0.998
26685WAT      O80296   7.173   9.404   5.913
26685WAT     H180297   7.225   9.451   5.841
26685WAT     H280298   7.079   9.438   5.913
26686WAT      O80299   1.725   3.029   1.462
26686WAT     H180300   1.651   2.962   1.463
26686WAT     H280301   1.807   2.988   1.422
26687WAT      O80302   4.686   6.966   2.658
26687WAT     H180303   4.783   6.983   2.637
26687WAT     H280304   4.631   6.988   2.578
26688WAT      O80305   9.847   7.193   5.821
26688WAT     H180306   9.791   7.258   5.872
26688WAT     H280307   9.863   7.228   5.729
26689WAT      O80308   3.694   7.396   1.445
26689WAT     H180309   3.697   7.315   1.386
26689WAT     H280310   3.614   7.391   1.506
26690WAT      O80311   3.062   4.286   5.582
26690WAT     H180312   3.111   4.369   5.556
26690WAT     H280313   3.075   4.269   5.679
26691WAT      O80314   5.946   4.019   3.096
26691WAT     H180315   5.862   4.062   3.063
26691WAT     H280316   5.949   4.023   3.196
26692WAT      O80317   1.899   4.867   0.127
26692WAT     H180318   1.869   4.775   0.152
26692WAT     H280319   1.968   4.898   0.193
26693WAT      O80320   5.605   1.095   6.814
26693WAT     H180321   5.519   1.045   6.804
26693WAT     H280322   5.590   1.191   6.788
26694WAT      O80323   7.847   8.513   1.648
26694WAT     H180324   7.866   8.611   1.649
26694WAT     H280325   7.902   8.468   1.578
26695WAT      O80326   2.899   2.596   2.144
26695WAT     H180327   2.867   2.542   2.067
26695WAT     H280328   2.989   2.565   2.172
26696WAT      O80329   5.531   3.464   9.004
26696WAT     H180330   5.442   3.423   8.981
26696WAT     H280331   5.579   3.405   9.068
26697WAT      O80332   7.390   6.752   5.827
26697WAT     H180333   7.397   6.847   5.796
26697WAT     H280334   7.327   6.747   5.905
26698WAT      O80335   0.036   8.157   2.350
26698WAT     H180336   0.073   8.220   2.417
26698WAT     H280337   0.040   8.063   2.386
26699WAT      O80338   7.749   5.466   4.839
26699WAT     H180339   7.811   5.388   4.846
26699WAT     H280340   7.802   5.551   4.837
26700WAT      O80341   8.789   1.914   4.448
26700WAT     H180342   8.755   1.958   4.364
26700WAT     H280343   8.876   1.956   4.475
26701WAT      O80344   0.374   4.385   0.642
26701WAT     H180345   0.321   4.303   0.619
26701WAT     H280346   0.440   4.362   0.714
26702WAT      O80347   7.642   9.438   5.193
26702WAT     H180348   7.740   9.445   5.211
26702WAT     H280349   7.624   9.456   5.097
26703WAT      O80350   9.164   3.730   5.989
26703WAT     H180351   9.212   3.681   6.062
26703WAT     H280352   9.174   3.680   5.903
26704WAT      O80353   6.318   3.223   8.229
26704WAT     H180354   6.286   3.153   8.293
26704WAT     H280355   6.366   3.295   8.279
26705WAT      O80356   5.323   0.914   0.053
26705WAT     H180357   5.404   0.964   0.024
26705WAT     H280358   5.243   0.950   0.006
26706WAT      O80359   8.384   7.921   9.343
26706WAT     H180360   8.470   7.878   9.371
26706WAT     H280361   8.308   7.874   9.387
26707WAT      O80362   9.273   7.397   1.348
26707WAT     H180363   9.180   7.362   1.334
26707WAT     H280364   9.275   7.494   1.325
26708WAT      O80365   0.958   0.146   1.770
26708WAT     H180366   0.955   0.097   1.682
26708WAT     H280367   1.008   0.232   1.759
26709WAT      O80368   8.396   1.850   4.989
26709WAT     H180369   8.316   1.900   5.023
26709WAT     H280370   8.470   1.857   5.055
26710WAT      O80371   9.149   2.494   7.126
26710WAT     H180372   9.075   2.490   7.060
26710WAT     H280373   9.136   2.423   7.195
26711WAT      O80374   9.366   1.451   2.980
26711WAT     H180375   9.427   1.425   2.905
26711WAT     H280376   9.415   1.448   3.067
26712WAT      O80377   4.105   8.312   5.695
26712WAT     H180378   4.110   8.227   5.643
26712WAT     H280379   4.134   8.388   5.637
26713WAT      O80380   7.092   2.830   5.235
26713WAT     H180381   7.111   2.922   5.200
26713WAT     H280382   7.010   2.795   5.191
26714WAT      O80383   4.841   1.262   0.688
26714WAT     H180384   4.755   1.272   0.737
26714WAT     H280385   4.866   1.165   0.683
26715WAT      O80386   1.240   1.499   2.014
26715WAT     H180387   1.207   1.546   2.096
26715WAT     H280388   1.169   1.503   1.943
26716WAT      O80389   4.950   4.428   0.365
26716WAT     H180390   5.046   4.408   0.343
26716WAT     H280391   4.935   4.416   0.463
26717WAT      O80392   6.059   0.877   0.296
26717WAT     H180393   6.071   0.885   0.197
26717WAT     H280394   5.998   0.800   0.317
26718WAT      O80395   8.479   4.547   2.363
26718WAT     H180396   8.386   4.539   2.399
26718WAT     H280397   8.476   4.576   2.268
26719WAT      O80398   7.131   8.499   6.806
26719WAT     H180399   7.194   8.475   6.732
26719WAT     H280400   7.179   8.554   6.874
26720WAT      O80401   4.190   4.489   0.493
26720WAT     H180402   4.097   4.463   0.466
26720WAT     H280403   4.236   4.409   0.532
26721WAT      O80404   4.014   5.490   3.464
26721WAT     H180405   4.013   5.492   3.564
26721WAT     H280406   3.929   5.530   3.429
26722WAT      O80407   5.211   0.516   9.024
26722WAT     H180408   5.136   0.514   9.090
26722WAT     H280409   5.298   0.529   9.073
26723WAT      O80410   8.677   8.149   4.107
26723WAT     H180411   8.751   8.122   4.045
26723WAT     H280412   8.709   8.222   4.167
26724WAT      O80413   5.682   1.777   6.849
26724WAT     H180414   5.765   1.723   6.844
26724WAT     H280415   5.694   1.851   6.915
26725WAT      O80416   1.873   3.144   1.678
26725WAT     H180417   1.838   3.120   1.769
26725WAT     H280418   1.805   3.121   1.609
26726WAT      O80419   7.151   3.631   0.800
26726WAT     H180420   7.091   3.673   0.868
26726WAT     H280421   7.147   3.531   0.809
26727WAT      O80422   9.765   0.726   2.138
26727WAT     H180423   9.808   0.815   2.151
26727WAT     H280424   9.776   0.671   2.221
26728WAT      O80425   4.174   1.412   5.648
26728WAT     H180426   4.229   1.405   5.565
26728WAT     H280427   4.103   1.342   5.647
26729WAT      O80428   5.296   2.305   3.822
26729WAT     H180429   5.208   2.327   3.778
26729WAT     H280430   5.371   2.343   3.768
26730WAT      O80431   1.674   9.134   5.890
26730WAT     H180432   1.677   9.212   5.828
26730WAT     H280433   1.707   9.052   5.842
26731WAT      O80434   6.699   9.129   8.563
26731WAT     H180435   6.613   9.154   8.519
26731WAT     H280436   6.774   9.178   8.518
26732WAT      O80437   5.050   7.878   9.675
26732WAT     H180438   4.989   7.957   9.671
26732WAT     H280439   4.998   7.794   9.661
26733WAT      O80440   9.455   0.982   5.959
26733WAT     H180441   9.421   0.898   5.916
26733WAT     H280442   9.554   0.977   5.968
26734WAT      O80443   3.687   0.063   1.266
26734WAT     H180444   3.716  -0.030   1.246
26734WAT     H280445   3.717   0.124   1.192
26735WAT      O80446   1.925   9.030   2.189
26735WAT     H180447   1.919   9.090   2.269
26735WAT     H280448   1.864   9.065   2.117
26736WAT      O80449   5.405   0.494   1.862
26736WAT     H180450   5.320   0.494   1.915
26736WAT     H280451   5.386   0.456   1.771
26737WAT      O80452   5.004   0.920   5.967
26737WAT     H180453   4.938   0.993   5.949
26737WAT     H280454   4.992   0.847   5.900
26738WAT      O80455   8.538   2.673   1.200
26738WAT     H180456   8.502   2.699   1.290
26738WAT     H280457   8.501   2.735   1.130
26739WAT      O80458   8.792   7.836   9.541
26739WAT     H180459   8.759   7.921   9.582
26739WAT     H280460   8.771   7.760   9.603
26740WAT      O80461   7.718   8.592   2.292
26740WAT     H180462   7.775   8.585   2.374
26740WAT     H280463   7.622   8.594   2.320
26741WAT      O80464   1.816   3.852   5.526
26741WAT     H180465   1.887   3.836   5.595
26741WAT     H280466   1.843   3.929   5.468
26742WAT      O80467   2.999   8.288   3.300
26742WAT     H180468   2.981   8.238   3.216
26742WAT     H280469   3.007   8.386   3.280
26743WAT      O80470   6.861   4.258   0.028
26743WAT     H180471   6.927   4.184   0.042
26743WAT     H280472   6.783   4.224  -0.024
26744WAT      O80473   6.750   2.776   9.869
26744WAT     H180474   6.736   2.834   9.788
26744WAT     H280475   6.666   2.776   9.923
26745WAT      O80476   9.546   6.153   7.480
26745WAT     H180477   9.471   6.112   7.532
26745WAT     H280478   9.570   6.094   7.403
26746WAT      O80479   0.592   0.157   6.478
26746WAT     H180480   0.516   0.153   6.543
26746WAT     H280481   0.555   0.154   6.385
26747WAT      O80482   9.444   2.882   9.367
26747WAT     H180483   9.352   2.859   9.397
26747WAT     H280484   9.511   2.840   9.428
26748WAT      O80485   8.571   5.492   9.777
26748WAT     H180486   8.490   5.449   9.818
26748WAT     H280487   8.572   5.473   9.678
26749WAT      O80488   2.949   1.813   4.520
26749WAT     H180489   3.035   1.763   4.510
26749WAT     H280490   2.931   1.864   4.437
26750WAT      O80491   2.968   0.254   0.001
26750WAT     H180492   3.037   0.190  -0.031
26750WAT     H280493   3.012   0.329   0.050
26751WAT      O80494   6.851   3.087   2.947
26751WAT     H180495   6.871   3.168   3.001
26751WAT     H280496   6.796   3.023   3.001
26752WAT      O80497   9.878   7.806   5.799
26752WAT     H180498   9.828   7.720   5.810
26752WAT     H280499   9.813   7.881   5.788
26753WAT      O80500   5.985   5.332   1.083
26753WAT     H180501   6.057   5.281   1.037
26753WAT     H280502   5.969   5.418   1.037
26754WAT      O80503   3.080   8.652   9.664
26754WAT     H180504   3.017   8.644   9.587
26754WAT     H280505   3.164   8.699   9.634
26755WAT      O80506   3.715   6.344   8.929
26755WAT     H180507   3.632   6.314   8.978
26755WAT     H280508   3.795   6.305   8.974
26756WAT      O80509   3.193   7.264   8.404
26756WAT     H180510   3.131   7.309   8.340
26756WAT     H280511   3.194   7.313   8.491
26757WAT      O80512   4.492   7.627   1.955
26757WAT     H180513   4.536   7.702   2.005
26757WAT     H280514   4.427   7.581   2.015
26758WAT      O80515   1.998   4.173   6.544
26758WAT     H180516   2.034   4.080   6.554
26758WAT     H280517   1.901   4.169   6.520
26759WAT      O80518   9.509   6.403   5.376
26759WAT     H180519   9.530   6.441   5.466
26759WAT     H280520   9.412   6.379   5.371
26760WAT      O80521   5.505   6.124   9.215
26760WAT     H180522   5.591   6.073   9.218
26760WAT     H280523   5.521   6.218   9.244
26761WAT      O80524   4.176   4.088   6.333
26761WAT     H180525   4.147   3.994   6.315
26761WAT     H280526   4.220   4.125   6.251
26762WAT      O80527   7.813   5.654   8.094
26762WAT     H180528   7.826   5.720   8.168
26762WAT     H280529   7.893   5.594   8.088
26763WAT      O80530   4.196   8.352   4.726
26763WAT     H180531   4.177   8.272   4.668
26763WAT     H280532   4.269   8.406   4.685
26764WAT      O80533   8.929   1.962   2.448
26764WAT     H180534   8.915   2.010   2.534
26764WAT     H280535   8.843   1.959   2.397
26765WAT      O80536   2.232   3.799   5.257
26765WAT     H180537   2.167   3.753   5.197
26765WAT     H280538   2.325   3.771   5.234
26766WAT      O80539   9.877   7.972   7.609
26766WAT     H180540   9.836   8.001   7.523
26766WAT     H280541   9.807   7.972   7.681
26767WAT      O80542   0.818   1.303   0.377
26767WAT     H180543   0.858   1.377   0.323
26767WAT     H280544   0.761   1.342   0.450
26768WAT      O80545   5.857   3.135   4.976
26768WAT     H180546   5.916   3.102   4.902
26768WAT     H280547   5.797   3.207   4.941
26769WAT      O80548   4.229   8.292   5.306
26769WAT     H180549   4.309   8.240   5.275
26769WAT     H280550   4.194   8.252   5.391
26770WAT      O80551   4.477   1.213   1.991
26770WAT     H180552   4.469   1.282   1.919
26770WAT     H280553   4.533   1.250   2.066
26771WAT      O80554   6.523   8.253   2.588
26771WAT     H180555   6.496   8.297   2.673
26771WAT     H280556   6.457   8.182   2.565
26772WAT      O80557   0.312   5.708   8.662
26772WAT     H180558   0.283   5.619   8.624
26772WAT     H280559   0.396   5.737   8.617
26773WAT      O80560   7.796   5.414   6.115
26773WAT     H180561   7.714   5.457   6.077
26773WAT     H280562   7.786   5.315   6.113
26774WAT      O80563   7.246   1.744   2.262
26774WAT     H180564   7.340   1.778   2.254
26774WAT     H280565   7.183   1.811   2.224
26775WAT      O80566   3.615   5.199   5.442
26775WAT     H180567   3.605   5.285   5.491
26775WAT     H280568   3.528   5.149   5.442
26776WAT      O80569   7.175   7.761   6.910
26776WAT     H180570   7.143   7.843   6.958
26776WAT     H280571   7.144   7.679   6.959
26777WAT      O80572   0.305   9.510   2.641
26777WAT     H180573   0.236   9.542   2.706
26777WAT     H280574   0.388   9.564   2.650
26778WAT      O80575   7.486   9.022   7.392
26778WAT     H180576   7.388   9.044   7.392
26778WAT     H280577   7.498   8.922   7.391
26779WAT      O80578   6.703   2.745   7.580
26779WAT     H180579   6.615   2.782   7.611
26779WAT     H280580   6.704   2.742   7.480
26780WAT      O80581   5.728   1.119   3.352
26780WAT     H180582   5.635   1.098   3.381
26780WAT     H280583   5.786   1.039   3.368
26781WAT      O80584   9.541   8.695   6.694
26781WAT     H180585   9.588   8.620   6.742
26781WAT     H280586   9.461   8.722   6.746
26782WAT      O80587   8.262   5.427   3.431
26782WAT     H180588   8.213   5.354   3.477
26782WAT     H280589   8.320   5.476   3.497
26783WAT      O80590   8.690   4.307   7.539
26783WAT     H180591   8.739   4.236   7.590
26783WAT     H280592   8.592   4.298   7.557
26784WAT      O80593   4.169   0.932   8.543
26784WAT     H180594   4.217   0.850   8.574
26784WAT     H280595   4.175   0.938   8.443
26785WAT      O80596   5.391   2.623   2.873
26785WAT     H180597   5.302   2.603   2.913
26785WAT     H280598   5.441   2.538   2.857
26786WAT      O80599   8.031   7.173   8.024
26786WAT     H180600   8.062   7.174   8.118
26786WAT     H280601   7.972   7.093   8.009
26787WAT      O80602   5.517   0.814   6.178
26787WAT     H180603   5.424   0.835   6.149
26787WAT     H280604   5.536   0.860   6.265
26788WAT      O80605   0.781   5.845   4.298
26788WAT     H180606   0.817   5.875   4.387
26788WAT     H280607   0.821   5.901   4.226
26789WAT      O80608   3.081   4.977   8.581
26789WAT     H180609   3.075   5.027   8.668
26789WAT     H280610   3.025   4.894   8.587
26790WAT      O80611   9.876   8.689   7.114
26790WAT     H180612   9.909   8.756   7.181
26790WAT     H280613   9.792   8.647   7.147
26791WAT      O80614   2.631   1.589   5.510
26791WAT     H180615   2.675   1.586   5.420
26791WAT     H280616   2.682   1.651   5.570
26792WAT      O80617   7.481   8.138   7.581
26792WAT     H180618   7.556   8.113   7.520
26792WAT     H280619   7.418   8.198   7.533
26793WAT      O80620   4.191   0.385   2.622
26793WAT     H180621   4.137   0.468   2.608
26793WAT     H280622   4.191   0.331   2.537
26794WAT      O80623   5.976   7.306   3.509
26794WAT     H180624   5.979   7.211   3.476
26794WAT     H280625   6.068   7.337   3.532
26795WAT      O80626   8.278   4.066   3.201
26795WAT     H180627   8.205   4.107   3.146
26795WAT     H280628   8.342   4.138   3.230
26796WAT      O80629   3.144   6.964   2.957
26796WAT     H180630   3.243   6.979   2.956
26796WAT     H280631   3.126   6.867   2.975
26797WAT      O80632   2.532   5.840   4.001
26797WAT     H180633   2.541   5.914   4.068
26797WAT     H280634   2.527   5.752   4.048
26798WAT      O80635   6.596   7.989   4.730
26798WAT     H180636   6.694   8.008   4.729
26798WAT     H280637   6.546   8.074   4.743
26799WAT      O80638   3.656   2.865   2.371
26799WAT     H180639   3.647   2.794   2.301
26799WAT     H280640   3.566   2.897   2.398
26800WAT      O80641   2.675   7.547   1.700
26800WAT     H180642   2.683   7.511   1.608
26800WAT     H280643   2.763   7.586   1.728
26801WAT      O80644   9.839   5.278   5.090
26801WAT     H180645   9.850   5.302   4.994
26801WAT     H280646   9.863   5.181   5.103
26802WAT      O80647   0.824   6.627   6.046
26802WAT     H180648   0.760   6.702   6.028
26802WAT     H280649   0.779   6.558   6.102
26803WAT      O80650   2.894   2.599   2.666
26803WAT     H180651   2.865   2.529   2.600
26803WAT     H280652   2.837   2.680   2.655
26804WAT      O80653   4.275   5.793   5.266
26804WAT     H180654   4.301   5.761   5.175
26804WAT     H280655   4.181   5.764   5.285
26805WAT      O80656   1.179   3.429   5.287
26805WAT     H180657   1.190   3.389   5.195
26805WAT     H280658   1.103   3.384   5.333
26806WAT      O80659   6.294   4.421   2.097
26806WAT     H180660   6.372   4.473   2.062
26806WAT     H280661   6.326   4.336   2.138
26807WAT      O80662   9.303   4.197   3.842
26807WAT     H180663   9.233   4.169   3.907
26807WAT     H280664   9.282   4.289   3.808
26808WAT      O80665   8.481   0.842   5.408
26808WAT     H180666   8.525   0.756   5.431
26808WAT     H280667   8.464   0.894   5.492
26809WAT      O80668   6.126   4.640   0.745
26809WAT     H180669   6.082   4.560   0.703
26809WAT     H280670   6.200   4.672   0.686
26810WAT      O80671   4.835   1.115   4.770
26810WAT     H180672   4.746   1.139   4.808
26810WAT     H280673   4.882   1.052   4.832
26811WAT      O80674   7.611   4.836   0.414
26811WAT     H180675   7.520   4.860   0.448
26811WAT     H280676   7.628   4.883   0.327
26812WAT      O80677   7.425   9.338   8.334
26812WAT     H180678   7.446   9.364   8.239
26812WAT     H280679   7.351   9.271   8.334
26813WAT      O80680   0.465   7.814   9.398
26813WAT     H180681   0.555   7.773   9.382
26813WAT     H280682   0.465   7.858   9.488
26814WAT      O80683   5.547   2.168   2.998
26814WAT     H180684   5.643   2.143   3.012
26814WAT     H280685   5.522   2.154   2.903
26815WAT      O80686   2.431   3.103   6.960
26815WAT     H180687   2.531   3.108   6.963
26815WAT     H280688   2.404   3.026   6.903
26816WAT      O80689   6.811   0.466   2.649
26816WAT     H180690   6.782   0.370   2.653
26816WAT     H280691   6.734   0.525   2.674
26817WAT      O80692   4.594   4.662   7.373
26817WAT     H180693   4.514   4.617   7.414
26817WAT     H280694   4.677   4.615   7.404
26818WAT      O80695   3.543   4.616   3.617
26818WAT     H180696   3.547   4.709   3.581
26818WAT     H280697   3.448   4.585   3.617
26819WAT      O80698   8.373   3.066   6.027
26819WAT     H180699   8.429   3.139   6.067
26819WAT     H280700   8.372   2.988   6.089
26820WAT      O80701   3.591   5.762   8.747
26820WAT     H180702   3.553   5.712   8.670
26820WAT     H280703   3.612   5.856   8.719
26821WAT      O80704   3.628   2.543   5.059
26821WAT     H180705   3.560   2.616   5.053
26821WAT     H280706   3.665   2.525   4.967
26822WAT      O80707   1.287   8.527   9.407
26822WAT     H180708   1.295   8.563   9.500
26822WAT     H280709   1.262   8.601   9.344
26823WAT      O80710   0.070   6.679   8.668
26823WAT     H180711   0.057   6.769   8.710
26823WAT     H280712   0.011   6.612   8.713
26824WAT      O80713   0.137   2.769   4.769
26824WAT     H180714   0.218   2.806   4.814
26824WAT     H280715   0.083   2.717   4.835
26825WAT      O80716   3.308   4.096   9.049
26825WAT     H180717   3.357   4.183   9.060
26825WAT     H280718   3.373   4.020   9.056
26826WAT      O80719   4.061   8.571   4.078
26826WAT     H180720   4.127   8.512   4.032
26826WAT     H280721   3.971   8.562   4.035
26827WAT      O80722   4.295   9.166   5.661
26827WAT     H180723   4.352   9.102   5.610
26827WAT     H280724   4.269   9.125   5.748
26828WAT      O80725   3.359   4.817   2.399
26828WAT     H180726   3.346   4.882   2.474
26828WAT     H280727   3.455   4.815   2.372
26829WAT      O80728   4.663   6.264   7.897
26829WAT     H180729   4.640   6.172   7.928
26829WAT     H280730   4.581   6.321   7.899
26830WAT      O80731   0.129   1.833   5.157
26830WAT     H180732   0.217   1.820   5.111
26830WAT     H280733   0.061   1.772   5.117
26831WAT      O80734   0.758   0.503   6.378
26831WAT     H180735   0.660   0.505   6.400
26831WAT     H280736   0.811   0.496   6.463
26832WAT      O80737   2.055   8.244   8.863
26832WAT     H180738   2.016   8.268   8.774
26832WAT     H280739   2.058   8.144   8.872
26833WAT      O80740   2.073   7.762   4.745
26833WAT     H180741   2.027   7.706   4.813
26833WAT     H280742   2.059   7.859   4.767
26834WAT      O80743   1.417   3.058   2.316
26834WAT     H180744   1.352   3.123   2.356
26834WAT     H280745   1.368   2.995   2.256
26835WAT      O80746   7.017   5.563   3.843
26835WAT     H180747   7.089   5.574   3.774
26835WAT     H280748   7.058   5.568   3.935
26836WAT      O80749   1.541   3.945   9.865
26836WAT     H180750   1.555   4.037   9.901
26836WAT     H280751   1.612   3.924   9.798
26837WAT      O80752   7.898   4.191   3.313
26837WAT     H180753   7.876   4.114   3.373
26837WAT     H280754   7.939   4.157   3.228
26838WAT      O80755   7.788   7.772   3.923
26838WAT     H180756   7.756   7.704   3.858
26838WAT     H280757   7.887   7.785   3.912
26839WAT      O80758   7.573   9.555   7.016
26839WAT     H180759   7.530   9.625   6.960
26839WAT     H280760   7.582   9.588   7.110
26840WAT      O80761   6.810   1.244   8.676
26840WAT     H180762   6.845   1.331   8.710
26840WAT     H280763   6.807   1.178   8.752
26841WAT      O80764   1.466   2.144   8.506
26841WAT     H180765   1.552   2.187   8.535
26841WAT     H280766   1.390   2.207   8.523
26842WAT      O80767   6.277   3.271   7.190
26842WAT     H180768   6.239   3.323   7.267
26842WAT     H280769   6.212   3.202   7.161
26843WAT      O80770   3.279   4.322   2.859
26843WAT     H180771   3.335   4.322   2.943
26843WAT     H280772   3.285   4.232   2.816
26844WAT      O80773   6.283   5.321   8.105
26844WAT     H180774   6.305   5.225   8.118
26844WAT     H280775   6.340   5.377   8.165
26845WAT      O80776   8.203   7.915   5.471
26845WAT     H180777   8.252   7.899   5.385
26845WAT     H280778   8.109   7.942   5.452
26846WAT      O80779   3.811   1.770   1.496
26846WAT     H180780   3.723   1.815   1.484
26846WAT     H280781   3.803   1.673   1.472
26847WAT      O80782   4.200   0.306   1.956
26847WAT     H180783   4.269   0.377   1.973
26847WAT     H280784   4.110   0.343   1.979
26848WAT      O80785   8.920   3.367   3.142
26848WAT     H180786   8.870   3.344   3.226
26848WAT     H280787   8.943   3.282   3.094
26849WAT      O80788   3.575   6.360   1.967
26849WAT     H180789   3.585   6.326   2.061
26849WAT     H280790   3.642   6.431   1.949
26850WAT      O80791   1.059   6.550   6.350
26850WAT     H180792   1.062   6.602   6.265
26850WAT     H280793   0.982   6.487   6.349
26851WAT      O80794   1.198   5.062   6.191
26851WAT     H180795   1.263   5.111   6.134
26851WAT     H280796   1.243   5.033   6.275
26852WAT      O80797   3.151   8.480   8.816
26852WAT     H180798   3.084   8.520   8.878
26852WAT     H280799   3.106   8.448   8.733
26853WAT      O80800   9.827   9.062   8.170
26853WAT     H180801   9.896   9.133   8.183
26853WAT     H280802   9.750   9.098   8.118
26854WAT      O80803   8.811   3.500   4.937
26854WAT     H180804   8.877   3.489   4.862
26854WAT     H280805   8.790   3.410   4.976
26855WAT      O80806   8.046   9.293   1.811
26855WAT     H180807   8.041   9.200   1.848
26855WAT     H280808   8.013   9.357   1.880
26856WAT      O80809   1.328   0.657   1.331
26856WAT     H180810   1.323   0.592   1.254
26856WAT     H280811   1.283   0.742   1.305
26857WAT      O80812   0.989   2.842   8.001
26857WAT     H180813   1.053   2.781   7.954
26857WAT     H280814   1.035   2.928   8.023
26858WAT      O80815   5.622   9.094   9.097
26858WAT     H180816   5.718   9.073   9.116
26858WAT     H280817   5.572   9.009   9.080
26859WAT      O80818   9.589   5.616   5.449
26859WAT     H180819   9.612   5.704   5.408
26859WAT     H280820   9.673   5.564   5.466
26860WAT      O80821   0.529   6.517   4.274
26860WAT     H180822   0.545   6.418   4.280
26860WAT     H280823   0.519   6.543   4.177
26861WAT      O80824   7.671   1.569   6.931
26861WAT     H180825   7.715   1.481   6.947
26861WAT     H280826   7.738   1.634   6.895
26862WAT      O80827   3.484   7.950   4.636
26862WAT     H180828   3.570   7.961   4.685
26862WAT     H280829   3.499   7.967   4.538
26863WAT      O80830   7.807   1.130   7.232
26863WAT     H180831   7.898   1.167   7.249
26863WAT     H280832   7.809   1.068   7.154
26864WAT      O80833   0.165   5.904   0.825
26864WAT     H180834   0.229   5.979   0.813
26864WAT     H280835   0.072   5.940   0.835
26865WAT      O80836   6.479   7.595   2.943
26865WAT     H180837   6.575   7.578   2.965
26865WAT     H280838   6.473   7.670   2.877
26866WAT      O80839   7.685   5.623   5.079
26866WAT     H180840   7.667   5.563   5.000
26866WAT     H280841   7.640   5.586   5.160
26867WAT      O80842   6.944   0.534   5.684
26867WAT     H180843   6.952   0.581   5.772
26867WAT     H280844   6.924   0.437   5.700
26868WAT      O80845   9.717   0.990   2.639
26868WAT     H180846   9.708   1.037   2.727
26868WAT     H280847   9.739   1.057   2.568
26869WAT      O80848   8.934   4.218   5.767
26869WAT     H180849   8.954   4.306   5.810
26869WAT     H280850   8.986   4.146   5.813
26870WAT      O80851   8.692   7.188   2.551
26870WAT     H180852   8.680   7.269   2.608
26870WAT     H280853   8.603   7.143   2.538
26871WAT      O80854   0.318   9.613   0.704
26871WAT     H180855   0.262   9.649   0.778
26871WAT     H280856   0.409   9.652   0.708
26872WAT      O80857   9.284   0.514   6.133
26872WAT     H180858   9.264   0.584   6.064
26872WAT     H280859   9.214   0.517   6.205
26873WAT      O80860   6.018   7.815   1.639
26873WAT     H180861   5.957   7.741   1.668
26873WAT     H280862   6.026   7.814   1.539
26874WAT      O80863   2.970   6.152   1.269
26874WAT     H180864   2.929   6.080   1.326
26874WAT     H280865   2.920   6.238   1.283
26875WAT      O80866   8.043   4.776   3.751
26875WAT     H180867   7.997   4.800   3.666
26875WAT     H280868   7.977   4.735   3.815
26876WAT      O80869   4.052   6.082   8.952
26876WAT     H180870   4.147   6.113   8.942
26876WAT     H280871   4.050   5.998   9.007
26877WAT      O80872   5.409   0.144   1.778
26877WAT     H180873   5.370   0.180   1.863
26877WAT     H280874   5.459   0.216   1.730
26878WAT      O80875   4.568   4.231   6.393
26878WAT     H180876   4.593   4.176   6.313
26878WAT     H280877   4.607   4.189   6.475
26879WAT      O80878   5.611   4.070   0.286
26879WAT     H180879   5.571   4.085   0.377
26879WAT     H280880   5.701   4.115   0.282
26880WAT      O80881   5.127   7.935   4.518
26880WAT     H180882   5.116   7.900   4.611
26880WAT     H280883   5.223   7.957   4.501
26881WAT      O80884   9.536   3.612   5.830
26881WAT     H180885   9.558   3.683   5.764
26881WAT     H280886   9.597   3.534   5.817
26882WAT      O80887   2.313   1.875   2.132
26882WAT     H180888   2.329   1.795   2.189
26882WAT     H280889   2.227   1.919   2.157
26883WAT      O80890   1.822   9.190   2.370
26883WAT     H180891   1.843   9.211   2.466
26883WAT     H280892   1.723   9.178   2.360
26884WAT      O80893   4.916   0.317   5.493
26884WAT     H180894   4.860   0.400   5.492
26884WAT     H280895   4.874   0.249   5.552
26885WAT      O80896   1.198   5.009   9.082
26885WAT     H180897   1.133   5.002   9.157
26885WAT     H280898   1.291   5.004   9.118
26886WAT      O80899   8.373   8.957   9.687
26886WAT     H180900   8.396   9.043   9.641
26886WAT     H280901   8.365   8.973   9.785
26887WAT      O80902   3.210   4.782   6.705
26887WAT     H180903   3.244   4.704   6.654
26887WAT     H280904   3.140   4.830   6.651
26888WAT      O80905   4.629   5.604   9.401
26888WAT     H180906   4.723   5.575   9.383
26888WAT     H280907   4.597   5.660   9.325
26889WAT      O80908   3.452   8.223   8.247
26889WAT     H180909   3.502   8.178   8.321
26889WAT     H280910   3.362   8.251   8.279
26890WAT      O80911   5.212   6.356   0.350
26890WAT     H180912   5.281   6.286   0.333
26890WAT     H280913   5.121   6.314   0.350
26891WAT      O80914   9.370   7.130   7.073
26891WAT     H180915   9.426   7.147   6.992
26891WAT     H280916   9.318   7.212   7.096
26892WAT      O80917   0.017   4.911   1.556
26892WAT     H180918  -0.059   4.863   1.598
26892WAT     H280919   0.004   5.010   1.565
26893WAT      O80920   8.816   5.524   2.080
26893WAT     H180921   8.845   5.453   2.144
26893WAT     H280922   8.876   5.603   2.089
26894WAT      O80923   4.855   6.650   4.805
26894WAT     H180924   4.951   6.663   4.784
26894WAT     H280925   4.799   6.693   4.735
26895WAT      O80926   5.969   7.235   7.270
26895WAT     H180927   6.069   7.228   7.272
26895WAT     H280928   5.942   7.331   7.264
26896WAT      O80929   1.946   0.252   3.410
26896WAT     H180930   1.996   0.241   3.496
26896WAT     H280931   1.981   0.332   3.361
26897WAT      O80932   2.542   8.747   8.562
26897WAT     H180933   2.599   8.736   8.644
26897WAT     H280934   2.599   8.783   8.488
26898WAT      O80935   7.789   5.090   1.964
26898WAT     H180936   7.887   5.099   1.951
26898WAT     H280937   7.742   5.108   1.877
26899WAT      O80938   1.869   9.212   8.678
26899WAT     H180939   1.951   9.243   8.726
26899WAT     H280940   1.788   9.247   8.725
26900WAT      O80941   1.798   0.055   9.073
26900WAT     H180942   1.734   0.016   9.140
26900WAT     H280943   1.747   0.107   9.005
26901WAT      O80944   4.139   0.970   8.284
26901WAT     H180945   4.153   0.911   8.205
26901WAT     H280946   4.052   1.018   8.276
26902WAT      O80947   2.104   4.117   2.867
26902WAT     H180948   2.006   4.112   2.886
26902WAT     H280949   2.134   4.213   2.874
26903WAT      O80950   3.985   4.587   3.412
26903WAT     H180951   3.996   4.643   3.494
26903WAT     H280952   4.075   4.565   3.374
26904WAT      O80953   8.482   6.765   9.422
26904WAT     H180954   8.497   6.844   9.362
26904WAT     H280955   8.546   6.768   9.499
26905WAT      O80956   0.809   2.266   9.479
26905WAT     H180957   0.739   2.307   9.421
26905WAT     H280958   0.887   2.328   9.487
26906WAT      O80959   5.595   9.521   8.794
26906WAT     H180960   5.529   9.540   8.721
26906WAT     H280961   5.561   9.446   8.851
26907WAT      O80962   0.924   2.921   1.928
26907WAT     H180963   0.962   2.983   1.997
26907WAT     H280964   0.843   2.876   1.966
26908WAT      O80965   7.616   2.785   1.610
26908WAT     H180966   7.605   2.799   1.709
26908WAT     H280967   7.555   2.848   1.561
26909WAT      O80968   1.126   9.288   4.988
26909WAT     H180969   1.141   9.196   4.952
26909WAT     H280970   1.205   9.346   4.967
26910WAT      O80971   1.980   7.916   7.273
26910WAT     H180972   2.026   7.933   7.185
26910WAT     H280973   2.017   7.832   7.314
26911WAT      O80974   9.720   0.468   1.926
26911WAT     H180975   9.791   0.511   1.870
26911WAT     H280976   9.689   0.533   1.996
26912WAT      O80977   2.679   3.965   5.658
26912WAT     H180978   2.620   3.943   5.735
26912WAT     H280979   2.631   4.025   5.595
26913WAT      O80980   1.632   1.017   6.986
26913WAT     H180981   1.646   0.990   6.891
26913WAT     H280982   1.534   1.020   7.006
26914WAT      O80983   8.189   8.522   6.222
26914WAT     H180984   8.196   8.619   6.198
26914WAT     H280985   8.228   8.467   6.148
26915WAT      O80986   4.872   2.375   1.010
26915WAT     H180987   4.964   2.362   0.972
26915WAT     H280988   4.880   2.424   1.097
26916WAT      O80989   0.285   7.191   6.917
26916WAT     H180990   0.226   7.128   6.968
26916WAT     H280991   0.326   7.257   6.981
26917WAT      O80992   3.566   1.037   5.226
26917WAT     H180993   3.593   0.953   5.274
26917WAT     H280994   3.467   1.050   5.233
26918WAT      O80995   6.464   6.132   6.439
26918WAT     H180996   6.418   6.162   6.355
26918WAT     H280997   6.410   6.159   6.518
26919WAT      O80998   1.500   4.608   6.857
26919WAT     H180999   1.549   4.615   6.770
26919WAT     H281000   1.565   4.587   6.930
26920WAT      O81001   5.484   7.584   8.205
26920WAT     H181002   5.437   7.589   8.116
26920WAT     H281003   5.487   7.489   8.235
26921WAT      O81004   4.261   9.020   1.433
26921WAT     H181005   4.227   9.051   1.522
26921WAT     H281006   4.185   8.983   1.380
26922WAT      O81007   1.144   7.915   6.874
26922WAT     H181008   1.184   8.006   6.868
26922WAT     H281009   1.206   7.855   6.926
26923WAT      O81010   5.517   9.090   0.874
26923WAT     H181011   5.605   9.129   0.903
26923WAT     H281012   5.523   8.990   0.875
26924WAT      O81013   1.783   0.417   9.559
26924WAT     H181014   1.826   0.333   9.591
26924WAT     H281015   1.718   0.449   9.628
26925WAT      O81016   9.176   8.555   1.358
26925WAT     H181017   9.271   8.528   1.369
26925WAT     H281018   9.144   8.598   1.443
26926WAT      O81019   5.702   4.821   8.863
26926WAT     H181020   5.727   4.840   8.768
26926WAT     H281021   5.782   4.789   8.914
26927WAT      O81022   2.950   6.999   0.677
26927WAT     H181023   3.002   6.947   0.745
26927WAT     H281024   2.852   6.984   0.692
26928WAT      O81025   9.329   1.430   8.015
26928WAT     H181026   9.422   1.399   7.993
26928WAT     H281027   9.331   1.488   8.096
26929WAT      O81028   7.499   7.760   2.307
26929WAT     H181029   7.522   7.842   2.254
26929WAT     H281030   7.584   7.715   2.337
26930WAT      O81031   9.868   2.496   4.368
26930WAT     H181032   9.913   2.553   4.437
26930WAT     H281033   9.830   2.414   4.412
26931WAT      O81034   2.703   2.139   4.201
26931WAT     H181035   2.760   2.056   4.198
26931WAT     H281036   2.607   2.112   4.205
26932WAT      O81037   8.415   8.508   8.059
26932WAT     H181038   8.442   8.603   8.041
26932WAT     H281039   8.328   8.507   8.107
26933WAT      O81040   1.768   0.120   7.330
26933WAT     H181041   1.808   0.173   7.256
26933WAT     H281042   1.723   0.039   7.293
26934WAT      O81043   7.445   5.794   4.829
26934WAT     H181044   7.373   5.750   4.882
26934WAT     H281045   7.458   5.745   4.742
26935WAT      O81046   7.232   1.413   6.565
26935WAT     H181047   7.133   1.408   6.554
26935WAT     H281048   7.265   1.503   6.536
26936WAT      O81049   6.459   7.067   0.502
26936WAT     H181050   6.425   6.973   0.504
26936WAT     H281051   6.401   7.122   0.442
26937WAT      O81052   7.964   9.223   1.568
26937WAT     H181053   7.966   9.260   1.661
26937WAT     H281054   8.015   9.284   1.507
26938WAT      O81055   7.359   5.693   7.804
26938WAT     H181056   7.325   5.612   7.852
26938WAT     H281057   7.281   5.742   7.764
26939WAT      O81058   2.380   8.067   2.633
26939WAT     H181059   2.322   8.145   2.608
26939WAT     H281060   2.454   8.058   2.566
26940WAT      O81061   0.622   3.444   3.548
26940WAT     H181062   0.647   3.481   3.638
26940WAT     H281063   0.646   3.347   3.544
26941WAT      O81064   3.773   6.353   8.464
26941WAT     H181065   3.842   6.281   8.462
26941WAT     H281066   3.798   6.425   8.400
26942WAT      O81067   4.599   8.222   4.597
26942WAT     H181068   4.672   8.280   4.635
26942WAT     H281069   4.640   8.140   4.556
26943WAT      O81070   1.608   0.805   5.644
26943WAT     H181071   1.649   0.891   5.675
26943WAT     H281072   1.556   0.765   5.720
26944WAT      O81073   6.880   1.829   8.904
26944WAT     H181074   6.955   1.806   8.965
26944WAT     H281075   6.812   1.756   8.906
26945WAT      O81076   6.205   6.822   5.780
26945WAT     H181077   6.285   6.768   5.803
26945WAT     H281078   6.123   6.765   5.784
26946WAT      O81079   9.447   7.136   4.947
26946WAT     H181080   9.482   7.073   4.878
26946WAT     H281081   9.489   7.226   4.936
26947WAT      O81082   0.988   0.893   8.148
26947WAT     H181083   1.006   0.795   8.153
26947WAT     H281084   0.952   0.917   8.058
26948WAT      O81085   5.495   6.013   8.694
26948WAT     H181086   5.544   6.099   8.709
26948WAT     H281087   5.405   6.032   8.656
26949WAT      O81088   0.637   2.660   2.650
26949WAT     H181089   0.572   2.736   2.654
26949WAT     H281090   0.587   2.573   2.648
26950WAT      O81091   0.724   4.404   0.394
26950WAT     H181092   0.766   4.350   0.320
26950WAT     H281093   0.793   4.463   0.435
26951WAT      O81094   9.153   1.330   5.844
26951WAT     H181095   9.126   1.241   5.807
26951WAT     H281096   9.232   1.320   5.904
26952WAT      O81097   5.008   0.846   0.343
26952WAT     H181098   4.974   0.848   0.249
26952WAT     H281099   5.105   0.871   0.344
26953WAT      O81100   3.910   1.969   3.887
26953WAT     H181101   3.844   2.042   3.870
26953WAT     H281102   3.883   1.886   3.838
26954WAT      O81103   9.219   1.457   7.388
26954WAT     H181104   9.247   1.401   7.466
26954WAT     H281105   9.140   1.414   7.343
26955WAT      O81106   9.424   6.703   8.465
26955WAT     H181107   9.502   6.729   8.521
26955WAT     H281108   9.339   6.730   8.512
26956WAT      O81109   0.684   0.771   8.522
26956WAT     H181110   0.693   0.777   8.622
26956WAT     H281111   0.685   0.863   8.483
26957WAT      O81112   7.104   7.170   4.144
26957WAT     H181113   7.028   7.208   4.196
26957WAT     H281114   7.077   7.160   4.049
26958WAT      O81115   3.949   4.539   6.108
26958WAT     H181116   3.904   4.625   6.131
26958WAT     H281117   3.879   4.472   6.081
26959WAT      O81118   0.723   5.140   1.215
26959WAT     H181119   0.747   5.059   1.268
26959WAT     H281120   0.747   5.222   1.267
26960WAT      O81121   8.913   5.930   0.343
26960WAT     H181122   8.863   5.861   0.396
26960WAT     H281123   8.953   5.998   0.405
26961WAT      O81124   1.293   6.678   8.707
26961WAT     H181125   1.357   6.747   8.674
26961WAT     H281126   1.329   6.587   8.687
26962WAT      O81127   5.063   9.674   8.576
26962WAT     H181128   5.114   9.621   8.508
26962WAT     H281129   5.123   9.694   8.653
26963WAT      O81130   1.504   3.823   7.703
26963WAT     H181131   1.589   3.871   7.726
26963WAT     H281132   1.445   3.820   7.783
26964WAT      O81133   6.128   1.474   3.386
26964WAT     H181134   6.141   1.560   3.434
26964WAT     H281135   6.210   1.453   3.331
26965WAT      O81136   8.155   4.751   5.610
26965WAT     H181137   8.129   4.847   5.596
26965WAT     H281138   8.098   4.712   5.683
26966WAT      O81139   0.405   0.537   5.772
26966WAT     H181140   0.416   0.614   5.835
26966WAT     H281141   0.454   0.458   5.807
26967WAT      O81142   9.429   4.212   4.297
26967WAT     H181143   9.434   4.311   4.284
26967WAT     H281144   9.520   4.172   4.287
26968WAT      O81145   0.572   5.853   1.602
26968WAT     H181146   0.482   5.864   1.561
26968WAT     H281147   0.573   5.771   1.660
26969WAT      O81148   5.923   8.221   0.275
26969WAT     H181149   6.016   8.254   0.288
26969WAT     H281150   5.893   8.171   0.357
26970WAT      O81151   5.193   8.018   8.068
26970WAT     H181152   5.158   8.092   8.011
26970WAT     H281153   5.292   8.030   8.082
26971WAT      O81154   2.548   0.430   3.997
26971WAT     H181155   2.572   0.497   4.067
26971WAT     H281156   2.453   0.443   3.969
26972WAT      O81157   3.768   9.682   0.520
26972WAT     H181158   3.746   9.692   0.617
26972WAT     H281159   3.859   9.719   0.503
26973WAT      O81160   6.005   6.472   3.874
26973WAT     H181161   5.918   6.494   3.828
26973WAT     H281162   6.079   6.474   3.807
26974WAT      O81163   2.219   4.777   7.339
26974WAT     H181164   2.298   4.740   7.387
26974WAT     H281165   2.158   4.702   7.313
26975WAT      O81166   3.353   4.460   8.146
26975WAT     H181167   3.353   4.559   8.134
26975WAT     H281168   3.403   4.436   8.229
26976WAT      O81169   9.009   4.428   3.253
26976WAT     H181170   8.911   4.447   3.251
26976WAT     H281171   9.024   4.333   3.282
26977WAT      O81172   7.443   4.439   0.991
26977WAT     H181173   7.414   4.451   0.896
26977WAT     H281174   7.375   4.479   1.052
26978WAT      O81175   3.782   6.049   6.453
26978WAT     H181176   3.822   5.986   6.520
26978WAT     H281177   3.854   6.087   6.396
26979WAT      O81178   9.204   1.584   7.828
26979WAT     H181179   9.158   1.631   7.902
26979WAT     H281180   9.292   1.550   7.860
26980WAT      O81181   1.871   5.606   5.646
26980WAT     H181182   1.810   5.530   5.669
26980WAT     H281183   1.956   5.597   5.699
26981WAT      O81184   1.638   7.657   7.003
26981WAT     H181185   1.540   7.669   7.019
26981WAT     H281186   1.689   7.708   7.072
26982WAT      O81187   5.747   3.070   8.061
26982WAT     H181188   5.656   3.037   8.034
26982WAT     H281189   5.738   3.134   8.137
26983WAT      O81190   8.496   7.735   6.372
26983WAT     H181191   8.450   7.796   6.307
26983WAT     H281192   8.440   7.653   6.386
26984WAT      O81193   9.622   0.911   0.118
26984WAT     H181194   9.637   0.934   0.021
26984WAT     H281195   9.537   0.860   0.127
26985WAT      O81196   7.428   4.539   4.267
26985WAT     H181197   7.480   4.617   4.302
26985WAT     H281198   7.490   4.462   4.252
26986WAT      O81199   6.476   9.494   7.104
26986WAT     H181200   6.432   9.491   7.015
26986WAT     H281201   6.486   9.589   7.134
26987WAT      O81202   1.591   2.804   7.352
26987WAT     H181203   1.588   2.788   7.253
26987WAT     H281204   1.683   2.834   7.378
26988WAT      O81205   6.313   7.355   0.100
26988WAT     H181206   6.411   7.348   0.081
26988WAT     H281207   6.263   7.290   0.044
26989WAT      O81208   3.877   5.729   1.662
26989WAT     H181209   3.936   5.659   1.621
26989WAT     H281210   3.821   5.688   1.734
26990WAT      O81211   0.771   7.609   8.424
26990WAT     H181212   0.822   7.614   8.338
26990WAT     H281213   0.728   7.519   8.432
26991WAT      O81214   3.128   0.198   7.340
26991WAT     H181215   3.048   0.201   7.400
26991WAT     H281216   3.197   0.136   7.380
26992WAT      O81217   5.483   4.496   0.920
26992WAT     H181218   5.540   4.570   0.886
26992WAT     H281219   5.509   4.475   1.014
26993WAT      O81220   3.120   9.584   8.109
26993WAT     H181221   3.047   9.576   8.041
26993WAT     H281222   3.140   9.681   8.125
26994WAT      O81223   0.347   2.856   3.751
26994WAT     H181224   0.304   2.887   3.667
26994WAT     H281225   0.422   2.917   3.775
26995WAT      O81226   9.112   2.387   3.976
26995WAT     H181227   9.128   2.479   4.012
26995WAT     H281228   9.165   2.374   3.892
26996WAT      O81229   0.677   9.764   4.525
26996WAT     H181230   0.691   9.783   4.622
26996WAT     H281231   0.655   9.850   4.478
26997WAT      O81232   9.238   2.756   1.614
26997WAT     H181233   9.155   2.765   1.559
26997WAT     H281234   9.296   2.836   1.601
26998WAT      O81235   6.766   0.800   8.135
26998WAT     H181236   6.711   0.823   8.055
26998WAT     H281237   6.750   0.867   8.208
26999WAT      O81238   2.218   1.068   7.378
26999WAT     H181239   2.313   1.095   7.389
26999WAT     H281240   2.209   1.008   7.298
27000WAT      O81241   6.967   2.959   0.902
27000WAT     H181242   7.043   2.964   0.966
27000WAT     H281243   6.959   3.045   0.852
27001WAT      O81244   0.641   4.355   4.538
27001WAT     H181245   0.734   4.364   4.502
27001WAT     H281246   0.587   4.297   4.476
27002WAT      O81247   0.878   4.323   7.759
27002WAT     H181248   0.943   4.293   7.829
27002WAT     H281249   0.913   4.297   7.669
27003WAT      O81250   1.926   2.712   4.973
27003WAT     H181251   1.880   2.650   5.036
27003WAT     H281252   2.025   2.699   4.979
27004WAT      O81253   1.826   6.282   8.635
27004WAT     H181254   1.751   6.326   8.586
27004WAT     H281255   1.810   6.184   8.640
27005WAT      O81256   9.130   5.203   5.524
27005WAT     H181257   9.123   5.160   5.614
27005WAT     H281258   9.114   5.135   5.453
27006WAT      O81259   6.947   0.732   5.934
27006WAT     H181260   6.942   0.765   6.028
27006WAT     H281261   6.858   0.697   5.907
27007WAT      O81262   3.445   6.294   2.493
27007WAT     H181263   3.397   6.208   2.474
27007WAT     H281264   3.379   6.369   2.496
27008WAT      O81265   4.312   1.198   8.851
27008WAT     H181266   4.301   1.292   8.884
27008WAT     H281267   4.410   1.176   8.847
27009WAT      O81268   0.792   9.689   2.601
27009WAT     H181269   0.843   9.747   2.539
27009WAT     H281270   0.706   9.734   2.626
27010WAT      O81271   2.319   4.297   2.286
27010WAT     H181272   2.412   4.287   2.249
27010WAT     H281273   2.315   4.378   2.344
27011WAT      O81274   4.401   8.766   9.539
27011WAT     H181275   4.310   8.760   9.499
27011WAT     H281276   4.470   8.757   9.467
27012WAT      O81277   9.665   7.993   2.487
27012WAT     H181278   9.739   7.967   2.548
27012WAT     H281279   9.627   8.081   2.516
27013WAT      O81280   7.255   4.401   1.552
27013WAT     H181281   7.240   4.373   1.457
27013WAT     H281282   7.169   4.436   1.590
27014WAT      O81283   4.518   3.357   5.989
27014WAT     H181284   4.575   3.435   6.012
27014WAT     H281285   4.423   3.376   6.015
27015WAT      O81286   8.210   0.505   7.348
27015WAT     H181287   8.164   0.589   7.377
27015WAT     H281288   8.244   0.516   7.254
27016WAT      O81289   0.495   7.223   5.803
27016WAT     H181290   0.545   7.259   5.882
27016WAT     H281291   0.417   7.169   5.836
27017WAT      O81292   4.392   7.309   8.696
27017WAT     H181293   4.362   7.383   8.635
27017WAT     H281294   4.489   7.318   8.714
27018WAT      O81295   0.392   7.592   8.354
27018WAT     H181296   0.328   7.567   8.281
27018WAT     H281297   0.452   7.664   8.321
27019WAT      O81298   5.522   8.402   0.348
27019WAT     H181299   5.611   8.446   0.336
27019WAT     H281300   5.456   8.441   0.284
27020WAT      O81301   6.590   6.242   2.809
27020WAT     H181302   6.563   6.319   2.867
27020WAT     H281303   6.574   6.157   2.858
27021WAT      O81304   7.002   6.489   1.439
27021WAT     H181305   7.011   6.422   1.365
27021WAT     H281306   7.051   6.573   1.415
27022WAT      O81307   7.011   1.217   4.767
27022WAT     H181308   7.056   1.169   4.692
27022WAT     H281309   7.073   1.288   4.803
27023WAT      O81310   3.367   2.963   1.966
27023WAT     H181311   3.314   2.910   2.032
27023WAT     H281312   3.322   3.051   1.950
27024WAT      O81313   3.454   0.704   9.755
27024WAT     H181314   3.458   0.614   9.798
27024WAT     H281315   3.528   0.712   9.687
27025WAT      O81316   2.690   6.917   4.882
27025WAT     H181317   2.746   6.993   4.915
27025WAT     H281318   2.612   6.953   4.832
27026WAT      O81319   9.832   5.884   4.562
27026WAT     H181320   9.768   5.955   4.591
27026WAT     H281321   9.824   5.805   4.623
27027WAT      O81322   5.628   7.393   6.459
27027WAT     H181323   5.700   7.352   6.515
27027WAT     H281324   5.664   7.472   6.410
27028WAT      O81325   6.528   5.173   3.163
27028WAT     H181326   6.599   5.105   3.180
27028WAT     H281327   6.520   5.234   3.242
27029WAT      O81328   2.164   7.742   2.813
27029WAT     H181329   2.143   7.667   2.876
27029WAT     H281330   2.085   7.761   2.755
27030WAT      O81331   6.595   2.331   0.129
27030WAT     H181332   6.509   2.353   0.175
27030WAT     H281333   6.579   2.322   0.031
27031WAT      O81334   3.683   9.680   3.905
27031WAT     H181335   3.739   9.666   3.986
27031WAT     H281336   3.633   9.595   3.884
27032WAT      O81337   9.298   9.590   3.734
27032WAT     H181338   9.234   9.630   3.799
27032WAT     H281339   9.273   9.617   3.641
27033WAT      O81340   8.874   5.742   6.126
27033WAT     H181341   8.821   5.768   6.046
27033WAT     H281342   8.830   5.666   6.172
27034WAT      O81343   4.288   8.175   4.514
27034WAT     H181344   4.306   8.269   4.483
27034WAT     H281345   4.346   8.112   4.462
27035WAT      O81346   2.570   0.474   7.587
27035WAT     H181347   2.551   0.419   7.668
27035WAT     H281348   2.555   0.571   7.608
27036WAT      O81349   2.651   8.383   3.583
27036WAT     H181350   2.746   8.352   3.586
27036WAT     H281351   2.626   8.405   3.489
27037WAT      O81352   5.754   9.356   9.032
27037WAT     H181353   5.737   9.262   9.060
27037WAT     H281354   5.811   9.356   8.950
27038WAT      O81355   7.306   7.374   3.510
27038WAT     H181356   7.372   7.304   3.482
27038WAT     H281357   7.252   7.340   3.587
27039WAT      O81358   5.117   2.583   5.714
27039WAT     H181359   5.061   2.665   5.701
27039WAT     H281360   5.083   2.531   5.792
27040WAT      O81361   8.552   5.669   5.167
27040WAT     H181362   8.452   5.670   5.164
27040WAT     H281363   8.583   5.602   5.234
27041WAT      O81364   8.297   1.613   7.277
27041WAT     H181365   8.386   1.582   7.245
27041WAT     H281366   8.308   1.695   7.334
27042WAT      O81367   1.492   2.475   2.761
27042WAT     H181368   1.522   2.570   2.770
27042WAT     H281369   1.418   2.470   2.694
27043WAT      O81370   2.226   3.789   0.476
27043WAT     H181371   2.293   3.728   0.517
27043WAT     H281372   2.134   3.759   0.501
27044WAT      O81373   5.197   4.541   0.968
27044WAT     H181374   5.201   4.616   1.034
27044WAT     H281375   5.283   4.538   0.916
27045WAT      O81376   2.505   4.706   5.164
27045WAT     H181377   2.576   4.775   5.147
27045WAT     H281378   2.485   4.703   5.262
27046WAT      O81379   2.739   8.242   3.960
27046WAT     H181380   2.813   8.265   4.024
27046WAT     H281381   2.708   8.325   3.913
27047WAT      O81382   1.237   6.912   6.106
27047WAT     H181383   1.283   6.882   6.189
27047WAT     H281384   1.212   7.008   6.115
27048WAT      O81385   6.391   6.957   5.422
27048WAT     H181386   6.463   6.909   5.371
27048WAT     H281387   6.323   6.891   5.454
27049WAT      O81388   7.757   9.270   2.082
27049WAT     H181389   7.833   9.334   2.072
27049WAT     H281390   7.772   9.212   2.162
27050WAT      O81391   5.418   1.029   3.000
27050WAT     H181392   5.375   1.065   3.082
27050WAT     H281393   5.415   1.098   2.927
27051WAT      O81394   6.727   5.645   4.465
27051WAT     H181395   6.645   5.589   4.464
27051WAT     H281396   6.799   5.598   4.516
27052WAT      O81397   7.071   5.541   5.328
27052WAT     H181398   7.093   5.537   5.425
27052WAT     H281399   6.996   5.477   5.309
27053WAT      O81400   6.421   1.480   5.803
27053WAT     H181401   6.470   1.516   5.882
27053WAT     H281402   6.350   1.417   5.833
27054WAT      O81403   5.435   2.295   4.123
27054WAT     H181404   5.371   2.229   4.162
27054WAT     H281405   5.446   2.275   4.025
27055WAT      O81406   9.168   6.291   5.882
27055WAT     H181407   9.225   6.352   5.938
27055WAT     H281408   9.072   6.307   5.903
27056WAT      O81409   8.586   3.553   5.927
27056WAT     H181410   8.596   3.581   5.831
27056WAT     H281411   8.502   3.500   5.938
27057WAT      O81412   5.265   4.364   2.886
27057WAT     H181413   5.186   4.304   2.898
27057WAT     H281414   5.318   4.365   2.971
27058WAT      O81415   2.779   6.866   3.064
27058WAT     H181416   2.774   6.914   2.976
27058WAT     H281417   2.872   6.834   3.080
27059WAT      O81418   2.694   3.683   6.367
27059WAT     H181419   2.689   3.780   6.346
27059WAT     H281420   2.650   3.631   6.294
27060WAT      O81421   2.336   4.160   8.014
27060WAT     H181422   2.274   4.205   7.951
27060WAT     H281423   2.343   4.063   7.990
27061WAT      O81424   7.342   1.544   9.039
27061WAT     H181425   7.414   1.614   9.041
27061WAT     H281426   7.381   1.458   9.004
27062WAT      O81427   0.340   3.227   7.876
27062WAT     H181428   0.328   3.293   7.802
27062WAT     H281429   0.436   3.199   7.881
27063WAT      O81430   7.281   2.707   3.931
27063WAT     H181431   7.308   2.719   4.027
27063WAT     H281432   7.337   2.766   3.873
27064WAT      O81433   8.821   7.156   3.984
27064WAT     H181434   8.722   7.163   3.998
27064WAT     H281435   8.860   7.247   3.976
27065WAT      O81436   7.569   4.789   1.654
27065WAT     H181437   7.497   4.841   1.607
27065WAT     H281438   7.634   4.754   1.587
27066WAT      O81439   7.590   8.906   5.217
27066WAT     H181440   7.492   8.889   5.210
27066WAT     H281441   7.606   9.004   5.221
27067WAT      O81442   6.234   3.986   0.902
27067WAT     H181443   6.247   4.021   0.995
27067WAT     H281444   6.291   3.904   0.890
27068WAT      O81445   5.082   1.065   3.665
27068WAT     H181446   5.027   1.007   3.725
27068WAT     H281447   5.032   1.081   3.579
27069WAT      O81448   0.094   3.161   9.421
27069WAT     H181449   0.131   3.206   9.340
27069WAT     H281450  -0.004   3.181   9.429
27070WAT      O81451   9.886   6.188   3.142
27070WAT     H181452   9.965   6.129   3.126
27070WAT     H281453   9.848   6.169   3.232
27071WAT      O81454   2.784   0.851   5.760
27071WAT     H181455   2.825   0.885   5.676
27071WAT     H281456   2.692   0.816   5.740
27072WAT      O81457   8.972   3.371   2.472
27072WAT     H181458   8.940   3.429   2.547
27072WAT     H281459   8.900   3.364   2.402
27073WAT      O81460   6.069   1.263   6.603
27073WAT     H181461   5.988   1.241   6.549
27073WAT     H281462   6.042   1.294   6.694
27074WAT      O81463   2.906   7.589   1.835
27074WAT     H181464   2.970   7.578   1.759
27074WAT     H281465   2.925   7.675   1.883
27075WAT      O81466   2.046   3.277   0.845
27075WAT     H181467   2.062   3.337   0.767
27075WAT     H281468   1.951   3.285   0.874
27076WAT      O81469   9.748   3.464   5.481
27076WAT     H181470   9.777   3.408   5.403
27076WAT     H281471   9.809   3.543   5.489
27077WAT      O81472   4.407   2.551   9.829
27077WAT     H181473   4.478   2.600   9.879
27077WAT     H281474   4.372   2.476   9.885
27078WAT      O81475   2.271   4.196   6.750
27078WAT     H181476   2.300   4.289   6.728
27078WAT     H281477   2.290   4.136   6.672
27079WAT      O81478   7.036   2.075   1.012
27079WAT     H181479   7.044   1.978   0.989
27079WAT     H281480   7.015   2.128   0.929
27080WAT      O81481   3.937   0.702   7.542
27080WAT     H181482   3.960   0.624   7.601
27080WAT     H281483   4.013   0.767   7.541
27081WAT      O81484   5.781   3.631   6.636
27081WAT     H181485   5.700   3.667   6.682
27081WAT     H281486   5.861   3.685   6.662
27082WAT      O81487   7.876   5.809   5.839
27082WAT     H181488   7.838   5.899   5.816
27082WAT     H281489   7.814   5.738   5.805
27083WAT      O81490   1.174   1.307   6.114
27083WAT     H181491   1.216   1.216   6.116
27083WAT     H281492   1.246   1.377   6.118
27084WAT      O81493   6.774   0.993   5.471
27084WAT     H181494   6.792   0.895   5.479
27084WAT     H281495   6.856   1.040   5.437
27085WAT      O81496   3.724   4.291   5.365
27085WAT     H181497   3.645   4.344   5.334
27085WAT     H281498   3.804   4.352   5.374
27086WAT      O81499   0.744   1.396   7.565
27086WAT     H181500   0.769   1.493   7.557
27086WAT     H281501   0.819   1.340   7.531
27087WAT      O81502   5.551   2.864   5.091
27087WAT     H181503   5.603   2.913   5.160
27087WAT     H281504   5.607   2.849   5.010
27088WAT      O81505   9.031   0.311   5.503
27088WAT     H181506   9.094   0.337   5.576
27088WAT     H281507   8.954   0.375   5.502
27089WAT      O81508   5.351   5.948   0.713
27089WAT     H181509   5.443   5.982   0.735
27089WAT     H281510   5.358   5.857   0.672
27090WAT      O81511   1.833   3.082   0.344
27090WAT     H181512   1.839   2.982   0.334
27090WAT     H281513   1.794   3.103   0.434
27091WAT      O81514   7.855   6.689   2.343
27091WAT     H181515   7.842   6.691   2.244
27091WAT     H281516   7.880   6.780   2.375
27092WAT      O81517   5.629   4.944   1.873
27092WAT     H181518   5.710   4.887   1.884
27092WAT     H281519   5.548   4.887   1.863
27093WAT      O81520   3.232   0.312   8.404
27093WAT     H181521   3.201   0.290   8.497
27093WAT     H281522   3.328   0.339   8.407
27094WAT      O81523   5.434   9.499   6.374
27094WAT     H181524   5.478   9.412   6.354
27094WAT     H281525   5.369   9.488   6.449
27095WAT      O81526   2.361   7.525   1.137
27095WAT     H181527   2.356   7.473   1.223
27095WAT     H281528   2.364   7.461   1.060
27096WAT      O81529   4.024   8.306   2.908
27096WAT     H181530   4.027   8.207   2.926
27096WAT     H281531   4.039   8.323   2.811
27097WAT      O81532   8.994   3.694   1.261
27097WAT     H181533   9.042   3.782   1.263
27097WAT     H281534   8.981   3.666   1.165
27098WAT      O81535   5.114   8.331   1.263
27098WAT     H181536   5.042   8.376   1.212
27098WAT     H281537   5.169   8.274   1.202
27099WAT      O81538   1.013   2.114   1.194
27099WAT     H181539   0.930   2.119   1.249
27099WAT     H281540   1.018   2.194   1.134
27100WAT      O81541   6.430   0.774   3.419
27100WAT     H181542   6.409   0.825   3.336
27100WAT     H281543   6.397   0.824   3.499
27101WAT      O81544   1.663   1.079   8.631
27101WAT     H181545   1.597   1.070   8.557
27101WAT     H281546   1.756   1.062   8.596
27102WAT      O81547   3.643   7.108   9.185
27102WAT     H181548   3.683   7.136   9.098
27102WAT     H281549   3.611   7.188   9.235
27103WAT      O81550   9.465   1.722   9.764
27103WAT     H181551   9.545   1.665   9.746
27103WAT     H281552   9.383   1.665   9.763
27104WAT      O81553   4.432   3.736   7.898
27104WAT     H181554   4.471   3.690   7.979
27104WAT     H281555   4.343   3.775   7.922
27105WAT      O81556   5.941   5.000   9.451
27105WAT     H181557   6.033   5.002   9.489
27105WAT     H281558   5.875   4.984   9.525
27106WAT      O81559   6.405   5.560   7.498
27106WAT     H181560   6.401   5.462   7.519
27106WAT     H281561   6.335   5.581   7.429
27107WAT      O81562   7.549   1.591   4.878
27107WAT     H181563   7.483   1.633   4.940
27107WAT     H281564   7.578   1.502   4.915
27108WAT      O81565   7.727   6.579   4.365
27108WAT     H181566   7.647   6.608   4.313
27108WAT     H281567   7.756   6.489   4.334
27109WAT      O81568   3.560   8.201   2.571
27109WAT     H181569   3.500   8.131   2.532
27109WAT     H281570   3.511   8.252   2.642
27110WAT      O81571   1.486   3.883   0.678
27110WAT     H181572   1.418   3.812   0.658
27110WAT     H281573   1.455   3.937   0.756
27111WAT      O81574   6.303   6.693   0.257
27111WAT     H181575   6.336   6.608   0.215
27111WAT     H281576   6.204   6.697   0.250
27112WAT      O81577   3.885   7.241   4.619
27112WAT     H181578   3.939   7.315   4.579
27112WAT     H281579   3.935   7.154   4.609
27113WAT      O81580   0.942   7.770   3.757
27113WAT     H181581   0.848   7.736   3.763
27113WAT     H281582   1.001   7.699   3.719
27114WAT      O81583   4.760   3.197   8.937
27114WAT     H181584   4.833   3.162   8.878
27114WAT     H281585   4.799   3.242   9.017
27115WAT      O81586   7.210   0.649   7.766
27115WAT     H181587   7.235   0.631   7.861
27115WAT     H281588   7.124   0.699   7.762
27116WAT      O81589   7.893   3.594   7.496
27116WAT     H181590   7.941   3.608   7.583
27116WAT     H281591   7.795   3.593   7.512
27117WAT      O81592   2.251   9.236   9.526
27117WAT     H181593   2.211   9.319   9.488
27117WAT     H281594   2.181   9.184   9.575
27118WAT      O81595   1.024   0.574   5.937
27118WAT     H181596   1.042   0.545   6.031
27118WAT     H281597   0.940   0.532   5.904
27119WAT      O81598   5.155   8.075   6.622
27119WAT     H181599   5.180   7.986   6.659
27119WAT     H281600   5.083   8.116   6.678
27120WAT      O81601   5.905   7.002   9.201
27120WAT     H181602   5.822   7.047   9.169
27120WAT     H281603   5.985   7.053   9.169
27121WAT      O81604   0.216   9.437   4.624
27121WAT     H181605   0.290   9.504   4.625
27121WAT     H281606   0.212   9.390   4.713
27122WAT      O81607   1.439   8.982   6.639
27122WAT     H181608   1.379   9.061   6.633
27122WAT     H281609   1.500   8.980   6.559
27123WAT      O81610   7.512   4.115   1.431
27123WAT     H181611   7.573   4.176   1.480
27123WAT     H281612   7.510   4.140   1.334
27124WAT      O81613   0.738   1.882   3.625
27124WAT     H181614   0.763   1.801   3.678
27124WAT     H281615   0.813   1.906   3.564
27125WAT      O81616   5.027   1.186   4.187
27125WAT     H181617   5.079   1.156   4.267
27125WAT     H281618   4.945   1.130   4.178
27126WAT      O81619   2.337   2.980   8.266
27126WAT     H181620   2.293   2.995   8.355
27126WAT     H281621   2.377   2.888   8.264
27127WAT      O81622   9.843   1.445   0.735
27127WAT     H181623   9.938   1.458   0.761
27127WAT     H281624   9.821   1.348   0.733
27128WAT      O81625   7.526   8.725   4.027
27128WAT     H181626   7.607   8.776   3.998
27128WAT     H281627   7.470   8.703   3.947
27129WAT      O81628   4.454   5.115   7.602
27129WAT     H181629   4.540   5.079   7.637
27129WAT     H281630   4.446   5.212   7.627
27130WAT      O81631   5.317   1.383   9.445
27130WAT     H181632   5.226   1.416   9.469
27130WAT     H281633   5.385   1.452   9.469
27131WAT      O81634   1.643   5.885   6.297
27131WAT     H181635   1.616   5.850   6.208
27131WAT     H281636   1.622   5.983   6.302
27132WAT      O81637   6.071   2.946   7.547
27132WAT     H181638   6.164   2.930   7.515
27132WAT     H281639   6.059   2.905   7.638
27133WAT      O81640   7.739   7.254   3.386
27133WAT     H181641   7.724   7.276   3.289
27133WAT     H281642   7.713   7.333   3.442
27134WAT      O81643   2.718   3.987   0.728
27134WAT     H181644   2.729   3.960   0.823
27134WAT     H281645   2.800   3.962   0.676
27135WAT      O81646   2.182   7.510   8.304
27135WAT     H181647   2.127   7.594   8.301
27135WAT     H281648   2.270   7.527   8.259
27136WAT      O81649   3.145   5.113   5.540
27136WAT     H181650   3.098   5.197   5.567
27136WAT     H281651   3.135   5.044   5.612
27137WAT      O81652   0.935   3.637   0.077
27137WAT     H181653   0.898   3.549   0.108
27137WAT     H281654   0.929   3.703   0.152
27138WAT      O81655   2.865   6.723   2.617
27138WAT     H181656   2.800   6.666   2.669
27138WAT     H281657   2.890   6.803   2.672
27139WAT      O81658   6.760   5.320   1.888
27139WAT     H181659   6.785   5.413   1.861
27139WAT     H281660   6.665   5.318   1.917
27140WAT      O81661   5.561   1.734   4.664
27140WAT     H181662   5.589   1.760   4.756
27140WAT     H281663   5.482   1.673   4.670
27141WAT      O81664   3.415   2.862   0.148
27141WAT     H181665   3.450   2.867   0.241
27141WAT     H281666   3.335   2.921   0.139
27142WAT      O81667   8.955   3.486   4.703
27142WAT     H181668   9.021   3.447   4.639
27142WAT     H281669   8.963   3.586   4.703
27143WAT      O81670   2.493   9.374   8.172
27143WAT     H181671   2.546   9.456   8.150
27143WAT     H281672   2.404   9.379   8.128
27144WAT      O81673   3.841   4.720   3.659
27144WAT     H181674   3.817   4.783   3.733
27144WAT     H281675   3.778   4.642   3.660
27145WAT      O81676   5.832   2.903   3.605
27145WAT     H181677   5.739   2.938   3.616
27145WAT     H281678   5.898   2.974   3.630
27146WAT      O81679   0.767   5.954   1.813
27146WAT     H181680   0.712   5.932   1.732
27146WAT     H281681   0.734   5.900   1.891
27147WAT      O81682   8.200   6.311   1.164
27147WAT     H181683   8.277   6.368   1.136
27147WAT     H281684   8.163   6.345   1.250
27148WAT      O81685   1.597   6.359   9.873
27148WAT     H181686   1.580   6.263   9.895
27148WAT     H281687   1.525   6.392   9.811
27149WAT      O81688   8.797   0.478   9.531
27149WAT     H181689   8.706   0.454   9.497
27149WAT     H281690   8.845   0.394   9.558
27150WAT      O81691   2.745   8.469   7.313
27150WAT     H181692   2.830   8.509   7.348
27150WAT     H281693   2.696   8.537   7.258
27151WAT      O81694   5.884   4.992   3.514
27151WAT     H181695   5.980   4.976   3.539
27151WAT     H281696   5.879   5.019   3.418
27152WAT      O81697   4.755   2.364   2.336
27152WAT     H181698   4.713   2.323   2.417
27152WAT     H281699   4.689   2.366   2.261
27153WAT      O81700   8.630   5.711   0.041
27153WAT     H181701   8.594   5.645  -0.024
27153WAT     H281702   8.672   5.663   0.118
27154WAT      O81703   4.616   4.471   5.261
27154WAT     H181704   4.648   4.377   5.255
27154WAT     H281705   4.516   4.472   5.268
27155WAT      O81706   4.543   2.622   8.901
27155WAT     H181707   4.582   2.711   8.879
27155WAT     H281708   4.594   2.550   8.854
27156WAT      O81709   1.462   3.411   2.599
27156WAT     H181710   1.529   3.343   2.571
27156WAT     H281711   1.371   3.382   2.569
27157WAT      O81712   2.012   6.783   9.553
27157WAT     H181713   1.919   6.817   9.536
27157WAT     H281714   2.079   6.848   9.516
27158WAT      O81715   8.768   6.999   8.762
27158WAT     H181716   8.699   6.968   8.697
27158WAT     H281717   8.853   7.020   8.713
27159WAT      O81718   7.072   0.697   0.737
27159WAT     H181719   6.975   0.721   0.735
27159WAT     H281720   7.124   0.773   0.776
27160WAT      O81721   0.639   6.805   7.809
27160WAT     H181722   0.729   6.816   7.767
27160WAT     H281723   0.574   6.772   7.739
27161WAT      O81724   3.478   4.010   2.697
27161WAT     H181725   3.388   4.001   2.655
27161WAT     H281726   3.485   3.947   2.775
27162WAT      O81727   1.124   6.058   3.065
27162WAT     H181728   1.157   5.967   3.092
27162WAT     H281729   1.031   6.050   3.030
27163WAT      O81730   3.894   2.162   0.728
27163WAT     H181731   3.989   2.151   0.757
27163WAT     H281732   3.852   2.072   0.715
27164WAT      O81733   7.146   2.010   4.597
27164WAT     H181734   7.046   2.020   4.595
27164WAT     H281735   7.171   1.937   4.660
27165WAT      O81736   4.974   1.798   7.741
27165WAT     H181737   5.065   1.828   7.710
27165WAT     H281738   4.917   1.777   7.662
27166WAT      O81739   6.007   3.759   6.711
27166WAT     H181740   6.092   3.723   6.671
27166WAT     H281741   5.977   3.839   6.659
27167WAT      O81742   2.357   5.136   9.417
27167WAT     H181743   2.272   5.109   9.464
27167WAT     H281744   2.410   5.054   9.396
27168WAT      O81745   9.228   3.422   3.871
27168WAT     H181746   9.177   3.505   3.893
27168WAT     H281747   9.189   3.380   3.789
27169WAT      O81748   3.868   0.648   8.819
27169WAT     H181749   3.852   0.703   8.900
27169WAT     H281750   3.949   0.591   8.832
27170WAT      O81751   4.889   4.054   6.628
27170WAT     H181752   4.915   4.132   6.685
27170WAT     H281753   4.951   3.978   6.646
27171WAT      O81754   6.938   8.275   9.773
27171WAT     H181755   6.945   8.175   9.769
27171WAT     H281756   6.901   8.303   9.861
27172WAT      O81757   5.828   7.315   9.311
27172WAT     H181758   5.765   7.286   9.239
27172WAT     H281759   5.802   7.274   9.398
27173WAT      O81760   1.037   7.255   0.743
27173WAT     H181761   1.027   7.355   0.751
27173WAT     H281762   0.969   7.220   0.678
27174WAT      O81763   0.660   9.697   3.724
27174WAT     H181764   0.754   9.733   3.718
27174WAT     H281765   0.596   9.770   3.701
27175WAT      O81766   5.460   6.242   3.481
27175WAT     H181767   5.518   6.295   3.419
27175WAT     H281768   5.493   6.148   3.486
27176WAT      O81769   8.981   9.118   3.320
27176WAT     H181770   9.016   9.120   3.226
27176WAT     H281771   9.044   9.167   3.380
27177WAT      O81772   9.334   3.784   2.547
27177WAT     H181773   9.330   3.864   2.486
27177WAT     H281774   9.429   3.755   2.557
27178WAT      O81775   6.773   1.210   6.278
27178WAT     H181776   6.866   1.200   6.242
27178WAT     H281777   6.775   1.276   6.354
27179WAT      O81778   6.110   7.046   7.666
27179WAT     H181779   6.193   7.100   7.660
27179WAT     H281780   6.081   7.018   7.574
27180WAT      O81781   3.748   4.215   8.573
27180WAT     H181782   3.746   4.244   8.477
27180WAT     H281783   3.664   4.165   8.594
27181WAT      O81784   5.137   6.234   8.893
27181WAT     H181785   5.065   6.165   8.883
27181WAT     H281786   5.216   6.193   8.939
27182WAT      O81787   6.637   1.875   0.034
27182WAT     H181788   6.643   1.775   0.025
27182WAT     H281789   6.705   1.906   0.100
27183WAT      O81790   3.851   9.228   8.011
27183WAT     H181791   3.865   9.261   7.918
27183WAT     H281792   3.791   9.292   8.060
27184WAT      O81793   5.052   5.760   1.651
27184WAT     H181794   5.131   5.701   1.674
27184WAT     H281795   5.081   5.855   1.653
27185WAT      O81796   4.396   0.498   8.760
27185WAT     H181797   4.486   0.541   8.751
27185WAT     H281798   4.337   0.530   8.686
27186WAT      O81799   9.779   4.192   8.789
27186WAT     H181800   9.815   4.254   8.720
27186WAT     H281801   9.719   4.242   8.852
27187WAT      O81802   3.284   9.458   0.955
27187WAT     H181803   3.248   9.503   1.036
27187WAT     H281804   3.217   9.463   0.881
27188WAT      O81805   2.234   5.009   1.743
27188WAT     H181806   2.191   5.020   1.833
27188WAT     H281807   2.259   4.913   1.729
27189WAT      O81808   2.247   2.082   5.834
27189WAT     H181809   2.207   2.048   5.919
27189WAT     H281810   2.255   2.181   5.838
27190WAT      O81811   1.991   1.807   7.371
27190WAT     H181812   2.083   1.779   7.395
27190WAT     H281813   1.939   1.827   7.454
27191WAT      O81814   0.228   7.571   3.395
27191WAT     H181815   0.168   7.632   3.344
27191WAT     H281816   0.306   7.623   3.430
27192WAT      O81817   5.321   8.963   2.050
27192WAT     H181818   5.410   9.007   2.052
27192WAT     H281819   5.305   8.916   2.136
27193WAT      O81820   0.556   6.108   2.178
27193WAT     H181821   0.465   6.139   2.205
27193WAT     H281822   0.589   6.041   2.243
27194WAT      O81823   2.865   2.647   6.709
27194WAT     H181824   2.839   2.550   6.703
27194WAT     H281825   2.791   2.699   6.751
27195WAT      O81826   3.522   0.542   6.180
27195WAT     H181827   3.522   0.452   6.138
27195WAT     H281828   3.428   0.572   6.196
27196WAT      O81829   1.941   4.175   5.709
27196WAT     H181830   1.918   4.181   5.806
27196WAT     H281831   1.868   4.215   5.654
27197WAT      O81832   1.200   4.640   0.082
27197WAT     H181833   1.266   4.594   0.023
27197WAT     H281834   1.112   4.646   0.035
27198WAT      O81835   8.018   0.967   4.960
27198WAT     H181836   8.005   0.903   5.036
27198WAT     H281837   7.929   0.990   4.920
27199WAT      O81838   4.561   6.379   0.230
27199WAT     H181839   4.628   6.305   0.220
27199WAT     H281840   4.480   6.358   0.175
27200WAT      O81841   0.738   0.290   9.314
27200WAT     H181842   0.669   0.360   9.298
27200WAT     H281843   0.716   0.239   9.397
27201WAT      O81844   6.371   2.242   5.473
27201WAT     H181845   6.364   2.254   5.572
27201WAT     H281846   6.314   2.165   5.444
27202WAT      O81847   8.128   0.638   6.184
27202WAT     H181848   8.126   0.573   6.108
27202WAT     H281849   8.205   0.617   6.244
27203WAT      O81850   8.840   8.498   9.831
27203WAT     H181851   8.778   8.430   9.870
27203WAT     H281852   8.909   8.523   9.898
27204WAT      O81853   8.940   0.693   6.432
27204WAT     H181854   8.986   0.711   6.345
27204WAT     H281855   8.945   0.775   6.490
27205WAT      O81856   3.898   7.522   0.085
27205WAT     H181857   3.830   7.555   0.020
27205WAT     H281858   3.858   7.521   0.177
27206WAT      O81859   0.051   4.592   2.969
27206WAT     H181860  -0.043   4.585   2.938
27206WAT     H281861   0.072   4.517   3.031
27207WAT      O81862   9.753   2.922   7.719
27207WAT     H181863   9.793   2.912   7.810
27207WAT     H281864   9.826   2.917   7.650
27208WAT      O81865   2.303   3.695   1.738
27208WAT     H181866   2.252   3.631   1.680
27208WAT     H281867   2.281   3.789   1.712
27209WAT      O81868   8.957   0.652   7.110
27209WAT     H181869   8.857   0.650   7.118
27209WAT     H281870   8.991   0.559   7.098
27210WAT      O81871   9.287   6.674   2.875
27210WAT     H181872   9.272   6.684   2.973
27210WAT     H281873   9.370   6.723   2.849
27211WAT      O81874   0.727   5.269   8.178
27211WAT     H181875   0.807   5.212   8.194
27211WAT     H281876   0.746   5.362   8.207
27212WAT      O81877   0.765   2.244   3.233
27212WAT     H181878   0.737   2.234   3.138
27212WAT     H281879   0.864   2.237   3.240
27213WAT      O81880   2.724   9.714   5.795
27213WAT     H181881   2.811   9.673   5.767
27213WAT     H281882   2.663   9.718   5.716
27214WAT      O81883   0.653   8.099   6.755
27214WAT     H181884   0.723   8.089   6.684
27214WAT     H281885   0.696   8.091   6.845
27215WAT      O81886   7.586   5.241   8.889
27215WAT     H181887   7.635   5.325   8.867
27215WAT     H281888   7.640   5.163   8.858
27216WAT      O81889   8.299   4.689   4.224
27216WAT     H181890   8.339   4.770   4.183
27216WAT     H281891   8.205   4.677   4.191
27217WAT      O81892   2.255   8.760   7.198
27217WAT     H181893   2.213   8.838   7.244
27217WAT     H281894   2.338   8.733   7.248
27218WAT      O81895   5.757   0.794   6.012
27218WAT     H181896   5.670   0.792   6.060
27218WAT     H281897   5.795   0.702   6.008
27219WAT      O81898   1.445   4.661   1.912
27219WAT     H181899   1.492   4.590   1.963
27219WAT     H281900   1.347   4.641   1.910
27220WAT      O81901   9.036   5.960   4.849
27220WAT     H181902   9.036   5.918   4.758
27220WAT     H281903   8.994   6.051   4.843
27221WAT      O81904   0.225   9.307   6.173
27221WAT     H181905   0.162   9.349   6.239
27221WAT     H281906   0.273   9.379   6.123
27222WAT      O81907   1.199   8.517   4.027
27222WAT     H181908   1.195   8.476   3.936
27222WAT     H281909   1.188   8.616   4.018
27223WAT      O81910   1.637   8.286   1.566
27223WAT     H181911   1.703   8.213   1.546
27223WAT     H281912   1.677   8.351   1.629
27224WAT      O81913   5.957   8.093   9.202
27224WAT     H181914   5.987   8.181   9.164
27224WAT     H281915   5.887   8.053   9.143
27225WAT      O81916   1.140   9.131   8.102
27225WAT     H181917   1.159   9.109   8.006
27225WAT     H281918   1.127   9.229   8.111
27226WAT      O81919   4.712   7.461   1.866
27226WAT     H181920   4.658   7.544   1.848
27226WAT     H281921   4.703   7.399   1.788
27227WAT      O81922   0.748   6.516   4.056
27227WAT     H181923   0.654   6.491   4.031
27227WAT     H281924   0.747   6.574   4.137
27228WAT      O81925   0.402   6.308   3.636
27228WAT     H181926   0.461   6.388   3.647
27228WAT     H281927   0.430   6.257   3.555
27229WAT      O81928   5.873   4.214   7.531
27229WAT     H181929   5.777   4.238   7.546
27229WAT     H281930   5.880   4.154   7.451
27230WAT      O81931   3.195   7.882   0.812
27230WAT     H181932   3.282   7.931   0.809
27230WAT     H281933   3.135   7.925   0.879
27231WAT      O81934   1.583   7.686   4.432
27231WAT     H181935   1.610   7.783   4.432
27231WAT     H281936   1.536   7.665   4.346
27232WAT      O81937   1.830   3.938   2.610
27232WAT     H181938   1.926   3.960   2.628
27232WAT     H281939   1.822   3.894   2.520
27233WAT      O81940  -0.004   3.258   1.939
27233WAT     H181941   0.049   3.214   1.866
27233WAT     H281942   0.048   3.256   2.024
27234WAT      O81943   2.502   3.808   2.545
27234WAT     H181944   2.542   3.814   2.636
27234WAT     H281945   2.518   3.893   2.496
27235WAT      O81946   0.031   6.929   4.897
27235WAT     H181947   0.084   6.925   4.812
27235WAT     H281948   0.088   6.968   4.970
27236WAT      O81949   5.285   3.215   0.095
27236WAT     H181950   5.214   3.155   0.056
27236WAT     H281951   5.328   3.170   0.173
27237WAT      O81952   3.679   7.583   9.804
27237WAT     H181953   3.629   7.513   9.754
27237WAT     H281954   3.680   7.668   9.751
27238WAT      O81955   9.613   2.680   1.679
27238WAT     H181956   9.699   2.651   1.722
27238WAT     H281957   9.588   2.771   1.711
27239WAT      O81958   6.396   3.562   1.262
27239WAT     H181959   6.314   3.516   1.295
27239WAT     H281960   6.461   3.494   1.227
27240WAT      O81961   5.229   9.795   9.805
27240WAT     H181962   5.183   9.875   9.844
27240WAT     H281963   5.259   9.734   9.878
27241WAT      O81964   6.893   3.167   2.329
27241WAT     H181965   6.838   3.084   2.341
27241WAT     H281966   6.895   3.192   2.232
27242WAT      O81967   3.996   8.097   5.857
27242WAT     H181968   4.007   8.193   5.883
27242WAT     H281969   3.935   8.091   5.778
27243WAT      O81970   8.138   2.600   1.627
27243WAT     H181971   8.216   2.619   1.686
27243WAT     H281972   8.071   2.674   1.634
27244WAT      O81973   6.376   2.862   3.342
27244WAT     H181974   6.313   2.929   3.381
27244WAT     H281975   6.398   2.793   3.411
27245WAT      O81976   6.922   3.302   0.058
27245WAT     H181977   6.926   3.226   0.124
27245WAT     H281978   7.014   3.341   0.047
27246WAT      O81979   6.690   5.770   5.709
27246WAT     H181980   6.645   5.817   5.633
27246WAT     H281981   6.757   5.705   5.673
27247WAT      O81982   6.251   8.871   0.059
27247WAT     H181983   6.283   8.896   0.151
27247WAT     H281984   6.330   8.846   0.002
27248WAT      O81985   6.502   6.211   4.267
27248WAT     H181986   6.508   6.198   4.366
27248WAT     H281987   6.430   6.153   4.230
27249WAT      O81988   0.675   9.135   5.358
27249WAT     H181989   0.670   9.226   5.400
27249WAT     H281990   0.635   9.068   5.421
27250WAT      O81991   8.275   4.312   6.024
27250WAT     H181992   8.236   4.238   6.079
27250WAT     H281993   8.306   4.386   6.084
27251WAT      O81994   1.931   2.474   0.033
27251WAT     H181995   1.856   2.484   0.098
27251WAT     H281996   1.894   2.460  -0.059
27252WAT      O81997   1.622   7.357   7.610
27252WAT     H181998   1.695   7.341   7.676
27252WAT     H281999   1.648   7.434   7.550
27253WAT      O82000   6.176   7.329   5.811
27253WAT     H182001   6.173   7.239   5.768
27253WAT     H282002   6.233   7.326   5.893
27254WAT      O82003   7.534   5.373   2.660
27254WAT     H182004   7.554   5.316   2.740
27254WAT     H282005   7.591   5.455   2.663
27255WAT      O82006   3.220   3.000   7.668
27255WAT     H182007   3.174   2.912   7.675
27255WAT     H282008   3.293   3.005   7.736
27256WAT      O82009   0.895   7.491   6.727
27256WAT     H182010   0.935   7.460   6.814
27256WAT     H282011   0.864   7.585   6.736
27257WAT      O82012   9.806   4.685   6.763
27257WAT     H182013   9.712   4.714   6.778
27257WAT     H282014   9.862   4.764   6.741
27258WAT      O82015   2.643   8.649   5.650
27258WAT     H182016   2.605   8.564   5.686
27258WAT     H282017   2.579   8.689   5.584
27259WAT      O82018   4.653   3.094   7.605
27259WAT     H182019   4.652   3.182   7.558
27259WAT     H282020   4.584   3.094   7.678
27260WAT      O82021   7.649   0.472   1.306
27260WAT     H182022   7.738   0.502   1.337
27260WAT     H282023   7.643   0.372   1.315
27261WAT      O82024   6.428   8.314   5.138
27261WAT     H182025   6.398   8.405   5.109
27261WAT     H282026   6.457   8.317   5.234
27262WAT      O82027   4.078   5.185   1.537
27262WAT     H182028   4.171   5.207   1.567
27262WAT     H282029   4.073   5.193   1.438
27263WAT      O82030   6.852   3.680   8.407
27263WAT     H182031   6.870   3.649   8.314
27263WAT     H282032   6.933   3.727   8.443
27264WAT      O82033   8.165   6.290   6.232
27264WAT     H182034   8.209   6.353   6.168
27264WAT     H282035   8.069   6.277   6.205
27265WAT      O82036   3.148   5.131   4.163
27265WAT     H182037   3.117   5.182   4.243
27265WAT     H282038   3.247   5.140   4.153
27266WAT      O82039   9.728   0.375   9.664
27266WAT     H182040   9.641   0.423   9.676
27266WAT     H282041   9.763   0.345   9.753
27267WAT      O82042   6.165   6.890   6.163
27267WAT     H182043   6.165   6.799   6.123
27267WAT     H282044   6.259   6.922   6.175
27268WAT      O82045   5.725   1.690   8.333
27268WAT     H182046   5.766   1.619   8.391
27268WAT     H282047   5.769   1.689   8.243
27269WAT      O82048   4.825   5.755   3.530
27269WAT     H182049   4.884   5.836   3.533
27269WAT     H282050   4.855   5.694   3.457
27270WAT      O82051   3.178   1.623   8.588
27270WAT     H182052   3.081   1.642   8.574
27270WAT     H282053   3.227   1.632   8.501
27271WAT      O82054   8.021   0.058   9.213
27271WAT     H182055   7.930   0.024   9.237
27271WAT     H282056   8.022   0.088   9.117
27272WAT      O82057   2.813   9.281   8.118
27272WAT     H182058   2.792   9.184   8.110
27272WAT     H282059   2.739   9.328   8.166
27273WAT      O82060   9.731   1.100   2.357
27273WAT     H182061   9.794   1.168   2.320
27273WAT     H282062   9.664   1.076   2.286
27274WAT      O82063   7.070   4.873   2.667
27274WAT     H182064   7.038   4.816   2.591
27274WAT     H282065   7.088   4.965   2.633
27275WAT      O82066   6.628   6.936   2.931
27275WAT     H182067   6.553   6.870   2.935
27275WAT     H282068   6.704   6.897   2.879
27276WAT      O82069   1.987   2.554   7.742
27276WAT     H182070   1.938   2.474   7.709
27276WAT     H282071   2.045   2.529   7.819
27277WAT      O82072   0.208   2.732   3.944
27277WAT     H182073   0.268   2.747   3.865
27277WAT     H282074   0.156   2.648   3.931
27278WAT      O82075   2.061   4.725   2.057
27278WAT     H182076   2.059   4.820   2.025
27278WAT     H282077   2.038   4.723   2.155
27279WAT      O82078   5.903   4.140   9.888
27279WAT     H182079   5.843   4.218   9.906
27279WAT     H282080   5.983   4.170   9.836
27280WAT      O82081   3.359   0.986   4.726
27280WAT     H182082   3.317   0.897   4.739
27280WAT     H282083   3.438   0.995   4.787
27281WAT      O82084   3.607   6.922   8.651
27281WAT     H182085   3.616   6.823   8.666
27281WAT     H282086   3.511   6.946   8.640
27282WAT      O82087   2.135   3.682   2.221
27282WAT     H182088   2.176   3.595   2.246
27282WAT     H282089   2.036   3.676   2.230
27283WAT      O82090   5.137   0.551   4.867
27283WAT     H182091   5.137   0.554   4.967
27283WAT     H282092   5.051   0.514   4.834
27284WAT      O82093   2.451   7.672   9.325
27284WAT     H182094   2.365   7.626   9.305
27284WAT     H282095   2.488   7.712   9.241
27285WAT      O82096   5.866   6.775   6.259
27285WAT     H182097   5.865   6.739   6.166
27285WAT     H282098   5.858   6.875   6.257
27286WAT      O82099   0.414   6.932   2.354
27286WAT     H182100   0.413   6.888   2.444
27286WAT     H282101   0.372   7.023   2.361
27287WAT      O82102   3.967   0.823   4.889
27287WAT     H182103   4.000   0.913   4.918
27287WAT     H282104   4.044   0.758   4.888
27288WAT      O82105   3.559   6.979   9.607
27288WAT     H182106   3.630   7.030   9.559
27288WAT     H282107   3.482   7.039   9.627
27289WAT      O82108   6.025   2.818   0.028
27289WAT     H182109   6.124   2.811   0.044
27289WAT     H282110   5.995   2.912   0.045
27290WAT      O82111   4.320   1.055   4.006
27290WAT     H182112   4.243   1.017   3.955
27290WAT     H282113   4.318   1.155   4.000
27291WAT      O82114   1.096   5.359   8.242
27291WAT     H182115   1.191   5.337   8.265
27291WAT     H282116   1.093   5.443   8.188
27292WAT      O82117   3.059   8.234   7.007
27292WAT     H182118   2.963   8.211   6.995
27292WAT     H282119   3.085   8.220   7.103
27293WAT      O82120   6.306   4.753   1.760
27293WAT     H182121   6.350   4.684   1.818
27293WAT     H282122   6.374   4.795   1.701
27294WAT      O82123   0.896   7.405   1.148
27294WAT     H182124   0.968   7.340   1.121
27294WAT     H282125   0.892   7.409   1.248
27295WAT      O82126   0.587   8.059   6.015
27295WAT     H182127   0.673   8.083   5.971
27295WAT     H282128   0.511   8.072   5.951
27296WAT      O82129   0.044   1.723   5.694
27296WAT     H182130  -0.007   1.706   5.778
27296WAT     H282131   0.006   1.803   5.647
27297WAT      O82132   0.447   5.911   0.971
27297WAT     H182133   0.469   5.848   1.045
27297WAT     H282134   0.489   6.000   0.990
27298WAT      O82135   6.095   0.693   5.152
27298WAT     H182136   6.089   0.598   5.182
27298WAT     H282137   6.022   0.746   5.196
27299WAT      O82138   3.362   5.319   4.694
27299WAT     H182139   3.441   5.363   4.737
27299WAT     H282140   3.280   5.337   4.747
27300WAT      O82141   2.202   4.343   6.986
27300WAT     H182142   2.205   4.274   6.914
27300WAT     H282143   2.248   4.427   6.955
27301WAT      O82144   3.118   0.988   7.185
27301WAT     H182145   3.143   1.082   7.207
27301WAT     H282146   3.202   0.935   7.169
27302WAT      O82147   4.898   9.729   3.577
27302WAT     H182148   4.921   9.662   3.506
27302WAT     H282149   4.981   9.755   3.626
27303WAT      O82150   6.891   2.773   8.926
27303WAT     H182151   6.903   2.809   9.018
27303WAT     H282152   6.800   2.797   8.892
27304WAT      O82153   0.387   9.191   5.424
27304WAT     H182154   0.446   9.264   5.456
27304WAT     H282155   0.373   9.200   5.326
27305WAT      O82156   5.761   9.417   8.241
27305WAT     H182157   5.719   9.491   8.189
27305WAT     H282158   5.743   9.329   8.196
27306WAT      O82159   2.790   2.766   3.988
27306WAT     H182160   2.690   2.765   3.983
27306WAT     H282161   2.823   2.858   3.967
27307WAT      O82162   3.969   8.515   5.859
27307WAT     H182163   4.018   8.439   5.815
27307WAT     H282164   4.032   8.563   5.921
27308WAT      O82165   4.248   0.141   5.998
27308WAT     H182166   4.285   0.113   6.087
27308WAT     H282167   4.305   0.214   5.960
27309WAT      O82168   7.702   9.703   1.537
27309WAT     H182169   7.752   9.647   1.604
27309WAT     H282170   7.697   9.797   1.569
27310WAT      O82171   6.537   3.953   2.145
27310WAT     H182172   6.607   3.901   2.194
27310WAT     H282173   6.571   3.979   2.055
27311WAT      O82174   8.439   5.581   6.021
27311WAT     H182175   8.382   5.607   5.943
27311WAT     H282176   8.380   5.557   6.099
27312WAT      O82177   0.373   7.613   8.966
27312WAT     H182178   0.401   7.708   8.977
27312WAT     H282179   0.276   7.603   8.987
27313WAT      O82180   7.020   1.466   6.254
27313WAT     H182181   6.968   1.544   6.220
27313WAT     H282182   6.994   1.447   6.349
27314WAT      O82183   9.323   2.084   3.858
27314WAT     H182184   9.318   2.182   3.837
27314WAT     H282185   9.409   2.047   3.822
27315WAT      O82186   5.507   8.862   1.208
27315WAT     H182187   5.597   8.875   1.249
27315WAT     H282188   5.455   8.796   1.263
27316WAT      O82189   4.236   0.524   6.621
27316WAT     H182190   4.153   0.505   6.569
27316WAT     H282191   4.311   0.468   6.585
27317WAT      O82192   4.086   0.287   9.481
27317WAT     H182193   4.079   0.386   9.492
27317WAT     H282194   4.084   0.264   9.383
27318WAT      O82195   4.664   0.941   1.454
27318WAT     H182196   4.570   0.907   1.457
27318WAT     H282197   4.692   0.971   1.546
27319WAT      O82198   0.891   9.421   5.588
27319WAT     H182199   0.861   9.435   5.493
27319WAT     H282200   0.890   9.323   5.609
27320WAT      O82201   9.861   1.238   6.264
27320WAT     H182202   9.798   1.268   6.335
27320WAT     H282203   9.850   1.140   6.248
27321WAT      O82204   8.991   1.016   1.837
27321WAT     H182205   9.050   1.090   1.806
27321WAT     H282206   8.895   1.040   1.820
27322WAT      O82207   8.952   1.723   0.110
27322WAT     H182208   8.886   1.686   0.045
27322WAT     H282209   9.009   1.649   0.145
27323WAT      O82210   6.764   7.447   3.875
27323WAT     H182211   6.691   7.505   3.840
27323WAT     H282212   6.850   7.473   3.831
27324WAT      O82213   9.855   4.447   4.926
27324WAT     H182214   9.803   4.526   4.957
27324WAT     H282215   9.877   4.457   4.829
27325WAT      O82216   2.226   0.827   2.553
27325WAT     H182217   2.301   0.777   2.511
27325WAT     H282218   2.168   0.764   2.605
27326WAT      O82219   5.418   9.046   0.137
27326WAT     H182220   5.444   9.020   0.230
27326WAT     H282221   5.449   9.139   0.119
27327WAT      O82222   7.614   0.539   9.228
27327WAT     H182223   7.516   0.559   9.234
27327WAT     H282224   7.661   0.615   9.185
27328WAT      O82225   0.623   0.111   4.997
27328WAT     H182226   0.623   0.206   5.028
27328WAT     H282227   0.551   0.060   5.044
27329WAT      O82228   0.281   9.769   2.879
27329WAT     H182229   0.316   9.760   2.973
27329WAT     H282230   0.183   9.749   2.879
27330WAT      O82231   1.673   9.197   4.662
27330WAT     H182232   1.773   9.188   4.660
27330WAT     H282233   1.646   9.253   4.740
27331WAT      O82234   3.389   7.910   7.189
27331WAT     H182235   3.468   7.971   7.201
27331WAT     H282236   3.343   7.931   7.104
27332WAT      O82237   6.463   2.786   5.321
27332WAT     H182238   6.562   2.782   5.335
27332WAT     H282239   6.426   2.693   5.316
27333WAT      O82240   5.988   3.548   4.025
27333WAT     H182241   6.048   3.517   4.098
27333WAT     H282242   5.893   3.546   4.056
27334WAT      O82243   7.901   4.127   7.148
27334WAT     H182244   7.901   4.215   7.195
27334WAT     H282245   7.994   4.091   7.141
27335WAT      O82246   6.341   6.620   8.902
27335WAT     H182247   6.263   6.667   8.860
27335WAT     H282248   6.329   6.618   9.001
27336WAT      O82249   8.418   7.355   8.255
27336WAT     H182250   8.350   7.412   8.208
27336WAT     H282251   8.505   7.358   8.204
27337WAT      O82252   5.543   7.726   7.357
27337WAT     H182253   5.524   7.688   7.448
27337WAT     H282254   5.564   7.652   7.294
27338WAT      O82255   9.220   2.206   0.032
27338WAT     H182256   9.275   2.208  -0.052
27338WAT     H282257   9.261   2.141   0.097
27339WAT      O82258   9.249   4.589   9.503
27339WAT     H182259   9.233   4.545   9.415
27339WAT     H282260   9.171   4.571   9.563
27340WAT      O82261   7.244   8.439   6.553
27340WAT     H182262   7.234   8.345   6.521
27340WAT     H282263   7.210   8.502   6.484
27341WAT      O82264   4.736   6.917   4.970
27341WAT     H182265   4.700   6.824   4.960
27341WAT     H282266   4.835   6.916   4.961
27342WAT      O82267   7.919   6.541   7.664
27342WAT     H182268   7.910   6.573   7.570
27342WAT     H282269   7.935   6.619   7.724
27343WAT      O82270   3.083   5.558   4.657
27343WAT     H182271   3.172   5.602   4.670
27343WAT     H282272   3.079   5.475   4.712
27344WAT      O82273   4.222   3.143   4.142
27344WAT     H182274   4.254   3.179   4.055
27344WAT     H282275   4.238   3.044   4.145
27345WAT      O82276   9.230   8.801   4.738
27345WAT     H182277   9.177   8.727   4.697
27345WAT     H282278   9.188   8.829   4.824
27346WAT      O82279   2.480   8.713   7.584
27346WAT     H182280   2.381   8.710   7.598
27346WAT     H282281   2.500   8.715   7.486
27347WAT      O82282   9.238   8.320   7.735
27347WAT     H182283   9.329   8.284   7.715
27347WAT     H282284   9.169   8.260   7.695
27348WAT      O82285   7.615   1.376   5.069
27348WAT     H182286   7.695   1.319   5.089
27348WAT     H282287   7.567   1.396   5.154
27349WAT      O82288   7.402   9.482   1.128
27349WAT     H182289   7.304   9.505   1.128
27349WAT     H282290   7.449   9.540   1.061
27350WAT      O82291   7.661   1.022   9.374
27350WAT     H182292   7.671   1.038   9.276
27350WAT     H282293   7.677   0.926   9.394
27351WAT      O82294   0.188   1.541   1.291
27351WAT     H182295   0.143   1.522   1.378
27351WAT     H282296   0.156   1.476   1.222
27352WAT      O82297   9.205   0.790   1.455
27352WAT     H182298   9.141   0.781   1.532
27352WAT     H282299   9.233   0.699   1.424
27353WAT      O82300   5.237   8.842   8.627
27353WAT     H182301   5.310   8.774   8.620
27353WAT     H282302   5.225   8.867   8.723
27354WAT      O82303   3.899   0.964   6.435
27354WAT     H182304   3.815   1.018   6.423
27354WAT     H282305   3.971   1.023   6.470
27355WAT      O82306   4.269   3.431   9.772
27355WAT     H182307   4.332   3.406   9.845
27355WAT     H282308   4.271   3.361   9.700
27356WAT      O82309   1.865   8.627   0.463
27356WAT     H182310   1.801   8.692   0.421
27356WAT     H282311   1.873   8.546   0.406
27357WAT      O82312   3.820   7.053   2.105
27357WAT     H182313   3.805   7.000   2.189
27357WAT     H282314   3.832   7.150   2.129
27358WAT      O82315   6.738   8.018   5.049
27358WAT     H182316   6.790   8.005   4.964
27358WAT     H282317   6.721   8.116   5.062
27359WAT      O82318   3.898   6.232   6.916
27359WAT     H182319   3.803   6.201   6.907
27359WAT     H282320   3.903   6.329   6.891
27360WAT      O82321   5.986   2.304   4.855
27360WAT     H182322   6.040   2.365   4.913
27360WAT     H282323   6.009   2.319   4.759
27361WAT      O82324   6.090   3.168   5.539
27361WAT     H182325   6.125   3.163   5.632
27361WAT     H282326   5.990   3.165   5.540
27362WAT      O82327   9.619   7.613   2.229
27362WAT     H182328   9.616   7.554   2.148
27362WAT     H282329   9.714   7.622   2.260
27363WAT      O82330   1.242   5.586   5.078
27363WAT     H182331   1.261   5.507   5.020
27363WAT     H282332   1.152   5.576   5.121
27364WAT      O82333   6.591   0.355   4.119
27364WAT     H182334   6.646   0.335   4.037
27364WAT     H282335   6.629   0.435   4.165
27365WAT      O82336   6.543   8.855   0.230
27365WAT     H182337   6.531   8.899   0.319
27365WAT     H282338   6.510   8.761   0.234
27366WAT      O82339   9.184   1.314   4.357
27366WAT     H182340   9.163   1.276   4.447
27366WAT     H282341   9.196   1.240   4.291
27367WAT      O82342   8.919   5.235   9.235
27367WAT     H182343   8.972   5.213   9.153
27367WAT     H282344   8.886   5.151   9.277
27368WAT      O82345   0.506   7.364   5.018
27368WAT     H182346   0.430   7.338   4.959
27368WAT     H282347   0.590   7.369   4.964
27369WAT      O82348   1.743   6.823   4.091
27369WAT     H182349   1.726   6.921   4.104
27369WAT     H282350   1.777   6.783   4.176
27370WAT      O82351   6.325   0.868   4.723
27370WAT     H182352   6.420   0.897   4.713
27370WAT     H282353   6.304   0.857   4.820
27371WAT      O82354   5.167   8.039   7.618
27371WAT     H182355   5.249   7.988   7.592
27371WAT     H282356   5.109   7.982   7.676
27372WAT      O82357   6.507   5.770   3.865
27372WAT     H182358   6.534   5.853   3.914
27372WAT     H282359   6.461   5.795   3.779
27373WAT      O82360   8.043   6.713   7.148
27373WAT     H182361   8.013   6.808   7.141
27373WAT     H282362   8.017   6.663   7.066
27374WAT      O82363   0.508   2.138   2.237
27374WAT     H182364   0.438   2.068   2.244
27374WAT     H282365   0.483   2.204   2.166
27375WAT      O82366   0.399   0.231   4.493
27375WAT     H182367   0.472   0.192   4.436
27375WAT     H282368   0.408   0.330   4.496
27376WAT      O82369   5.721   7.617   3.421
27376WAT     H182370   5.738   7.684   3.348
27376WAT     H282371   5.729   7.525   3.383
27377WAT      O82372   5.627   4.914   7.368
27377WAT     H182373   5.566   4.992   7.382
27377WAT     H282374   5.686   4.903   7.448
27378WAT      O82375   2.953   7.046   4.377
27378WAT     H182376   3.001   6.958   4.376
27378WAT     H282377   2.983   7.100   4.298
27379WAT      O82378   4.448   5.392   2.434
27379WAT     H182379   4.440   5.361   2.529
27379WAT     H282380   4.375   5.352   2.380
27380WAT      O82381   1.637   7.254   8.452
27380WAT     H182382   1.689   7.271   8.368
27380WAT     H282383   1.584   7.171   8.442
27381WAT      O82384   4.856   5.710   7.943
27381WAT     H182385   4.761   5.680   7.932
27381WAT     H282386   4.858   5.802   7.983
27382WAT      O82387   0.856   9.059   8.027
27382WAT     H182388   0.925   9.132   8.028
27382WAT     H282389   0.880   8.992   8.097
27383WAT      O82390   4.850   7.044   9.865
27383WAT     H182391   4.778   7.107   9.835
27383WAT     H282392   4.822   6.950   9.844
27384WAT      O82393   1.189   4.477   1.209
27384WAT     H182394   1.270   4.523   1.244
27384WAT     H282395   1.189   4.481   1.109
27385WAT      O82396   8.240   4.489   9.784
27385WAT     H182397   8.174   4.547   9.737
27385WAT     H282398   8.314   4.545   9.822
27386WAT      O82399   0.473   8.878   4.523
27386WAT     H182400   0.566   8.874   4.561
27386WAT     H282401   0.441   8.785   4.506
27387WAT      O82402   3.722   7.083   1.827
27387WAT     H182403   3.744   7.070   1.924
27387WAT     H282404   3.760   7.170   1.796
27388WAT      O82405   0.532   7.347   6.042
27388WAT     H182406   0.482   7.434   6.041
27388WAT     H282407   0.514   7.300   6.128
27389WAT      O82408   8.240   3.276   9.459
27389WAT     H182409   8.170   3.347   9.471
27389WAT     H282410   8.200   3.197   9.412
27390WAT      O82411   0.262   0.960   3.984
27390WAT     H182412   0.235   0.984   4.077
27390WAT     H282413   0.268   0.861   3.975
27391WAT      O82414   9.546   3.196   2.131
27391WAT     H182415   9.485   3.140   2.186
27391WAT     H282416   9.564   3.282   2.178
27392WAT      O82417   8.182   5.453   7.522
27392WAT     H182418   8.265   5.503   7.496
27392WAT     H282419   8.169   5.376   7.460
27393WAT      O82420   1.317   7.370   7.280
27393WAT     H182421   1.352   7.371   7.374
27393WAT     H282422   1.271   7.456   7.260
27394WAT      O82423   2.763   5.092   3.802
27394WAT     H182424   2.847   5.077   3.854
27394WAT     H282425   2.763   5.186   3.767
27395WAT      O82426   6.346   5.052   1.941
27395WAT     H182427   6.264   5.105   1.961
27395WAT     H282428   6.370   4.996   2.020
27396WAT      O82429   5.928   0.191   2.700
27396WAT     H182430   6.014   0.241   2.689
27396WAT     H282431   5.914   0.169   2.796
27397WAT      O82432   1.709   4.056   6.963
27397WAT     H182433   1.633   4.065   7.028
27397WAT     H282434   1.710   4.136   6.902
27398WAT      O82435   0.406   2.670   1.172
27398WAT     H182436   0.470   2.747   1.177
27398WAT     H282437   0.345   2.683   1.094
27399WAT      O82438   8.157   7.358   5.739
27399WAT     H182439   8.257   7.362   5.749
27399WAT     H282440   8.115   7.341   5.828
27400WAT      O82441   6.594   6.466   9.791
27400WAT     H182442   6.524   6.479   9.861
27400WAT     H282443   6.575   6.525   9.713
27401WAT      O82444   4.834   1.123   5.927
27401WAT     H182445   4.842   1.175   5.842
27401WAT     H282446   4.749   1.148   5.974
27402WAT      O82447   8.164   0.259   9.805
27402WAT     H182448   8.087   0.319   9.825
27402WAT     H282449   8.228   0.260   9.882
27403WAT      O82450   2.279   9.695   4.475
27403WAT     H182451   2.183   9.722   4.485
27403WAT     H282452   2.324   9.700   4.564
27404WAT      O82453   8.941   8.320   2.258
27404WAT     H182454   8.897   8.250   2.202
27404WAT     H282455   9.020   8.357   2.208
27405WAT      O82456   4.534   6.367   5.497
27405WAT     H182457   4.551   6.465   5.487
27405WAT     H282458   4.445   6.344   5.457
27406WAT      O82459   8.914   2.172   9.873
27406WAT     H182460   8.938   2.084   9.832
27406WAT     H282461   8.990   2.205   9.928
27407WAT      O82462   2.606   1.002   0.246
27407WAT     H182463   2.693   0.954   0.240
27407WAT     H282464   2.531   0.937   0.237
27408WAT      O82465   0.441   3.348   3.336
27408WAT     H182466   0.538   3.328   3.344
27408WAT     H282467   0.409   3.326   3.243
27409WAT      O82468   9.702   9.592   2.730
27409WAT     H182469   9.716   9.515   2.793
27409WAT     H282470   9.675   9.557   2.640
27410WAT      O82471   7.032   0.361   1.952
27410WAT     H182472   7.086   0.437   1.917
27410WAT     H282473   6.943   0.359   1.906
27411WAT      O82474   8.397   4.377   6.390
27411WAT     H182475   8.365   4.288   6.423
27411WAT     H282476   8.320   4.440   6.383
27412WAT      O82477   7.000   8.926   9.290
27412WAT     H182478   6.913   8.940   9.242
27412WAT     H282479   6.984   8.876   9.375
27413WAT      O82480   5.054   4.926   7.862
27413WAT     H182481   4.990   4.851   7.844
27413WAT     H282482   5.013   5.012   7.831
27414WAT      O82483   9.126   9.614   0.260
27414WAT     H182484   9.162   9.594   0.351
27414WAT     H282485   9.116   9.528   0.209
27415WAT      O82486   7.057   0.484   6.131
27415WAT     H182487   6.961   0.502   6.108
27415WAT     H282488   7.093   0.415   6.068
27416WAT      O82489   6.592   0.220   4.532
27416WAT     H182490   6.544   0.156   4.593
27416WAT     H282491   6.543   0.307   4.530
27417WAT      O82492   5.563   0.528   9.139
27417WAT     H182493   5.648   0.543   9.190
27417WAT     H282494   5.485   0.556   9.196
27418WAT      O82495   2.515   9.849   3.827
27418WAT     H182496   2.458   9.791   3.884
27418WAT     H282497   2.541   9.800   3.745
27419WAT      O82498   9.042   2.190   1.934
27419WAT     H182499   9.014   2.104   1.977
27419WAT     H282500   8.976   2.262   1.956
27420WAT      O82501   8.487   1.290   5.855
27420WAT     H182502   8.416   1.306   5.786
27420WAT     H282503   8.474   1.200   5.897
27421WAT      O82504   0.723   0.103   2.248
27421WAT     H182505   0.624   0.102   2.263
27421WAT     H282506   0.741   0.124   2.151
27422WAT      O82507   6.853   6.501   1.004
27422WAT     H182508   6.799   6.496   0.920
27422WAT     H282509   6.818   6.576   1.062
27423WAT      O82510   5.788   4.205   2.954
27423WAT     H182511   5.877   4.249   2.945
27423WAT     H282512   5.716   4.270   2.926
27424WAT      O82513   8.740   8.700   7.318
27424WAT     H182514   8.711   8.623   7.375
27424WAT     H282515   8.763   8.778   7.376
27425WAT      O82516   6.599   3.698   7.942
27425WAT     H182517   6.667   3.766   7.969
27425WAT     H282518   6.514   3.745   7.915
27426WAT      O82519   5.239   7.267   7.971
27426WAT     H182520   5.155   7.244   7.921
27426WAT     H282521   5.217   7.282   8.067
27427WAT      O82522   1.383   3.045   6.893
27427WAT     H182523   1.441   3.067   6.971
27427WAT     H282524   1.438   3.042   6.810
27428WAT      O82525   4.762   7.721   9.343
27428WAT     H182526   4.696   7.792   9.369
27428WAT     H282527   4.850   7.764   9.325
27429WAT      O82528   1.126   9.500   0.652
27429WAT     H182529   1.046   9.455   0.613
27429WAT     H282530   1.136   9.474   0.748
27430WAT      O82531   5.319   0.621   0.541
27430WAT     H182532   5.355   0.679   0.614
27430WAT     H282533   5.221   0.636   0.532
27431WAT      O82534   5.479   3.690   2.507
27431WAT     H182535   5.417   3.754   2.462
27431WAT     H282536   5.427   3.614   2.546
27432WAT      O82537   8.862   8.017   8.246
27432WAT     H182538   8.937   7.981   8.300
27432WAT     H282539   8.898   8.081   8.177
27433WAT      O82540   0.248   5.607   3.620
27433WAT     H182541   0.242   5.701   3.586
27433WAT     H282542   0.158   5.564   3.615
27434WAT      O82543   4.114   3.012   0.870
27434WAT     H182544   4.109   3.106   0.903
27434WAT     H282545   4.155   2.954   0.941
27435WAT      O82546   1.801   7.362   4.648
27435WAT     H182547   1.827   7.292   4.715
27435WAT     H282548   1.790   7.449   4.695
27436WAT      O82549   1.892   1.999   2.565
27436WAT     H182550   1.797   2.004   2.535
27436WAT     H282551   1.903   2.049   2.651
27437WAT      O82552   2.721   3.340   3.718
27437WAT     H182553   2.630   3.364   3.684
27437WAT     H282554   2.763   3.273   3.656
27438WAT      O82555   8.524   0.260   5.935
27438WAT     H182556   8.584   0.340   5.935
27438WAT     H282557   8.508   0.231   6.030
27439WAT      O82558   6.515   0.487   7.613
27439WAT     H182559   6.514   0.387   7.606
27439WAT     H282560   6.560   0.514   7.698
27440WAT      O82561   0.960   1.089   0.451
27440WAT     H182562   0.912   1.165   0.408
27440WAT     H282563   1.032   1.055   0.391
27441WAT      O82564   7.081   1.865   9.117
27441WAT     H182565   7.138   1.899   9.043
27441WAT     H282566   7.124   1.785   9.158
27442WAT      O82567   5.191   2.429   5.310
27442WAT     H182568   5.226   2.358   5.371
27442WAT     H282569   5.212   2.519   5.348
27443WAT      O82570   3.894   9.524   6.968
27443WAT     H182571   3.849   9.443   7.005
27443WAT     H282572   3.902   9.516   6.869
27444WAT      O82573   7.521   4.973   3.602
27444WAT     H182574   7.559   4.965   3.510
27444WAT     H282575   7.491   5.067   3.618
27445WAT      O82576   4.958   7.128   6.776
27445WAT     H182577   4.989   7.050   6.830
27445WAT     H282578   4.859   7.135   6.781
27446WAT      O82579   0.903   7.300   5.057
27446WAT     H182580   0.887   7.366   5.130
27446WAT     H282581   0.994   7.314   5.018
27447WAT      O82582   1.711   2.028   4.568
27447WAT     H182583   1.780   2.016   4.640
27447WAT     H282584   1.661   2.114   4.584
27448WAT      O82585   8.135   6.048   1.126
27448WAT     H182586   8.114   6.022   1.220
27448WAT     H282587   8.143   6.148   1.120
27449WAT      O82588   0.906   2.049   1.859
27449WAT     H182589   0.930   1.957   1.827
27449WAT     H282590   0.941   2.062   1.952
27450WAT      O82591   0.735   3.511   5.516
27450WAT     H182592   0.659   3.562   5.476
27450WAT     H282593   0.785   3.570   5.579
27451WAT      O82594   5.546   7.543   8.536
27451WAT     H182595   5.612   7.618   8.539
27451WAT     H282596   5.563   7.487   8.455
27452WAT      O82597   9.715   1.054   1.937
27452WAT     H182598   9.757   1.136   1.898
27452WAT     H282599   9.778   1.012   2.002
27453WAT      O82600   0.730   9.394   4.117
27453WAT     H182601   0.822   9.427   4.097
27453WAT     H282602   0.663   9.462   4.087
27454WAT      O82603   1.606   0.790   3.578
27454WAT     H182604   1.535   0.764   3.513
27454WAT     H282605   1.570   0.782   3.672
27455WAT      O82606   1.139   3.531   7.546
27455WAT     H182607   1.065   3.598   7.554
27455WAT     H282608   1.226   3.576   7.562
27456WAT      O82609   2.982   1.072   6.448
27456WAT     H182610   3.076   1.098   6.423
27456WAT     H282611   2.983   1.022   6.535
27457WAT      O82612   3.835   1.394   3.448
27457WAT     H182613   3.736   1.401   3.443
27457WAT     H282614   3.867   1.327   3.380
27458WAT      O82615   8.437   4.920   2.194
27458WAT     H182616   8.461   4.945   2.287
27458WAT     H282617   8.492   4.842   2.165
27459WAT      O82618   8.737   8.682   2.052
27459WAT     H182619   8.753   8.658   1.956
27459WAT     H282620   8.686   8.609   2.097
27460WAT      O82621   1.284   6.477   5.659
27460WAT     H182622   1.278   6.532   5.742
27460WAT     H282623   1.211   6.408   5.658
27461WAT      O82624   6.564   9.270   1.764
27461WAT     H182625   6.550   9.209   1.843
27461WAT     H282626   6.622   9.224   1.697
27462WAT      O82627   8.462   1.773   5.364
27462WAT     H182628   8.370   1.747   5.333
27462WAT     H282629   8.474   1.743   5.459
27463WAT      O82630   4.943   9.094   0.085
27463WAT     H182631   4.880   9.071   0.158
27463WAT     H282632   5.028   9.042   0.096
27464WAT      O82633   0.238   1.874   6.502
27464WAT     H182634   0.284   1.795   6.543
27464WAT     H282635   0.276   1.891   6.411
27465WAT      O82636   4.974   2.024   5.884
27465WAT     H182637   4.946   1.929   5.879
27465WAT     H282638   4.941   2.064   5.970
27466WAT      O82639   8.705   7.312   5.767
27466WAT     H182640   8.706   7.225   5.817
27466WAT     H282641   8.791   7.360   5.784
27467WAT      O82642   6.157   6.837   0.931
27467WAT     H182643   6.161   6.746   0.888
27467WAT     H282644   6.109   6.830   1.019
27468WAT      O82645   1.879   2.555   6.792
27468WAT     H182646   1.781   2.550   6.813
27468WAT     H282647   1.903   2.649   6.769
27469WAT      O82648   0.559   4.877   2.019
27469WAT     H182649   0.486   4.943   2.003
27469WAT     H282650   0.627   4.917   2.080
27470WAT      O82651   9.735   2.242   6.469
27470WAT     H182652   9.765   2.197   6.385
27470WAT     H282653   9.637   2.225   6.482
27471WAT      O82654   9.040   2.937   9.222
27471WAT     H182655   9.089   2.959   9.306
27471WAT     H282656   9.087   2.977   9.144
27472WAT      O82657   9.588   2.009   4.233
27472WAT     H182658   9.506   2.057   4.203
27472WAT     H282659   9.669   2.061   4.206
27473WAT      O82660   0.191   7.740   4.977
27473WAT     H182661   0.128   7.778   5.044
27473WAT     H282662   0.285   7.747   5.011
27474WAT      O82663   0.887   6.792   1.100
27474WAT     H182664   0.957   6.854   1.064
27474WAT     H282665   0.798   6.838   1.099
27475WAT      O82666   1.075   9.038   6.537
27475WAT     H182667   0.994   9.063   6.483
27475WAT     H282668   1.080   8.939   6.547
27476WAT      O82669   0.213   6.183   5.428
27476WAT     H182670   0.284   6.113   5.425
27476WAT     H282671   0.246   6.266   5.384
27477WAT      O82672   8.606   3.719   4.436
27477WAT     H182673   8.587   3.651   4.365
27477WAT     H282674   8.576   3.809   4.405
27478WAT      O82675   2.529   1.744   3.110
27478WAT     H182676   2.616   1.778   3.144
27478WAT     H282677   2.514   1.778   3.017
27479WAT      O82678   8.711   1.119   5.767
27479WAT     H182679   8.670   1.041   5.721
27479WAT     H282680   8.685   1.203   5.719
27480WAT      O82681   8.125   0.598   3.486
27480WAT     H182682   8.056   0.529   3.462
27480WAT     H282683   8.100   0.686   3.446
27481WAT      O82684   3.515   6.628   2.471
27481WAT     H182685   3.437   6.566   2.476
27481WAT     H282686   3.515   6.688   2.551
27482WAT      O82687   0.530   2.262   0.896
27482WAT     H182688   0.499   2.199   0.824
27482WAT     H282689   0.451   2.289   0.952
27483WAT      O82690   1.792   9.545   4.565
27483WAT     H182691   1.841   9.478   4.620
27483WAT     H282692   1.758   9.502   4.481
27484WAT      O82693   6.604   6.860   3.341
27484WAT     H182694   6.542   6.813   3.404
27484WAT     H282695   6.551   6.892   3.262
27485WAT      O82696   5.946   5.565   0.945
27485WAT     H182697   6.042   5.585   0.963
27485WAT     H282698   5.896   5.651   0.936
27486WAT      O82699   0.362   3.784   1.535
27486WAT     H182700   0.446   3.826   1.502
27486WAT     H282701   0.356   3.690   1.501
27487WAT      O82702   2.285   4.832   6.698
27487WAT     H182703   2.316   4.745   6.662
27487WAT     H282704   2.330   4.850   6.786
27488WAT      O82705   0.469   8.597   7.702
27488WAT     H182706   0.546   8.660   7.692
27488WAT     H282707   0.489   8.531   7.774
27489WAT      O82708   2.226   2.556   1.709
27489WAT     H182709   2.320   2.568   1.740
27489WAT     H282710   2.194   2.464   1.732
27490WAT      O82711   1.651   1.033   2.564
27490WAT     H182712   1.685   0.952   2.515
27490WAT     H282713   1.720   1.063   2.630
27491WAT      O82714   1.824   2.096   1.101
27491WAT     H182715   1.732   2.103   1.139
27491WAT     H282716   1.823   2.121   1.004
27492WAT      O82717   8.817   6.703   4.115
27492WAT     H182718   8.821   6.744   4.024
27492WAT     H282719   8.890   6.636   4.125
27493WAT      O82720   0.979   3.582   4.358
27493WAT     H182721   1.027   3.501   4.391
27493WAT     H282722   0.881   3.563   4.352
27494WAT      O82723   0.343   3.506   5.294
27494WAT     H182724   0.368   3.603   5.296
27494WAT     H282725   0.324   3.475   5.387
27495WAT      O82726   1.461   8.531   6.732
27495WAT     H182727   1.427   8.577   6.814
27495WAT     H282728   1.468   8.596   6.657
27496WAT      O82729   0.495   0.586   1.863
27496WAT     H182730   0.448   0.505   1.896
27496WAT     H282731   0.499   0.584   1.763
27497WAT      O82732   4.250   7.867   6.316
27497WAT     H182733   4.196   7.830   6.241
27497WAT     H282734   4.334   7.814   6.326
27498WAT      O82735   0.504   9.688   1.088
27498WAT     H182736   0.529   9.756   1.019
27498WAT     H282737   0.554   9.707   1.173
27499WAT      O82738   3.382   2.761   4.965
27499WAT     H182739   3.297   2.715   4.989
27499WAT     H282740   3.412   2.818   5.042
27500WAT      O82741   7.191   8.835   4.711
27500WAT     H182742   7.158   8.747   4.746
27500WAT     H282743   7.255   8.820   4.636
27501WAT      O82744   8.387   3.990   8.554
27501WAT     H182745   8.440   3.907   8.540
27501WAT     H282746   8.429   4.045   8.626
27502WAT      O82747   6.947   6.225   2.214
27502WAT     H182748   6.948   6.155   2.285
27502WAT     H282749   6.874   6.290   2.233
27503WAT      O82750   9.532   4.504   3.820
27503WAT     H182751   9.554   4.582   3.877
27503WAT     H282752   9.569   4.517   3.728
27504WAT      O82753   7.060   2.557   8.955
27504WAT     H182754   6.999   2.635   8.937
27504WAT     H282755   7.122   2.545   8.878
27505WAT      O82756   5.999   4.421   0.630
27505WAT     H182757   5.901   4.413   0.612
27505WAT     H282758   6.023   4.365   0.709
27506WAT      O82759   3.887   4.081   0.562
27506WAT     H182760   3.847   4.115   0.647
27506WAT     H282761   3.817   4.035   0.508
27507WAT      O82762   0.131   4.922   3.583
27507WAT     H182763   0.144   4.854   3.655
27507WAT     H282764   0.201   4.993   3.591
27508WAT      O82765   4.831   4.685   6.931
27508WAT     H182766   4.810   4.752   7.002
27508WAT     H282767   4.750   4.667   6.876
27509WAT      O82768   8.248   2.099   6.351
27509WAT     H182769   8.301   2.156   6.414
27509WAT     H282770   8.284   2.005   6.352
27510WAT      O82771   2.327   0.404   9.595
27510WAT     H182772   2.271   0.346   9.654
27510WAT     H282773   2.401   0.351   9.555
27511WAT      O82774   2.464   7.897   6.019
27511WAT     H182775   2.503   7.988   6.004
27511WAT     H282776   2.373   7.906   6.058
27512WAT      O82777   4.711   7.158   6.315
27512WAT     H182778   4.705   7.247   6.361
27512WAT     H282779   4.807   7.135   6.300
27513WAT      O82780   9.802   4.802   0.937
27513WAT     H182781   9.746   4.861   0.996
27513WAT     H282782   9.896   4.835   0.937
27514WAT      O82783   2.095   4.187   3.390
27514WAT     H182784   2.158   4.254   3.349
27514WAT     H282785   2.125   4.095   3.366
27515WAT      O82786   4.238   1.210   4.792
27515WAT     H182787   4.174   1.242   4.722
27515WAT     H282788   4.276   1.288   4.841
27516WAT      O82789   6.808   0.398   1.552
27516WAT     H182790   6.899   0.391   1.512
27516WAT     H282791   6.773   0.491   1.542
27517WAT      O82792   0.415   2.476   6.358
27517WAT     H182793   0.437   2.573   6.366
27517WAT     H282794   0.325   2.458   6.399
27518WAT      O82795   6.824   6.540   6.032
27518WAT     H182796   6.913   6.495   6.040
27518WAT     H282797   6.812   6.604   6.107
27519WAT      O82798   2.634   0.779   5.467
27519WAT     H182799   2.615   0.753   5.562
27519WAT     H282800   2.729   0.756   5.445
27520WAT      O82801   0.265   0.315   2.468
27520WAT     H182802   0.329   0.391   2.455
27520WAT     H282803   0.247   0.271   2.381
27521WAT      O82804   7.821   6.769   1.535
27521WAT     H182805   7.798   6.866   1.540
27521WAT     H282806   7.920   6.757   1.545
27522WAT      O82807   4.519   4.066   3.935
27522WAT     H182808   4.458   4.082   4.012
27522WAT     H282809   4.612   4.052   3.968
27523WAT      O82810   8.453   2.157   0.888
27523WAT     H182811   8.419   2.238   0.937
27523WAT     H282812   8.552   2.153   0.897
27524WAT      O82813   8.993   3.598   4.295
27524WAT     H182814   8.988   3.575   4.392
27524WAT     H282815   9.065   3.666   4.280
27525WAT      O82816   6.277   4.581   3.815
27525WAT     H182817   6.293   4.679   3.798
27525WAT     H282818   6.283   4.531   3.728
27526WAT      O82819   0.305   5.287   8.356
27526WAT     H182820   0.223   5.238   8.383
27526WAT     H282821   0.283   5.384   8.344
27527WAT      O82822   0.650   0.804   9.658
27527WAT     H182823   0.681   0.727   9.712
27527WAT     H282824   0.568   0.779   9.606
27528WAT      O82825   4.439   8.042   4.752
27528WAT     H182826   4.467   8.107   4.681
27528WAT     H282827   4.376   7.975   4.713
27529WAT      O82828   9.616   0.012   4.244
27529WAT     H182829   9.667   0.035   4.327
27529WAT     H282830   9.680   0.008   4.166
27530WAT      O82831   2.385   1.209   9.681
27530WAT     H182832   2.317   1.140   9.655
27530WAT     H282833   2.421   1.188   9.772
27531WAT      O82834   2.679   7.143   6.936
27531WAT     H182835   2.630   7.099   7.012
27531WAT     H282836   2.763   7.186   6.971
27532WAT      O82837   0.336   2.269   2.917
27532WAT     H182838   0.363   2.223   3.002
27532WAT     H282839   0.289   2.355   2.939
27533WAT      O82840   2.118   6.131   0.220
27533WAT     H182841   2.084   6.200   0.284
27533WAT     H282842   2.150   6.051   0.271
27534WAT      O82843   3.289   8.770   9.582
27534WAT     H182844   3.270   8.799   9.489
27534WAT     H282845   3.372   8.713   9.583
27535WAT      O82846   1.429   0.246   0.053
27535WAT     H182847   1.522   0.262   0.086
27535WAT     H282848   1.412   0.303  -0.027
27536WAT      O82849   6.815   6.692   8.161
27536WAT     H182850   6.726   6.654   8.135
27536WAT     H282851   6.870   6.620   8.205
27537WAT      O82852   8.570   3.041   8.764
27537WAT     H182853   8.527   3.004   8.682
27537WAT     H282854   8.517   3.119   8.798
27538WAT      O82855   6.288   5.096   0.751
27538WAT     H182856   6.382   5.070   0.772
27538WAT     H282857   6.287   5.188   0.710
27539WAT      O82858   6.087   8.879   3.578
27539WAT     H182859   6.122   8.846   3.665
27539WAT     H282860   6.015   8.817   3.546
27540WAT      O82861   3.176   5.225   0.148
27540WAT     H182862   3.117   5.146   0.135
27540WAT     H282863   3.260   5.213   0.095
27541WAT      O82864   5.555   0.792   3.424
27541WAT     H182865   5.608   0.759   3.346
27541WAT     H282866   5.534   0.716   3.485
27542WAT      O82867   4.978   7.135   6.296
27542WAT     H182868   5.034   7.124   6.378
27542WAT     H282869   5.022   7.090   6.219
27543WAT      O82870   9.233   1.920   9.760
27543WAT     H182871   9.298   1.966   9.700
27543WAT     H282872   9.265   1.927   9.855
27544WAT      O82873   8.482   2.718   1.764
27544WAT     H182874   8.532   2.632   1.774
27544WAT     H282875   8.530   2.790   1.814
27545WAT      O82876   1.893   4.111   9.191
27545WAT     H182877   1.879   4.100   9.092
27545WAT     H282878   1.911   4.207   9.211
27546WAT      O82879   3.612   8.376   1.411
27546WAT     H182880   3.598   8.460   1.464
27546WAT     H282881   3.534   8.363   1.349
27547WAT      O82882   3.698   9.712   0.066
27547WAT     H182883   3.797   9.729   0.067
27547WAT     H282884   3.656   9.765  -0.007
27548WAT      O82885   9.477   2.650   5.835
27548WAT     H182886   9.558   2.684   5.883
27548WAT     H282887   9.433   2.726   5.787
27549WAT      O82888   1.660   3.279   4.137
27549WAT     H182889   1.645   3.281   4.038
27549WAT     H282890   1.699   3.190   4.162
27550WAT      O82891   7.937   9.757   0.271
27550WAT     H182892   7.918   9.763   0.173
27550WAT     H282893   7.991   9.835   0.300
27551WAT      O82894   0.487   1.244   4.044
27551WAT     H182895   0.566   1.304   4.028
27551WAT     H282896   0.419   1.258   3.972
27552WAT      O82897   2.410   0.568   2.663
27552WAT     H182898   2.438   0.614   2.579
27552WAT     H282899   2.453   0.478   2.668
27553WAT      O82900   3.429   9.112   2.354
27553WAT     H182901   3.331   9.095   2.341
27553WAT     H282902   3.469   9.034   2.403
27554WAT      O82903   7.529   1.649   4.393
27554WAT     H182904   7.612   1.673   4.442
27554WAT     H282905   7.487   1.732   4.355
27555WAT      O82906   0.923   2.697   5.098
27555WAT     H182907   0.954   2.667   5.189
27555WAT     H282908   0.995   2.750   5.054
27556WAT      O82909   4.854   8.440   3.716
27556WAT     H182910   4.756   8.457   3.708
27556WAT     H282911   4.875   8.400   3.805
27557WAT      O82912   6.329   8.962   3.449
27557WAT     H182913   6.249   8.925   3.494
27557WAT     H282914   6.394   8.888   3.429
27558WAT      O82915   6.210   2.173   1.780
27558WAT     H182916   6.230   2.172   1.878
27558WAT     H282917   6.284   2.221   1.732
27559WAT      O82918   3.417   5.775   2.047
27559WAT     H182919   3.387   5.845   1.983
27559WAT     H282920   3.516   5.769   2.047
27560WAT      O82921   5.357   0.395   0.117
27560WAT     H182922   5.358   0.449   0.201
27560WAT     H282923   5.437   0.335   0.116
27561WAT      O82924   0.802   1.508   7.148
27561WAT     H182925   0.879   1.481   7.206
27561WAT     H282926   0.717   1.468   7.184
27562WAT      O82927   3.523   0.036   2.607
27562WAT     H182928   3.445  -0.026   2.614
27562WAT     H282929   3.499   0.124   2.649
27563WAT      O82930   0.906   6.704   7.151
27563WAT     H182931   0.849   6.777   7.113
27563WAT     H282932   0.983   6.745   7.200
27564WAT      O82933   4.523   2.811   1.229
27564WAT     H182934   4.588   2.876   1.269
27564WAT     H282935   4.445   2.801   1.291
27565WAT      O82936   5.468   1.932   3.372
27565WAT     H182937   5.556   1.972   3.346
27565WAT     H282938   5.459   1.934   3.472
27566WAT      O82939   0.097   3.774   7.523
27566WAT     H182940   0.151   3.847   7.565
27566WAT     H282941   0.077   3.703   7.591
27567WAT      O82942   8.178   7.264   2.254
27567WAT     H182943   8.101   7.328   2.248
27567WAT     H282944   8.169   7.195   2.183
27568WAT      O82945   7.516   6.656   4.196
27568WAT     H182946   7.459   6.731   4.163
27568WAT     H282947   7.458   6.579   4.223
27569WAT      O82948   8.271   8.069   2.838
27569WAT     H182949   8.181   8.103   2.868
27569WAT     H282950   8.271   8.058   2.739
27570WAT      O82951   1.628   8.955   6.436
27570WAT     H182952   1.704   8.893   6.417
27570WAT     H282953   1.653   9.048   6.407
27571WAT      O82954   9.599   3.811   1.094
27571WAT     H182955   9.684   3.843   1.054
27571WAT     H282956   9.563   3.735   1.040
27572WAT      O82957   2.069   1.487   7.569
27572WAT     H182958   2.123   1.566   7.540
27572WAT     H282959   2.088   1.467   7.665
27573WAT      O82960   9.004   5.006   4.508
27573WAT     H182961   9.049   4.932   4.458
27573WAT     H282962   9.025   5.093   4.464
27574WAT      O82963   2.741   1.409   6.451
27574WAT     H182964   2.753   1.335   6.384
27574WAT     H282965   2.697   1.372   6.533
27575WAT      O82966   7.379   4.242   2.007
27575WAT     H182967   7.423   4.167   2.056
27575WAT     H282968   7.380   4.222   1.909
27576WAT      O82969   2.009   7.337   1.530
27576WAT     H182970   1.948   7.259   1.541
27576WAT     H282971   2.078   7.336   1.604
27577WAT      O82972   8.885   3.909   3.686
27577WAT     H182973   8.984   3.907   3.670
27577WAT     H282974   8.859   3.999   3.720
27578WAT      O82975   0.463   7.875   8.989
27578WAT     H182976   0.477   7.883   8.891
27578WAT     H282977   0.546   7.903   9.037
27579WAT      O82978   7.931   6.945   2.405
27579WAT     H182979   8.000   7.017   2.414
27579WAT     H282980   7.859   6.960   2.473
27580WAT      O82981   4.679   0.255   0.572
27580WAT     H182982   4.677   0.180   0.506
27580WAT     H282983   4.588   0.297   0.578
27581WAT      O82984   2.356   4.583   5.865
27581WAT     H182985   2.407   4.507   5.824
27581WAT     H282986   2.293   4.548   5.934
27582WAT      O82987   7.157   7.536   3.197
27582WAT     H182988   7.168   7.496   3.106
27582WAT     H282989   7.075   7.593   3.199
27583WAT      O82990   7.633   9.235   3.679
27583WAT     H182991   7.537   9.256   3.661
27583WAT     H282992   7.650   9.237   3.777
27584WAT      O82993   6.588   2.580   5.104
27584WAT     H182994   6.549   2.615   5.019
27584WAT     H282995   6.687   2.591   5.102
27585WAT      O82996   6.924   1.082   4.028
27585WAT     H182997   6.933   1.128   4.116
27585WAT     H282998   6.964   0.990   4.035
27586WAT      O82999   4.377   2.286   0.892
27586WAT     H183000   4.466   2.261   0.853
27586WAT     H283001   4.372   2.253   0.986
27587WAT      O83002   0.809   2.181   1.634
27587WAT     H183003   0.828   2.157   1.729
27587WAT     H283004   0.876   2.137   1.574
27588WAT      O83005   3.641   6.580   7.962
27588WAT     H183006   3.655   6.536   7.873
27588WAT     H283007   3.654   6.514   8.035
27589WAT      O83008   4.678   3.575   0.441
27589WAT     H183009   4.724   3.657   0.407
27589WAT     H283010   4.643   3.593   0.533
27590WAT      O83011   9.590   5.209   1.932
27590WAT     H183012   9.566   5.242   1.841
27590WAT     H283013   9.528   5.135   1.957
27591WAT      O83014   0.648   1.492   0.546
27591WAT     H183015   0.618   1.543   0.465
27591WAT     H283016   0.694   1.555   0.609
27592WAT      O83017   0.402   7.736   1.653
27592WAT     H183018   0.412   7.754   1.555
27592WAT     H283019   0.420   7.820   1.705
27593WAT      O83020   2.905   8.628   4.116
27593WAT     H183021   2.911   8.604   4.212
27593WAT     H283022   2.948   8.557   4.060
27594WAT      O83023   5.973   0.020   4.140
27594WAT     H183024   6.045  -0.036   4.180
27594WAT     H283025   6.005   0.114   4.131
27595WAT      O83026   8.157   5.190   2.419
27595WAT     H183027   8.251   5.161   2.403
27595WAT     H283028   8.094   5.127   2.373
27596WAT      O83029   4.130   8.500   2.531
27596WAT     H183030   4.220   8.466   2.505
27596WAT     H283031   4.134   8.538   2.624
27597WAT      O83032   7.875   4.471   9.866
27597WAT     H183033   7.776   4.468   9.880
27597WAT     H283034   7.899   4.418   9.785
27598WAT      O83035   5.032   9.452   8.039
27598WAT     H183036   5.010   9.365   7.995
27598WAT     H283037   5.128   9.452   8.068
27599WAT      O83038   6.698   3.430   7.867
27599WAT     H183039   6.774   3.412   7.931
27599WAT     H283040   6.659   3.520   7.886
27600WAT      O83041   3.329   1.775   0.968
27600WAT     H183042   3.354   1.815   0.880
27600WAT     H283043   3.238   1.735   0.962
27601WAT      O83044   4.026   0.059   6.291
27601WAT     H183045   3.991   0.008   6.213
27601WAT     H283046   3.969   0.140   6.306
27602WAT      O83047   9.035   9.470   2.678
27602WAT     H183048   8.959   9.485   2.742
27602WAT     H283049   9.030   9.377   2.642
27603WAT      O83050   0.714   9.093   3.528
27603WAT     H183051   0.787   9.073   3.462
27603WAT     H283052   0.671   9.008   3.558
27604WAT      O83053   4.000   0.975   1.235
27604WAT     H183054   3.994   1.018   1.145
27604WAT     H283055   4.092   0.941   1.249
27605WAT      O83056   4.418   7.140   9.397
27605WAT     H183057   4.502   7.192   9.408
27605WAT     H283058   4.344   7.185   9.447
27606WAT      O83059   0.422   2.818   8.770
27606WAT     H183060   0.365   2.825   8.851
27606WAT     H283061   0.381   2.752   8.706
27607WAT      O83062   2.642   4.662   7.257
27607WAT     H183063   2.615   4.678   7.162
27607WAT     H283064   2.657   4.750   7.303
27608WAT      O83065   3.724   6.921   1.629
27608WAT     H183066   3.723   6.987   1.704
27608WAT     H283067   3.664   6.844   1.651
27609WAT      O83068   7.526   3.662   2.576
27609WAT     H183069   7.610   3.716   2.566
27609WAT     H283070   7.537   3.575   2.527
27610WAT      O83071   1.897   0.047   6.641
27610WAT     H183072   1.871   0.061   6.736
27610WAT     H283073   1.834  -0.018   6.598
27611WAT      O83074   0.444   0.658   0.567
27611WAT     H183075   0.525   0.630   0.516
27611WAT     H283076   0.366   0.666   0.505
27612WAT      O83077   1.585   5.243   0.586
27612WAT     H183078   1.508   5.284   0.538
27612WAT     H283079   1.639   5.315   0.630
27613WAT      O83080   1.054   5.539   5.255
27613WAT     H183081   0.958   5.532   5.227
27613WAT     H283082   1.064   5.502   5.348
27614WAT      O83083   7.400   1.510   3.102
27614WAT     H183084   7.483   1.550   3.063
27614WAT     H283085   7.365   1.569   3.174
27615WAT      O83086   0.796   0.459   3.406
27615WAT     H183087   0.851   0.377   3.393
27615WAT     H283088   0.703   0.442   3.374
27616WAT      O83089   6.941   3.445   6.040
27616WAT     H183090   6.956   3.351   6.071
27616WAT     H283091   6.977   3.509   6.107
27617WAT      O83092   9.145   0.590   1.723
27617WAT     H183093   9.054   0.613   1.687
27617WAT     H283094   9.150   0.492   1.742
27618WAT      O83095   8.619   3.720   2.925
27618WAT     H183096   8.545   3.769   2.971
27618WAT     H283097   8.638   3.634   2.973
27619WAT      O83098   1.301   2.438   0.229
27619WAT     H183099   1.259   2.431   0.139
27619WAT     H283100   1.296   2.532   0.262
27620WAT      O83101   2.878   5.522   3.109
27620WAT     H183102   2.973   5.507   3.084
27620WAT     H283103   2.837   5.436   3.139
27621WAT      O83104   4.198   6.057   7.593
27621WAT     H183105   4.158   5.968   7.612
27621WAT     H283106   4.139   6.108   7.530
27622WAT      O83107   4.749   1.114   6.498
27622WAT     H183108   4.830   1.094   6.553
27622WAT     H283109   4.673   1.057   6.529
27623WAT      O83110   5.962   1.585   2.609
27623WAT     H183111   5.938   1.602   2.705
27623WAT     H283112   5.976   1.487   2.595
27624WAT      O83113   8.670   4.550   3.995
27624WAT     H183114   8.640   4.528   4.088
27624WAT     H283115   8.761   4.592   3.998
27625WAT      O83116   3.612   6.671   2.086
27625WAT     H183117   3.668   6.623   2.019
27625WAT     H283118   3.591   6.763   2.053
27626WAT      O83119   8.612   5.195   3.253
27626WAT     H183120   8.637   5.198   3.349
27626WAT     H283121   8.545   5.267   3.234
27627WAT      O83122   1.662   9.473   6.033
27627WAT     H183123   1.568   9.462   6.063
27627WAT     H283124   1.713   9.389   6.052
27628WAT      O83125   8.376   3.039   4.708
27628WAT     H183126   8.415   3.109   4.649
27628WAT     H283127   8.355   2.957   4.654
27629WAT      O83128   7.439   7.422   8.653
27629WAT     H183129   7.370   7.390   8.589
27629WAT     H283130   7.456   7.352   8.722
27630WAT      O83131   3.925   8.772   5.066
27630WAT     H183132   3.906   8.819   5.152
27630WAT     H283133   4.022   8.747   5.062
27631WAT      O83134   1.874   3.654   1.665
27631WAT     H183135   1.939   3.699   1.726
27631WAT     H283136   1.914   3.569   1.630
27632WAT      O83137   3.037   9.629   9.088
27632WAT     H183138   3.002   9.642   8.996
27632WAT     H283139   3.114   9.691   9.104
27633WAT      O83140   6.161   6.080   8.040
27633WAT     H183141   6.118   6.081   7.950
27633WAT     H283142   6.210   6.166   8.055
27634WAT      O83143   5.469   5.854   0.290
27634WAT     H183144   5.414   5.779   0.328
27634WAT     H283145   5.408   5.924   0.253
27635WAT      O83146   2.104   7.492   6.765
27635WAT     H183147   2.020   7.522   6.809
27635WAT     H283148   2.084   7.418   6.701
27636WAT      O83149   6.849   3.833   5.717
27636WAT     H183150   6.822   3.902   5.784
27636WAT     H283151   6.855   3.744   5.762
27637WAT      O83152   2.976   8.799   6.598
27637WAT     H183153   3.053   8.853   6.566
27637WAT     H283154   2.890   8.840   6.566
27638WAT      O83155   9.776   6.171   2.890
27638WAT     H183156   9.808   6.187   2.984
27638WAT     H283157   9.793   6.252   2.835
27639WAT      O83158   3.831   8.005   2.162
27639WAT     H183159   3.765   8.042   2.228
27639WAT     H283160   3.856   7.912   2.188
27640WAT      O83161   9.628   9.376   9.530
27640WAT     H183162   9.645   9.422   9.444
27640WAT     H283163   9.564   9.430   9.585
27641WAT      O83164   6.087   1.380   5.801
27641WAT     H183165   5.996   1.404   5.769
27641WAT     H283166   6.106   1.284   5.780
27642WAT      O83167   1.127   5.072   2.898
27642WAT     H183168   1.182   5.047   2.979
27642WAT     H283169   1.031   5.083   2.925
27643WAT      O83170   3.500   5.495   1.072
27643WAT     H183171   3.577   5.523   1.015
27643WAT     H283172   3.499   5.395   1.080
27644WAT      O83173   1.020   0.593   7.775
27644WAT     H183174   1.006   0.692   7.770
27644WAT     H283175   0.969   0.549   7.702
27645WAT      O83176   5.883   5.401   6.443
27645WAT     H183177   5.924   5.488   6.467
27645WAT     H283178   5.951   5.328   6.453
27646WAT      O83179   1.288   8.154   3.229
27646WAT     H183180   1.354   8.080   3.217
27646WAT     H283181   1.315   8.211   3.307
27647WAT      O83182   3.364   8.953   4.425
27647WAT     H183183   3.370   8.866   4.375
27647WAT     H283184   3.456   8.982   4.451
27648WAT      O83185   1.889   0.817   7.246
27648WAT     H183186   1.911   0.914   7.231
27648WAT     H283187   1.892   0.768   7.159
27649WAT      O83188   8.953   9.746   5.673
27649WAT     H183189   8.911   9.810   5.608
27649WAT     H283190   8.990   9.796   5.751
27650WAT      O83191   4.367   8.058   5.844
27650WAT     H183192   4.314   8.143   5.848
27650WAT     H283193   4.423   8.050   5.927
27651WAT      O83194   6.654   0.146   9.278
27651WAT     H183195   6.586   0.209   9.242
27651WAT     H283196   6.660   0.157   9.377
27652WAT      O83197   9.320   2.116   0.561
27652WAT     H183198   9.380   2.193   0.539
27652WAT     H283199   9.317   2.105   0.661
27653WAT      O83200   7.920   1.219   8.954
27653WAT     H183201   8.002   1.251   8.906
27653WAT     H283202   7.871   1.154   8.896
27654WAT      O83203   1.696   6.268   6.699
27654WAT     H183204   1.758   6.330   6.748
27654WAT     H283205   1.749   6.208   6.640
27655WAT      O83206   0.990   0.638   3.366
27655WAT     H183207   0.918   0.571   3.386
27655WAT     H283208   1.076   0.607   3.405
27656WAT      O83209   8.208   5.103   4.583
27656WAT     H183210   8.199   5.035   4.656
27656WAT     H283211   8.283   5.165   4.605
27657WAT      O83212   8.077   1.122   2.867
27657WAT     H183213   7.982   1.136   2.838
27657WAT     H283214   8.096   1.024   2.873
27658WAT      O83215   2.985   5.160   4.968
27658WAT     H183216   2.931   5.173   5.052
27658WAT     H283217   2.926   5.124   4.896
27659WAT      O83218   5.761   5.819   8.974
27659WAT     H183219   5.712   5.792   9.057
27659WAT     H283220   5.857   5.835   8.995
27660WAT      O83221   8.125   2.803   3.193
27660WAT     H183222   8.053   2.872   3.183
27660WAT     H283223   8.205   2.844   3.237
27661WAT      O83224   0.645   5.080   4.043
27661WAT     H183225   0.681   4.987   4.039
27661WAT     H283226   0.651   5.114   4.136
27662WAT      O83227   4.068   7.529   5.811
27662WAT     H183228   3.988   7.503   5.864
27662WAT     H283229   4.070   7.629   5.800
27663WAT      O83230   7.801   6.460   7.219
27663WAT     H183231   7.845   6.511   7.293
27663WAT     H283232   7.732   6.518   7.176
27664WAT      O83233   1.044   3.507   5.666
27664WAT     H183234   1.085   3.434   5.721
27664WAT     H283235   1.108   3.534   5.594
27665WAT      O83236   8.131   5.119   8.331
27665WAT     H183237   8.061   5.088   8.267
27665WAT     H283238   8.158   5.212   8.308
27666WAT      O83239   1.302   5.560   1.841
27666WAT     H183240   1.353   5.559   1.927
27666WAT     H283241   1.366   5.566   1.765
27667WAT      O83242   7.885   8.894   5.807
27667WAT     H183243   7.878   8.806   5.853
27667WAT     H283244   7.940   8.956   5.862
27668WAT      O83245   0.542   6.969   5.217
27668WAT     H183246   0.533   7.067   5.233
27668WAT     H283247   0.571   6.923   5.301
27669WAT      O83248   8.403   0.872   4.919
27669WAT     H183249   8.463   0.818   4.977
27669WAT     H283250   8.419   0.970   4.935
27670WAT      O83251   5.968   2.093   9.516
27670WAT     H183252   6.028   2.122   9.591
27670WAT     H283253   5.885   2.053   9.554
27671WAT      O83254   1.226   7.857   3.679
27671WAT     H183255   1.294   7.882   3.748
27671WAT     H283256   1.162   7.791   3.719
27672WAT      O83257   3.154   6.498   9.022
27672WAT     H183258   3.178   6.544   9.108
27672WAT     H283259   3.237   6.461   8.981
27673WAT      O83260   0.482   3.045   7.112
27673WAT     H183261   0.430   3.130   7.119
27673WAT     H283262   0.439   2.975   7.168
27674WAT      O83263   6.868   4.712   3.096
27674WAT     H183264   6.945   4.703   3.160
27674WAT     H283265   6.893   4.673   3.008
27675WAT      O83266   8.707   6.387   8.131
27675WAT     H183267   8.755   6.414   8.047
27675WAT     H283268   8.678   6.469   8.180
27676WAT      O83269   3.997   4.111   9.281
27676WAT     H183270   4.089   4.090   9.313
27676WAT     H283271   3.930   4.066   9.340
27677WAT      O83272   0.261   1.855   9.361
27677WAT     H183273   0.239   1.795   9.284
27677WAT     H283274   0.359   1.850   9.380
27678WAT      O83275   9.576   6.221   8.005
27678WAT     H183276   9.551   6.202   8.100
27678WAT     H283277   9.503   6.189   7.944
27679WAT      O83278   6.954   6.695   2.161
27679WAT     H183279   6.925   6.607   2.123
27679WAT     H283280   6.971   6.760   2.086
27680WAT      O83281   2.611   4.902   3.108
27680WAT     H183282   2.622   4.955   3.192
27680WAT     H283283   2.515   4.877   3.097
27681WAT      O83284   4.989   0.709   5.782
27681WAT     H183285   4.914   0.643   5.780
27681WAT     H283286   5.076   0.660   5.785
27682WAT      O83287   2.421   0.719   9.760
27682WAT     H183288   2.468   0.746   9.675
27682WAT     H283289   2.370   0.797   9.795
27683WAT      O83290   9.202   4.445   3.749
27683WAT     H183291   9.117   4.398   3.726
27683WAT     H283292   9.241   4.485   3.666
27684WAT      O83293   8.079   4.934   8.835
27684WAT     H183294   8.018   5.010   8.858
27684WAT     H283295   8.099   4.937   8.737
27685WAT      O83296   2.835   7.847   6.985
27685WAT     H183297   2.784   7.761   6.988
27685WAT     H283298   2.912   7.843   7.049
27686WAT      O83299   3.132   7.429   8.194
27686WAT     H183300   3.214   7.483   8.174
27686WAT     H283301   3.111   7.371   8.116
27687WAT      O83302   1.760   8.078   3.750
27687WAT     H183303   1.661   8.074   3.736
27687WAT     H283304   1.785   8.169   3.782
27688WAT      O83305   6.158   5.796   4.891
27688WAT     H183306   6.137   5.791   4.793
27688WAT     H283307   6.191   5.707   4.922
27689WAT      O83308   3.657   0.724   2.327
27689WAT     H183309   3.669   0.813   2.373
27689WAT     H283310   3.565   0.719   2.289
27690WAT      O83311   0.640   6.679   3.414
27690WAT     H183312   0.703   6.733   3.359
27690WAT     H283313   0.691   6.614   3.470
27691WAT      O83314   4.086   9.009   2.693
27691WAT     H183315   4.041   8.977   2.777
27691WAT     H283316   4.026   8.993   2.615
27692WAT      O83317   8.241   9.221   8.413
27692WAT     H183318   8.291   9.158   8.472
27692WAT     H283319   8.155   9.247   8.457
27693WAT      O83320   6.680   3.764   2.272
27693WAT     H183321   6.724   3.809   2.350
27693WAT     H283322   6.740   3.691   2.238
27694WAT      O83323   2.862   7.396   6.210
27694WAT     H183324   2.928   7.323   6.194
27694WAT     H283325   2.821   7.385   6.300
27695WAT      O83326   7.107   6.710   9.541
27695WAT     H183327   7.170   6.762   9.483
27695WAT     H283328   7.141   6.710   9.635
27696WAT      O83329   2.482   5.713   1.288
27696WAT     H183330   2.412   5.685   1.353
27696WAT     H283331   2.570   5.720   1.335
27697WAT      O83332   4.925   1.629   0.624
27697WAT     H183333   4.984   1.576   0.685
27697WAT     H283334   4.889   1.569   0.553
27698WAT      O83335   5.591   0.538   4.268
27698WAT     H183336   5.596   0.585   4.356
27698WAT     H283337   5.519   0.580   4.212
27699WAT      O83338   8.333   2.043   1.247
27699WAT     H183339   8.268   2.093   1.191
27699WAT     H283340   8.427   2.062   1.217
27700WAT      O83341   5.002   6.902   7.811
27700WAT     H183342   4.969   6.996   7.825
27700WAT     H283343   4.925   6.844   7.782
27701WAT      O83344   2.504   3.606   1.156
27701WAT     H183345   2.540   3.521   1.196
27701WAT     H283346   2.564   3.682   1.180
27702WAT      O83347   1.242   5.776   3.084
27702WAT     H183348   1.252   5.677   3.084
27702WAT     H283349   1.271   5.813   3.172
27703WAT      O83350   2.749   1.558   8.370
27703WAT     H183351   2.807   1.477   8.364
27703WAT     H283352   2.761   1.602   8.459
27704WAT      O83353   2.163   8.582   7.525
27704WAT     H183354   2.174   8.483   7.520
27704WAT     H283355   2.104   8.613   7.450
27705WAT      O83356   4.051   7.664   4.851
27705WAT     H183357   4.060   7.640   4.755
27705WAT     H283358   4.034   7.581   4.905
27706WAT      O83359   7.319   7.723   4.124
27706WAT     H183360   7.370   7.776   4.191
27706WAT     H283361   7.295   7.783   4.047
27707WAT      O83362   1.529   4.845   1.737
27707WAT     H183363   1.519   4.768   1.799
27707WAT     H283364   1.493   4.820   1.647
27708WAT      O83365   4.475   4.657   1.951
27708WAT     H183366   4.384   4.699   1.949
27708WAT     H283367   4.466   4.559   1.969
27709WAT      O83368   9.463   3.960   8.921
27709WAT     H183369   9.394   3.973   8.992
27709WAT     H283370   9.430   3.891   8.856
27710WAT      O83371   2.406   3.164   8.078
27710WAT     H183372   2.407   3.248   8.132
27710WAT     H283373   2.390   3.086   8.139
27711WAT      O83374   8.059   9.575   4.265
27711WAT     H183375   8.003   9.561   4.183
27711WAT     H283376   8.138   9.631   4.242
27712WAT      O83377   8.651   1.323   4.679
27712WAT     H183378   8.674   1.229   4.655
27712WAT     H283379   8.564   1.348   4.636
27713WAT      O83380   7.371   6.953   8.817
27713WAT     H183381   7.358   6.961   8.719
27713WAT     H283382   7.465   6.922   8.836
27714WAT      O83383   5.414   1.084   5.886
27714WAT     H183384   5.393   1.012   5.820
27714WAT     H283385   5.471   1.153   5.842
27715WAT      O83386   2.269   5.880   3.072
27715WAT     H183387   2.227   5.968   3.050
27715WAT     H283388   2.283   5.828   2.988
27716WAT      O83389   8.798   1.386   5.230
27716WAT     H183390   8.742   1.425   5.303
27716WAT     H283391   8.813   1.455   5.159
27717WAT      O83392   5.814   0.953   8.566
27717WAT     H183393   5.856   1.011   8.497
27717WAT     H283394   5.806   1.004   8.652
27718WAT      O83395   5.200   8.382   2.882
27718WAT     H183396   5.285   8.384   2.935
27718WAT     H283397   5.146   8.303   2.910
27719WAT      O83398   1.690   4.040   2.235
27719WAT     H183399   1.635   3.966   2.195
27719WAT     H283400   1.661   4.055   2.330
27720WAT      O83401   8.555   8.317   0.879
27720WAT     H183402   8.576   8.219   0.879
27720WAT     H283403   8.487   8.337   0.809
27721WAT      O83404   8.006   1.588   0.781
27721WAT     H183405   7.932   1.646   0.745
27721WAT     H283406   8.073   1.571   0.709
27722WAT      O83407   0.618   4.501   2.033
27722WAT     H183408   0.585   4.441   2.105
27722WAT     H283409   0.541   4.534   1.978
27723WAT      O83410   4.359   5.581   0.274
27723WAT     H183411   4.388   5.672   0.246
27723WAT     H283412   4.328   5.529   0.194
27724WAT      O83413   6.593   4.398   8.750
27724WAT     H183414   6.658   4.388   8.675
27724WAT     H283415   6.583   4.311   8.798
27725WAT      O83416   7.036   7.506   9.713
27725WAT     H183417   7.100   7.447   9.762
27725WAT     H283418   6.944   7.466   9.719
27726WAT      O83419   6.759   2.544   6.582
27726WAT     H183420   6.791   2.557   6.675
27726WAT     H283421   6.663   2.513   6.583
27727WAT      O83422   4.330   9.144   8.250
27727WAT     H183423   4.379   9.229   8.269
27727WAT     H283424   4.244   9.165   8.202
27728WAT      O83425   1.465   4.457   4.385
27728WAT     H183426   1.463   4.550   4.348
27728WAT     H283427   1.535   4.452   4.457
27729WAT      O83428   9.226   7.434   3.130
27729WAT     H183429   9.167   7.411   3.208
27729WAT     H283430   9.188   7.393   3.047
27730WAT      O83431   3.544   4.831   0.280
27730WAT     H183432   3.456   4.864   0.314
27730WAT     H283433   3.611   4.906   0.281
27731WAT      O83434   6.207   6.275   7.727
27731WAT     H183435   6.182   6.322   7.812
27731WAT     H283436   6.155   6.314   7.652
27732WAT      O83437   2.960   6.931   0.371
27732WAT     H183438   2.887   6.890   0.317
27732WAT     H283439   2.961   6.889   0.462
27733WAT      O83440   8.330   2.037   7.840
27733WAT     H183441   8.385   1.954   7.851
27733WAT     H283442   8.243   2.013   7.798
27734WAT      O83443   5.964   1.011   3.624
27734WAT     H183444   6.014   1.094   3.648
27734WAT     H283445   5.883   1.003   3.682
27735WAT      O83446   4.493   5.813   2.745
27735WAT     H183447   4.497   5.757   2.828
27735WAT     H283448   4.546   5.896   2.759
27736WAT      O83449   2.077   0.019   4.961
27736WAT     H183450   2.070   0.014   4.861
27736WAT     H283451   2.140   0.093   4.986
27737WAT      O83452   0.242   4.304   4.304
27737WAT     H183453   0.224   4.402   4.318
27737WAT     H283454   0.333   4.282   4.338
27738WAT      O83455   5.526   2.599   2.119
27738WAT     H183456   5.597   2.659   2.156
27738WAT     H283457   5.452   2.655   2.082
27739WAT      O83458   0.955   3.603   6.011
27739WAT     H183459   0.892   3.595   5.933
27739WAT     H283460   0.915   3.559   6.091
27740WAT      O83461   6.967   2.892   4.467
27740WAT     H183462   6.894   2.897   4.399
27740WAT     H283463   7.040   2.956   4.443
27741WAT      O83464   6.168   3.681   6.135
27741WAT     H183465   6.156   3.779   6.121
27741WAT     H283466   6.265   3.661   6.151
27742WAT      O83467   0.554   2.608   0.111
27742WAT     H183468   0.490   2.540   0.075
27742WAT     H283469   0.523   2.639   0.201
27743WAT      O83470   8.121   7.186   7.224
27743WAT     H183471   8.032   7.231   7.223
27743WAT     H283472   8.194   7.254   7.214
27744WAT      O83473   2.384   1.702   0.641
27744WAT     H183474   2.285   1.687   0.635
27744WAT     H283475   2.432   1.631   0.589
27745WAT      O83476   8.084   6.451   1.657
27745WAT     H183477   8.085   6.541   1.615
27745WAT     H283478   8.178   6.423   1.679
27746WAT      O83479   8.967   8.391   9.295
27746WAT     H183480   8.949   8.430   9.205
27746WAT     H283481   9.065   8.388   9.312
27747WAT      O83482   6.900   1.586   7.596
27747WAT     H183483   6.879   1.589   7.498
27747WAT     H283484   6.880   1.495   7.632
27748WAT      O83485   0.624   4.734   9.609
27748WAT     H183486   0.594   4.729   9.704
27748WAT     H283487   0.559   4.788   9.556
27749WAT      O83488   8.055   4.584   7.153
27749WAT     H183489   7.984   4.558   7.087
27749WAT     H283490   8.019   4.651   7.217
27750WAT      O83491   2.971   6.710   7.091
27750WAT     H183492   3.015   6.702   7.002
27750WAT     H283493   3.000   6.795   7.135
27751WAT      O83494   6.443   1.679   1.539
27751WAT     H183495   6.443   1.584   1.569
27751WAT     H283496   6.380   1.732   1.598
27752WAT      O83497   2.551   3.014   4.439
27752WAT     H183498   2.493   2.948   4.487
27752WAT     H283499   2.561   2.987   4.343
27753WAT      O83500   5.737   6.685   4.053
27753WAT     H183501   5.829   6.723   4.059
27753WAT     H283502   5.686   6.731   3.979
27754WAT      O83503   9.641   7.172   2.361
27754WAT     H183504   9.714   7.111   2.330
27754WAT     H283505   9.621   7.153   2.457
27755WAT      O83506   8.803   9.117   5.259
27755WAT     H183507   8.866   9.049   5.297
27755WAT     H283508   8.783   9.094   5.163
27756WAT      O83509   8.595   6.165   1.146
27756WAT     H183510   8.570   6.244   1.201
27756WAT     H283511   8.565   6.081   1.192
27757WAT      O83512   1.194   0.958   0.362
27757WAT     H183513   1.181   0.880   0.302
27757WAT     H283514   1.273   1.012   0.332
27758WAT      O83515   2.723   6.009   9.818
27758WAT     H183516   2.737   5.914   9.790
27758WAT     H283517   2.787   6.033   9.890
27759WAT      O83518   3.268   0.524   7.803
27759WAT     H183519   3.187   0.571   7.768
27759WAT     H283520   3.240   0.438   7.846
27760WAT      O83521   7.399   1.653   4.656
27760WAT     H183522   7.450   1.594   4.719
27760WAT     H283523   7.416   1.624   4.562
27761WAT      O83524   1.226   2.770   3.436
27761WAT     H183525   1.300   2.824   3.477
27761WAT     H283526   1.160   2.832   3.393
27762WAT      O83527   3.465   2.381   5.894
27762WAT     H183528   3.425   2.460   5.847
27762WAT     H283529   3.408   2.300   5.877
27763WAT      O83530   4.714   4.785   1.889
27763WAT     H183531   4.640   4.717   1.891
27763WAT     H283532   4.712   4.834   1.802
27764WAT      O83533   3.031   1.856   6.893
27764WAT     H183534   2.958   1.838   6.828
27764WAT     H283535   3.106   1.903   6.847
27765WAT      O83536   3.566   0.880   6.196
27765WAT     H183537   3.545   0.918   6.106
27765WAT     H283538   3.619   0.946   6.249
27766WAT      O83539   3.067   8.966   0.896
27766WAT     H183540   3.087   8.868   0.906
27766WAT     H283541   3.144   9.011   0.850
27767WAT      O83542   6.658   0.857   7.321
27767WAT     H183543   6.712   0.773   7.315
27767WAT     H283544   6.610   0.873   7.236
27768WAT      O83545   0.424   2.671   3.085
27768WAT     H183546   0.400   2.703   3.177
27768WAT     H283547   0.523   2.679   3.072
27769WAT      O83548   4.559   1.119   6.098
27769WAT     H183549   4.523   1.173   6.022
27769WAT     H283550   4.625   1.174   6.150
27770WAT      O83551   8.977   1.926   7.135
27770WAT     H183552   8.957   1.890   7.044
27770WAT     H283553   9.047   1.869   7.178
27771WAT      O83554   8.347   3.393   4.096
27771WAT     H183555   8.308   3.435   4.178
27771WAT     H283556   8.311   3.439   4.015
27772WAT      O83557   6.157   5.695   1.365
27772WAT     H183558   6.063   5.684   1.397
27772WAT     H283559   6.173   5.791   1.342
27773WAT      O83560   6.205   7.235   6.851
27773WAT     H183561   6.181   7.332   6.864
27773WAT     H283562   6.122   7.180   6.847
27774WAT      O83563   0.821   9.351   9.435
27774WAT     H183564   0.721   9.349   9.437
27774WAT     H283565   0.856   9.257   9.437
27775WAT      O83566   4.096   8.220   3.268
27775WAT     H183567   4.104   8.185   3.361
27775WAT     H283568   4.023   8.289   3.265
27776WAT      O83569   7.650   9.495   6.333
27776WAT     H183570   7.564   9.471   6.289
27776WAT     H283571   7.661   9.442   6.418
27777WAT      O83572   3.757   2.207   8.304
27777WAT     H183573   3.816   2.188   8.383
27777WAT     H283574   3.684   2.138   8.300
27778WAT      O83575   4.178   1.868   0.744
27778WAT     H183576   4.139   1.958   0.723
27778WAT     H283577   4.137   1.799   0.684
27779WAT      O83578   6.687   5.458   2.879
27779WAT     H183579   6.771   5.468   2.932
27779WAT     H283580   6.710   5.445   2.783
27780WAT      O83581   1.066   2.792   6.738
27780WAT     H183582   1.014   2.848   6.673
27780WAT     H283583   1.083   2.844   6.821
27781WAT      O83584   8.022   6.373   0.922
27781WAT     H183585   8.066   6.408   0.839
27781WAT     H283586   8.091   6.338   0.984
27782WAT      O83587   6.875   2.561   2.713
27782WAT     H183588   6.903   2.502   2.637
27782WAT     H283589   6.951   2.569   2.778
27783WAT      O83590   5.023   6.246   4.821
27783WAT     H183591   4.968   6.301   4.884
27783WAT     H283592   4.970   6.167   4.791
27784WAT      O83593   8.354   8.623   8.544
27784WAT     H183594   8.356   8.636   8.644
27784WAT     H283595   8.424   8.680   8.502
27785WAT      O83596   5.250   2.794   1.046
27785WAT     H183597   5.187   2.810   1.122
27785WAT     H283598   5.225   2.710   0.999
27786WAT      O83599   1.804   5.090   4.634
27786WAT     H183600   1.848   5.009   4.595
27786WAT     H283601   1.874   5.149   4.676
27787WAT      O83602   5.622   7.960   6.680
27787WAT     H183603   5.545   7.925   6.627
27787WAT     H283604   5.596   8.048   6.721
27788WAT      O83605   5.372   5.677   6.235
27788WAT     H183606   5.362   5.626   6.320
27788WAT     H283607   5.465   5.665   6.200
27789WAT      O83608   5.390   3.670   7.361
27789WAT     H183609   5.425   3.742   7.421
27789WAT     H283610   5.317   3.621   7.407
27790WAT      O83611   4.988   9.733   9.424
27790WAT     H183612   4.894   9.698   9.420
27790WAT     H283613   5.047   9.665   9.466
27791WAT      O83614   0.596   3.670   9.746
27791WAT     H183615   0.634   3.736   9.681
27791WAT     H283616   0.522   3.619   9.702
27792WAT      O83617   2.333   7.836   1.269
27792WAT     H183618   2.425   7.856   1.234
27792WAT     H283619   2.285   7.777   1.204
27793WAT      O83620   8.111   1.215   0.732
27793WAT     H183621   8.179   1.230   0.661
27793WAT     H283622   8.140   1.262   0.816
27794WAT      O83623   9.121   6.435   9.331
27794WAT     H183624   9.081   6.374   9.400
27794WAT     H283625   9.060   6.441   9.253
27795WAT      O83626   0.777   1.555   0.957
27795WAT     H183627   0.820   1.529   0.870
27795WAT     H283628   0.699   1.496   0.975
27796WAT      O83629   4.616   3.442   9.209
27796WAT     H183630   4.606   3.492   9.122
27796WAT     H283631   4.707   3.400   9.211
27797WAT      O83632   4.880   0.404   9.738
27797WAT     H183633   4.870   0.427   9.641
27797WAT     H283634   4.835   0.316   9.756
27798WAT      O83635   2.614   5.973   4.235
27798WAT     H183636   2.703   5.948   4.198
27798WAT     H283637   2.607   6.073   4.241
27799WAT      O83638   3.500   0.337   4.934
27799WAT     H183639   3.578   0.391   4.903
27799WAT     H283640   3.472   0.275   4.862
27800WAT      O83641   6.021   5.055   0.734
27800WAT     H183642   6.106   5.085   0.776
27800WAT     H283643   5.957   5.027   0.806
27801WAT      O83644   5.380   1.540   4.722
27801WAT     H183645   5.333   1.537   4.810
27801WAT     H283646   5.409   1.447   4.697
27802WAT      O83647   6.723   7.195   2.857
27802WAT     H183648   6.701   7.106   2.897
27802WAT     H283649   6.788   7.243   2.916
27803WAT      O83650   1.154   6.997   8.628
27803WAT     H183651   1.240   7.008   8.678
27803WAT     H283652   1.117   6.905   8.646
27804WAT      O83653   3.356   7.347   3.030
27804WAT     H183654   3.300   7.423   3.063
27804WAT     H283655   3.301   7.290   2.969
27805WAT      O83656   2.928   6.515   3.259
27805WAT     H183657   2.834   6.549   3.250
27805WAT     H283658   2.959   6.528   3.353
27806WAT      O83659   5.384   3.109   7.052
27806WAT     H183660   5.387   3.063   7.141
27806WAT     H283661   5.290   3.110   7.018
27807WAT      O83662   6.342   1.334   2.098
27807WAT     H183663   6.261   1.384   2.066
27807WAT     H283664   6.419   1.356   2.039
27808WAT      O83665   8.104   2.911   1.265
27808WAT     H183666   8.190   2.871   1.297
27808WAT     H283667   8.087   2.997   1.314
27809WAT      O83668   7.968   2.331   3.213
27809WAT     H183669   8.047   2.323   3.273
27809WAT     H283670   7.999   2.332   3.118
27810WAT      O83671   8.700   0.946   1.565
27810WAT     H183672   8.722   0.982   1.474
27810WAT     H283673   8.602   0.927   1.571
27811WAT      O83674   2.716   1.750   1.724
27811WAT     H183675   2.740   1.837   1.680
27811WAT     H283676   2.631   1.761   1.776
27812WAT      O83677   0.452   2.714   0.342
27812WAT     H183678   0.357   2.745   0.331
27812WAT     H283679   0.512   2.794   0.350
27813WAT      O83680   6.611   9.548   8.970
27813WAT     H183681   6.601   9.611   9.048
27813WAT     H283682   6.680   9.478   8.993
27814WAT      O83683   1.519   1.279   7.457
27814WAT     H183684   1.427   1.258   7.424
27814WAT     H283685   1.563   1.196   7.490
27815WAT      O83686   7.910   8.435   8.950
27815WAT     H183687   7.945   8.440   8.857
27815WAT     H283688   7.947   8.355   8.996
27816WAT      O83689   4.137   2.525   6.121
27816WAT     H183690   4.052   2.531   6.068
27816WAT     H283691   4.211   2.569   6.071
27817WAT      O83692   0.344   9.417   7.572
27817WAT     H183693   0.265   9.357   7.585
27817WAT     H283694   0.312   9.512   7.563
27818WAT      O83695   1.194   5.514   3.570
27818WAT     H183696   1.234   5.433   3.527
27818WAT     H283697   1.127   5.555   3.509
27819WAT      O83698   2.148   7.900   3.700
27819WAT     H183699   2.153   7.878   3.797
27819WAT     H283700   2.055   7.883   3.667
27820WAT      O83701   3.828   6.134   3.255
27820WAT     H183702   3.827   6.112   3.158
27820WAT     H283703   3.750   6.192   3.277
27821WAT      O83704   3.614   8.422   3.979
27821WAT     H183705   3.678   8.449   3.907
27821WAT     H283706   3.603   8.322   3.977
27822WAT      O83707   8.817   3.775   6.935
27822WAT     H183708   8.750   3.710   6.897
27822WAT     H283709   8.891   3.788   6.869
27823WAT      O83710   4.145   6.580   6.166
27823WAT     H183711   4.241   6.551   6.164
27823WAT     H283712   4.101   6.546   6.249
27824WAT      O83713   6.075   1.379   6.081
27824WAT     H183714   6.042   1.378   5.987
27824WAT     H283715   6.079   1.285   6.115
27825WAT      O83716   7.265   4.734   8.632
27825WAT     H183717   7.328   4.662   8.604
27825WAT     H283718   7.172   4.710   8.602
27826WAT      O83719   7.104   7.080   7.740
27826WAT     H183720   7.042   7.060   7.664
27826WAT     H283721   7.056   7.135   7.808
27827WAT      O83722   6.849   0.271   0.526
27827WAT     H183723   6.836   0.361   0.485
27827WAT     H283724   6.944   0.260   0.555
27828WAT      O83725   6.285   6.044   3.832
27828WAT     H183726   6.306   6.133   3.872
27828WAT     H283727   6.337   6.032   3.747
27829WAT      O83728   0.569   9.711   0.717
27829WAT     H183729   0.646   9.707   0.653
27829WAT     H283730   0.561   9.804   0.752
27830WAT      O83731   5.018   4.256   8.251
27830WAT     H183732   5.008   4.163   8.217
27830WAT     H283733   5.105   4.264   8.299
27831WAT      O83734   7.347   7.948   5.165
27831WAT     H183735   7.367   7.894   5.083
27831WAT     H283736   7.248   7.961   5.172
27832WAT      O83737   7.816   4.501   2.464
27832WAT     H183738   7.804   4.576   2.399
27832WAT     H283739   7.733   4.491   2.519
27833WAT      O83740   3.335   4.315   1.921
27833WAT     H183741   3.353   4.328   2.018
27833WAT     H283742   3.356   4.399   1.872
27834WAT      O83743   3.189   5.317   5.887
27834WAT     H183744   3.201   5.331   5.985
27834WAT     H283745   3.166   5.403   5.842
27835WAT      O83746   9.703   7.370   7.700
27835WAT     H183747   9.653   7.385   7.615
27835WAT     H283748   9.669   7.287   7.744
27836WAT      O83749   2.321   3.865   0.815
27836WAT     H183750   2.378   3.920   0.877
27836WAT     H283751   2.231   3.851   0.857
27837WAT      O83752   9.843   8.653   1.858
27837WAT     H183753   9.933   8.691   1.880
27837WAT     H283754   9.809   8.598   1.934
27838WAT      O83755   4.113   4.319   2.883
27838WAT     H183756   4.075   4.268   2.806
27838WAT     H283757   4.040   4.364   2.933
27839WAT      O83758   1.608   1.539   5.193
27839WAT     H183759   1.575   1.557   5.286
27839WAT     H283760   1.654   1.450   5.190
27840WAT      O83761   5.779   6.908   5.056
27840WAT     H183762   5.826   6.985   5.098
27840WAT     H283763   5.733   6.939   4.973
27841WAT      O83764   1.756   6.991   3.634
27841WAT     H183765   1.787   6.985   3.539
27841WAT     H283766   1.803   6.923   3.690
27842WAT      O83767   9.252   3.769   1.051
27842WAT     H183768   9.248   3.866   1.076
27842WAT     H283769   9.228   3.759   0.955
27843WAT      O83770   6.154   4.601   4.067
27843WAT     H183771   6.194   4.589   3.976
27843WAT     H283772   6.075   4.541   4.076
27844WAT      O83773   0.673   3.941   9.679
27844WAT     H183774   0.753   3.890   9.710
27844WAT     H283775   0.616   3.965   9.758
27845WAT      O83776   5.520   3.663   1.050
27845WAT     H183777   5.520   3.736   0.982
27845WAT     H283778   5.558   3.698   1.136
27846WAT      O83779   2.517   1.813   6.309
27846WAT     H183780   2.486   1.788   6.217
27846WAT     H283781   2.502   1.910   6.325
27847WAT      O83782   1.479   0.680   6.951
27847WAT     H183783   1.553   0.692   6.885
27847WAT     H283784   1.512   0.627   7.029
27848WAT      O83785   6.282   9.609   1.554
27848WAT     H183786   6.304   9.568   1.643
27848WAT     H283787   6.213   9.680   1.567
27849WAT      O83788   3.323   6.129   2.960
27849WAT     H183789   3.310   6.068   2.882
27849WAT     H283790   3.299   6.080   3.044
27850WAT      O83791   5.008   1.192   3.167
27850WAT     H183792   5.030   1.177   3.264
27850WAT     H283793   5.053   1.276   3.135
27851WAT      O83794   2.525   0.243   1.421
27851WAT     H183795   2.568   0.192   1.347
27851WAT     H283796   2.524   0.341   1.399
27852WAT      O83797   7.974   9.155   9.139
27852WAT     H183798   7.935   9.075   9.186
27852WAT     H283799   7.904   9.197   9.082
27853WAT      O83800   7.879   9.636   6.849
27853WAT     H183801   7.835   9.554   6.886
27853WAT     H283802   7.888   9.705   6.920
27854WAT      O83803   6.857   8.212   6.460
27854WAT     H183804   6.810   8.259   6.535
27854WAT     H283805   6.940   8.168   6.495
27855WAT      O83806   4.599   7.269   0.815
27855WAT     H183807   4.535   7.343   0.796
27855WAT     H283808   4.615   7.262   0.913
27856WAT      O83809   4.051   3.054   4.760
27856WAT     H183810   4.104   3.034   4.843
27856WAT     H283811   4.114   3.083   4.688
27857WAT      O83812   0.547   9.289   9.469
27857WAT     H183813   0.485   9.305   9.392
27857WAT     H283814   0.560   9.190   9.481
27858WAT      O83815   6.328   7.648   1.789
27858WAT     H183816   6.392   7.689   1.724
27858WAT     H283817   6.315   7.710   1.866
27859WAT      O83818   4.248   3.292   6.054
27859WAT     H183819   4.166   3.343   6.082
27859WAT     H283820   4.263   3.216   6.118
27860WAT      O83821   1.909   7.550   7.291
27860WAT     H183822   1.988   7.585   7.340
27860WAT     H283823   1.831   7.546   7.353
27861WAT      O83824   2.931   3.436   3.891
27861WAT     H183825   2.991   3.358   3.907
27861WAT     H283826   2.856   3.409   3.831
27862WAT      O83827   5.085   3.326   6.069
27862WAT     H183828   5.069   3.251   6.005
27862WAT     H283829   5.131   3.291   6.151
27863WAT      O83830   0.815   0.979   8.332
27863WAT     H183831   0.866   1.010   8.412
27863WAT     H283832   0.877   0.928   8.272
27864WAT      O83833   2.411   0.747   2.894
27864WAT     H183834   2.445   0.728   2.802
27864WAT     H283835   2.311   0.758   2.891
27865WAT      O83836   6.112   6.411   7.518
27865WAT     H183837   6.110   6.401   7.419
27865WAT     H283838   6.018   6.419   7.553
27866WAT      O83839   4.889   4.474   8.359
27866WAT     H183840   4.934   4.491   8.447
27866WAT     H283841   4.917   4.384   8.325
27867WAT      O83842   1.821   1.425   9.471
27867WAT     H183843   1.872   1.501   9.431
27867WAT     H283844   1.805   1.356   9.401
27868WAT      O83845   0.341   0.451   6.555
27868WAT     H183846   0.296   0.497   6.631
27868WAT     H283847   0.281   0.380   6.519
27869WAT      O83848   6.373   6.100   1.759
27869WAT     H183849   6.389   6.146   1.672
27869WAT     H283850   6.365   6.002   1.744
27870WAT      O83851   3.122   3.336   7.989
27870WAT     H183852   3.180   3.320   7.909
27870WAT     H283853   3.163   3.292   8.069
27871WAT      O83854   2.900   2.849   0.392
27871WAT     H183855   2.941   2.762   0.419
27871WAT     H283856   2.967   2.923   0.405
27872WAT      O83857   3.975   9.275   4.562
27872WAT     H183858   3.881   9.273   4.598
27872WAT     H283859   3.987   9.356   4.505
27873WAT      O83860   6.309   6.670   4.880
27873WAT     H183861   6.215   6.650   4.854
27873WAT     H283862   6.352   6.587   4.916
27874WAT      O83863   3.025   0.578   4.729
27874WAT     H183864   2.930   0.545   4.722
27874WAT     H283865   3.058   0.564   4.822
27875WAT      O83866   2.507   6.081   1.941
27875WAT     H183867   2.482   6.123   1.854
27875WAT     H283868   2.453   5.998   1.955
27876WAT      O83869   9.404   7.766   1.600
27876WAT     H183870   9.465   7.843   1.621
27876WAT     H283871   9.340   7.794   1.528
27877WAT      O83872   1.738   7.885   3.924
27877WAT     H183873   1.757   7.948   3.849
27877WAT     H283874   1.690   7.933   3.997
27878WAT      O83875   5.759   8.446   2.491
27878WAT     H183876   5.756   8.350   2.465
27878WAT     H283877   5.838   8.490   2.447
27879WAT      O83878   0.570   3.088   8.173
27879WAT     H183879   0.632   3.027   8.124
27879WAT     H283880   0.487   3.102   8.118
27880WAT      O83881   3.606   6.487   9.351
27880WAT     H183882   3.694   6.488   9.304
27880WAT     H283883   3.600   6.565   9.413
27881WAT      O83884   6.054   6.979   2.861
27881WAT     H183885   6.105   6.905   2.816
27881WAT     H283886   6.116   7.032   2.919
27882WAT      O83887   3.219   1.312   2.856
27882WAT     H183888   3.225   1.357   2.767
27882WAT     H283889   3.214   1.381   2.928
27883WAT      O83890   1.232   3.570   0.119
27883WAT     H183891   1.288   3.585   0.201
27883WAT     H283892   1.226   3.655   0.067
27884WAT      O83893   7.615   9.507   5.596
27884WAT     H183894   7.580   9.578   5.658
27884WAT     H283895   7.715   9.510   5.596
27885WAT      O83896   4.944   2.171   3.244
27885WAT     H183897   4.942   2.112   3.164
27885WAT     H283898   5.030   2.221   3.248
27886WAT      O83899   8.953   9.751   7.471
27886WAT     H183900   8.989   9.812   7.400
27886WAT     H283901   8.968   9.656   7.444
27887WAT      O83902   6.337   2.954   7.555
27887WAT     H183903   6.427   2.986   7.527
27887WAT     H283904   6.312   2.995   7.643
27888WAT      O83905   1.458   7.361   1.537
27888WAT     H183906   1.400   7.413   1.600
27888WAT     H283907   1.453   7.402   1.446
27889WAT      O83908   6.460   8.247   6.474
27889WAT     H183909   6.449   8.300   6.390
27889WAT     H283910   6.502   8.305   6.544
27890WAT      O83911   4.410   8.208   6.753
27890WAT     H183912   4.343   8.133   6.758
27890WAT     H283913   4.386   8.269   6.678
27891WAT      O83914   5.472   0.765   0.858
27891WAT     H183915   5.428   0.746   0.946
27891WAT     H283916   5.422   0.837   0.810
27892WAT      O83917   4.983   8.910   9.310
27892WAT     H183918   5.010   8.870   9.397
27892WAT     H283919   4.994   9.009   9.313
27893WAT      O83920   7.935   4.950   8.231
27893WAT     H183921   7.918   4.873   8.170
27893WAT     H283922   7.858   4.959   8.294
27894WAT      O83923   8.996   5.453   4.181
27894WAT     H183924   8.990   5.552   4.166
27894WAT     H283925   9.067   5.415   4.121
27895WAT      O83926   4.077   5.680   6.594
27895WAT     H183927   4.097   5.719   6.504
27895WAT     H283928   4.068   5.581   6.586
27896WAT      O83929   3.062   9.254   2.756
27896WAT     H183930   3.145   9.206   2.784
27896WAT     H283931   3.085   9.320   2.684
27897WAT      O83932   5.221   8.713   3.432
27897WAT     H183933   5.289   8.728   3.504
27897WAT     H283934   5.254   8.643   3.369
27898WAT      O83935   4.135   1.980   1.928
27898WAT     H183936   4.210   1.951   1.869
27898WAT     H283937   4.058   2.010   1.872
27899WAT      O83938   8.127   9.714   8.932
27899WAT     H183939   8.114   9.809   8.904
27899WAT     H283940   8.219   9.703   8.970
27900WAT      O83941   0.872   2.802   5.841
27900WAT     H183942   0.919   2.737   5.781
27900WAT     H283943   0.784   2.828   5.799
27901WAT      O83944   9.009   5.417   9.469
27901WAT     H183945   8.950   5.370   9.403
27901WAT     H283946   9.096   5.368   9.477
27902WAT      O83947   3.731   1.823   3.529
27902WAT     H183948   3.792   1.771   3.470
27902WAT     H283949   3.636   1.801   3.507
27903WAT      O83950   5.174   6.570   4.389
27903WAT     H183951   5.168   6.507   4.467
27903WAT     H283952   5.140   6.525   4.307
27904WAT      O83953   7.577   2.978   2.843
27904WAT     H183954   7.485   2.941   2.831
27904WAT     H283955   7.597   2.987   2.941
27905WAT      O83956   0.278   8.070   6.600
27905WAT     H183957   0.289   8.073   6.700
27905WAT     H283958   0.244   8.158   6.567
27906WAT      O83959   9.833   1.554   7.282
27906WAT     H183960   9.868   1.582   7.193
27906WAT     H283961   9.902   1.569   7.352
27907WAT      O83962   8.449   1.552   1.821
27907WAT     H183963   8.542   1.580   1.799
27907WAT     H283964   8.441   1.453   1.812
27908WAT      O83965   5.589   6.303   1.498
27908WAT     H183966   5.566   6.400   1.494
27908WAT     H283967   5.562   6.267   1.587
27909WAT      O83968   9.876   6.241   1.020
27909WAT     H183969   9.925   6.220   0.936
27909WAT     H283970   9.801   6.304   0.999
27910WAT      O83971   4.400   2.030   2.287
27910WAT     H183972   4.449   2.080   2.358
27910WAT     H283973   4.317   2.080   2.263
27911WAT      O83974   9.147   2.424   0.217
27911WAT     H183975   9.178   2.349   0.158
27911WAT     H283976   9.117   2.500   0.160
27912WAT      O83977   8.120   4.865   4.711
27912WAT     H183978   8.071   4.885   4.626
27912WAT     H283979   8.093   4.775   4.745
27913WAT      O83980   5.741   6.942   7.469
27913WAT     H183981   5.751   7.032   7.428
27913WAT     H283982   5.644   6.916   7.469
27914WAT      O83983   5.409   8.773   3.627
27914WAT     H183984   5.459   8.731   3.702
27914WAT     H283985   5.402   8.872   3.643
27915WAT      O83986   4.968   1.465   0.013
27915WAT     H183987   5.062   1.438  -0.010
27915WAT     H283988   4.951   1.558  -0.019
27916WAT      O83989   5.154   3.364   7.322
27916WAT     H183990   5.246   3.325   7.319
27916WAT     H283991   5.155   3.446   7.380
27917WAT      O83992   9.260   4.690   3.931
27917WAT     H183993   9.260   4.604   3.879
27917WAT     H283994   9.352   4.727   3.933
27918WAT      O83995   9.713   2.947   2.395
27918WAT     H183996   9.793   3.000   2.367
27918WAT     H283997   9.727   2.851   2.372
27919WAT      O83998   3.658   0.979   1.874
27919WAT     H183999   3.622   0.892   1.841
27919WAT     H284000   3.673   1.041   1.797
27920WAT      O84001   3.222   7.588   3.642
27920WAT     H184002   3.141   7.561   3.693
27920WAT     H284003   3.195   7.620   3.551
27921WAT      O84004   2.401   1.009   0.826
27921WAT     H184005   2.351   0.924   0.813
27921WAT     H284006   2.337   1.085   0.835
27922WAT      O84007   1.261   1.086   9.039
27922WAT     H184008   1.262   0.998   8.991
27922WAT     H284009   1.353   1.124   9.042
27923WAT      O84010   1.507   0.352   0.461
27923WAT     H184011   1.511   0.258   0.428
27923WAT     H284012   1.599   0.392   0.459
27924WAT      O84013   6.688   4.207   9.365
27924WAT     H184014   6.722   4.255   9.284
27924WAT     H284015   6.758   4.146   9.400
27925WAT      O84016   7.956   5.888   7.118
27925WAT     H184017   7.975   5.814   7.052
27925WAT     H284018   8.028   5.890   7.187
27926WAT      O84019   5.023   5.155   1.136
27926WAT     H184020   5.123   5.147   1.127
27926WAT     H284021   4.980   5.080   1.086
27927WAT      O84022   4.153   3.939   6.693
27927WAT     H184023   4.215   3.961   6.617
27927WAT     H284024   4.204   3.941   6.779
27928WAT      O84025   9.516   7.874   7.961
27928WAT     H184026   9.421   7.845   7.950
27928WAT     H284027   9.569   7.800   8.002
27929WAT      O84028   7.365   1.840   0.945
27929WAT     H184029   7.407   1.927   0.917
27929WAT     H284030   7.401   1.813   1.034
27930WAT      O84031   7.187   7.867   8.612
27930WAT     H184032   7.112   7.824   8.562
27930WAT     H284033   7.173   7.966   8.614
27931WAT      O84034   9.266   3.650   3.201
27931WAT     H184035   9.294   3.746   3.196
27931WAT     H284036   9.346   3.592   3.187
27932WAT      O84037   9.671   1.384   7.957
27932WAT     H184038   9.622   1.305   7.918
27932WAT     H284039   9.764   1.357   7.980
27933WAT      O84040   6.025   0.194   6.208
27933WAT     H184041   6.035   0.178   6.110
27933WAT     H284042   6.072   0.122   6.259
27934WAT      O84043   8.623   4.297   0.373
27934WAT     H184044   8.583   4.292   0.465
27934WAT     H284045   8.690   4.224   0.362
27935WAT      O84046   2.627   4.949   9.649
27935WAT     H184047   2.671   5.023   9.700
27935WAT     H284048   2.578   4.987   9.570
27936WAT      O84049   6.343   6.223   9.153
27936WAT     H184050   6.402   6.166   9.095
27936WAT     H284051   6.386   6.234   9.243
27937WAT      O84052   0.730   9.830   6.149
27937WAT     H184053   0.690   9.770   6.219
27937WAT     H284054   0.661   9.851   6.080
27938WAT      O84055   4.598   7.382   4.077
27938WAT     H184056   4.505   7.369   4.110
27938WAT     H284057   4.625   7.478   4.089
27939WAT      O84058   8.576   8.480   0.298
27939WAT     H184059   8.496   8.459   0.244
27939WAT     H284060   8.568   8.438   0.389
27940WAT      O84061   6.806   3.124   4.464
27940WAT     H184062   6.879   3.153   4.526
27940WAT     H284063   6.824   3.161   4.373
27941WAT      O84064   2.746   3.002   9.240
27941WAT     H184065   2.793   3.033   9.157
27941WAT     H284066   2.725   3.081   9.297
27942WAT      O84067   9.539   3.875   7.314
27942WAT     H184068   9.443   3.862   7.339
27942WAT     H284069   9.597   3.860   7.394
27943WAT      O84070   5.072   8.019   2.608
27943WAT     H184071   5.084   8.085   2.533
27943WAT     H284072   5.155   8.017   2.663
27944WAT      O84073   3.266   6.573   5.999
27944WAT     H184074   3.211   6.505   5.949
27944WAT     H284075   3.359   6.539   6.009
27945WAT      O84076   2.328   2.887   9.360
27945WAT     H184077   2.380   2.913   9.279
27945WAT     H284078   2.387   2.894   9.441
27946WAT      O84079   1.682   2.308   1.351
27946WAT     H184080   1.607   2.250   1.382
27946WAT     H284081   1.765   2.284   1.400
27947WAT      O84082   9.689   9.041   9.862
27947WAT     H184083   9.746   8.992   9.796
27947WAT     H284084   9.732   9.040   9.952
27948WAT      O84085   5.095   1.164   1.712
27948WAT     H184086   5.024   1.212   1.762
27948WAT     H284087   5.179   1.163   1.766
27949WAT      O84088   2.756   3.131   1.931
27949WAT     H184089   2.780   3.034   1.923
27949WAT     H284090   2.831   3.187   1.896
27950WAT      O84091   6.402   5.592   1.265
27950WAT     H184092   6.322   5.639   1.302
27950WAT     H284093   6.479   5.602   1.328
27951WAT      O84094   6.003   0.256   1.986
27951WAT     H184095   5.974   0.212   2.071
27951WAT     H284096   5.941   0.331   1.965
27952WAT      O84097   6.094   4.055   9.474
27952WAT     H184098   6.141   4.020   9.392
27952WAT     H284099   6.014   3.998   9.492
27953WAT      O84100   1.118   0.390   1.288
27953WAT     H184101   1.193   0.433   1.239
27953WAT     H284102   1.155   0.329   1.358
27954WAT      O84103   0.369   3.515   0.032
27954WAT     H184104   0.464   3.523   0.062
27954WAT     H284105   0.327   3.435   0.075
27955WAT      O84106   4.594   6.743   7.528
27955WAT     H184107   4.684   6.708   7.500
27955WAT     H284108   4.603   6.793   7.614
27956WAT      O84109   2.880   5.558   4.021
27956WAT     H184110   2.952   5.490   4.022
27956WAT     H284111   2.795   5.517   3.987
27957WAT      O84112   5.735   0.144   9.538
27957WAT     H184113   5.760   0.066   9.480
27957WAT     H284114   5.645   0.178   9.510
27958WAT      O84115   0.099   7.330   9.729
27958WAT     H184116   0.096   7.418   9.776
27958WAT     H284117   0.016   7.279   9.749
27959WAT      O84118   0.551   3.852   0.747
27959WAT     H184119   0.564   3.945   0.712
27959WAT     H284120   0.474   3.851   0.811
27960WAT      O84121   9.194   4.604   3.173
27960WAT     H184122   9.126   4.547   3.218
27960WAT     H284123   9.241   4.660   3.241
27961WAT      O84124   9.229   1.795   8.377
27961WAT     H184125   9.140   1.832   8.352
27961WAT     H284126   9.293   1.870   8.394
27962WAT      O84127   9.207   8.784   0.824
27962WAT     H184128   9.111   8.770   0.848
27962WAT     H284129   9.266   8.745   0.896
27963WAT      O84130   1.470   7.693   2.813
27963WAT     H184131   1.407   7.748   2.757
27963WAT     H284132   1.438   7.598   2.815
27964WAT      O84133   8.639   1.711   2.655
27964WAT     H184134   8.599   1.620   2.664
27964WAT     H284135   8.584   1.766   2.592
27965WAT      O84136   1.163   9.600   7.963
27965WAT     H184137   1.262   9.590   7.972
27965WAT     H284138   1.142   9.655   7.882
27966WAT      O84139   5.398   6.783   9.490
27966WAT     H184140   5.341   6.857   9.526
27966WAT     H284141   5.470   6.761   9.557
27967WAT      O84142   3.545   0.123   0.575
27967WAT     H184143   3.569   0.066   0.496
27967WAT     H284144   3.564   0.072   0.659
27968WAT      O84145   8.798   7.783   8.586
27968WAT     H184146   8.835   7.716   8.521
27968WAT     H284147   8.862   7.795   8.662
27969WAT      O84148   5.231   8.573   7.817
27969WAT     H184149   5.200   8.655   7.865
27969WAT     H284150   5.151   8.525   7.780
27970WAT      O84151   0.939   9.603   2.980
27970WAT     H184152   0.982   9.637   2.896
27970WAT     H284153   0.840   9.606   2.970
27971WAT      O84154   1.529   0.397   1.585
27971WAT     H184155   1.568   0.335   1.517
27971WAT     H284156   1.595   0.411   1.659
27972WAT      O84157   2.874   3.798   2.379
27972WAT     H184158   2.806   3.865   2.349
27972WAT     H284159   2.856   3.773   2.474
27973WAT      O84160   8.585   1.278   4.011
27973WAT     H184161   8.528   1.352   4.047
27973WAT     H284162   8.654   1.316   3.950
27974WAT      O84163   4.983   5.450   2.182
27974WAT     H184164   4.983   5.363   2.233
27974WAT     H284165   5.020   5.522   2.241
27975WAT      O84166   8.974   3.558   6.428
27975WAT     H184167   8.929   3.537   6.515
27975WAT     H284168   8.909   3.550   6.354
27976WAT      O84169   8.477   0.401   1.118
27976WAT     H184170   8.405   0.338   1.145
27976WAT     H284171   8.438   0.477   1.066
27977WAT      O84172   6.911   6.830   6.840
27977WAT     H184173   6.868   6.912   6.802
27977WAT     H284174   7.003   6.853   6.873
27978WAT      O84175   0.092   4.961   3.156
27978WAT     H184176   0.074   4.992   3.250
27978WAT     H284177   0.127   4.868   3.158
27979WAT      O84178   4.683   4.438   3.010
27979WAT     H184179   4.762   4.390   3.048
27979WAT     H284180   4.608   4.373   2.997
27980WAT      O84181   4.642   0.359   3.067
27980WAT     H184182   4.735   0.391   3.086
27980WAT     H284183   4.577   0.433   3.083
27981WAT      O84184   8.362   8.062   3.685
27981WAT     H184185   8.417   8.106   3.756
27981WAT     H284186   8.272   8.039   3.723
27982WAT      O84187   1.454   6.526   5.065
27982WAT     H184188   1.511   6.506   4.985
27982WAT     H284189   1.513   6.542   5.145
27983WAT      O84190   8.939   6.762   1.572
27983WAT     H184191   8.947   6.859   1.596
27983WAT     H284192   8.904   6.754   1.479
27984WAT      O84193   8.441   9.688   6.729
27984WAT     H184194   8.353   9.724   6.697
27984WAT     H284195   8.431   9.658   6.824
27985WAT      O84196   5.379   0.666   2.502
27985WAT     H184197   5.383   0.758   2.541
27985WAT     H284198   5.403   0.599   2.573
27986WAT      O84199   0.032   5.406   2.852
27986WAT     H184200  -0.038   5.410   2.779
27986WAT     H284201   0.078   5.317   2.848
27987WAT      O84202   7.390   6.302   0.847
27987WAT     H184203   7.360   6.397   0.848
27987WAT     H284204   7.475   6.295   0.794
27988WAT      O84205   5.464   7.738   9.202
27988WAT     H184206   5.557   7.715   9.174
27988WAT     H284207   5.464   7.770   9.296
27989WAT      O84208   1.697   7.705   0.545
27989WAT     H184209   1.772   7.680   0.483
27989WAT     H284210   1.610   7.701   0.495
27990WAT      O84211   2.528   5.162   8.340
27990WAT     H184212   2.508   5.251   8.300
27990WAT     H284213   2.608   5.122   8.295
27991WAT      O84214   4.488   6.839   5.779
27991WAT     H184215   4.411   6.874   5.725
27991WAT     H284216   4.546   6.915   5.808
27992WAT      O84217   6.957   0.381   8.743
27992WAT     H184218   6.960   0.428   8.655
27992WAT     H284219   6.870   0.400   8.788
27993WAT      O84220   7.653   0.845   6.504
27993WAT     H184221   7.704   0.760   6.491
27993WAT     H284222   7.609   0.844   6.594
27994WAT      O84223   6.685   2.153   9.146
27994WAT     H184224   6.734   2.165   9.060
27994WAT     H284225   6.710   2.227   9.209
27995WAT      O84226   5.024   5.452   6.699
27995WAT     H184227   4.983   5.429   6.787
27995WAT     H284228   5.112   5.407   6.690
27996WAT      O84229   3.819   6.489   0.156
27996WAT     H184230   3.793   6.508   0.061
27996WAT     H284231   3.737   6.467   0.209
27997WAT      O84232   2.415   6.120   8.802
27997WAT     H184233   2.373   6.029   8.812
27997WAT     H284234   2.350   6.182   8.759
27998WAT      O84235   4.482   1.237   4.322
27998WAT     H184236   4.574   1.254   4.359
27998WAT     H284237   4.469   1.139   4.310
27999WAT      O84238   8.521   3.792   6.571
27999WAT     H184239   8.437   3.845   6.587
27999WAT     H284240   8.522   3.760   6.476
28000WAT      O84241   5.616   8.387   5.220
28000WAT     H184242   5.698   8.330   5.217
28000WAT     H284243   5.540   8.340   5.176
28001WAT      O84244   8.149   0.303   5.221
28001WAT     H184245   8.124   0.327   5.127
28001WAT     H284246   8.139   0.384   5.280
28002WAT      O84247   9.429   8.096   3.120
28002WAT     H184248   9.449   8.017   3.061
28002WAT     H284249   9.451   8.072   3.215
28003WAT      O84250   7.943   4.725   0.371
28003WAT     H184251   8.015   4.690   0.431
28003WAT     H284252   7.878   4.779   0.426
28004WAT      O84253   2.943   1.956   1.506
28004WAT     H184254   2.979   1.863   1.513
28004WAT     H284255   2.855   1.962   1.552
28005WAT      O84256   0.307   1.468   8.149
28005WAT     H184257   0.336   1.548   8.096
28005WAT     H284258   0.225   1.490   8.201
28006WAT      O84259   6.607   3.181   5.933
28006WAT     H184260   6.527   3.232   5.962
28006WAT     H284261   6.612   3.180   5.833
28007WAT      O84262   4.295   3.283   4.356
28007WAT     H184263   4.285   3.226   4.274
28007WAT     H284264   4.338   3.370   4.330
28008WAT      O84265   6.239   7.643   8.236
28008WAT     H184266   6.261   7.705   8.312
28008WAT     H284267   6.301   7.661   8.159
28009WAT      O84268   8.711   8.640   6.852
28009WAT     H184269   8.659   8.596   6.924
28009WAT     H284270   8.799   8.672   6.889
28010WAT      O84271   4.491   5.975   9.546
28010WAT     H184272   4.398   6.012   9.545
28010WAT     H284273   4.487   5.875   9.556
28011WAT      O84274   4.913   1.871   2.663
28011WAT     H184275   4.951   1.939   2.726
28011WAT     H284276   4.900   1.784   2.711
28012WAT      O84277   3.943   9.654   7.756
28012WAT     H184278   3.978   9.717   7.825
28012WAT     H284279   4.010   9.645   7.682
28013WAT      O84280   5.420   4.138   8.312
28013WAT     H184281   5.495   4.127   8.377
28013WAT     H284282   5.353   4.065   8.325
28014WAT      O84283   8.999   3.984   7.881
28014WAT     H184284   8.997   4.049   7.957
28014WAT     H284285   9.077   3.922   7.893
28015WAT      O84286   6.037   4.895   5.838
28015WAT     H184287   5.952   4.906   5.785
28015WAT     H284288   6.115   4.922   5.782
28016WAT      O84289   1.683   2.429   8.548
28016WAT     H184290   1.676   2.440   8.449
28016WAT     H284291   1.713   2.336   8.570
28017WAT      O84292   3.663   8.320   8.103
28017WAT     H184293   3.564   8.312   8.105
28017WAT     H284294   3.696   8.359   8.189
28018WAT      O84295   3.508   4.071   8.635
28018WAT     H184296   3.439   4.067   8.562
28018WAT     H284297   3.530   3.978   8.664
28019WAT      O84298   9.195   2.000   7.955
28019WAT     H184299   9.260   2.053   8.011
28019WAT     H284300   9.241   1.967   7.873
28020WAT      O84301   5.295   7.351   4.839
28020WAT     H184302   5.306   7.433   4.894
28020WAT     H284303   5.199   7.325   4.837
28021WAT      O84304   6.721   9.315   5.502
28021WAT     H184305   6.732   9.320   5.403
28021WAT     H284306   6.809   9.297   5.545
28022WAT      O84307   7.238   3.312   3.130
28022WAT     H184308   7.285   3.325   3.043
28022WAT     H284309   7.254   3.391   3.190
28023WAT      O84310   0.963   3.128   6.148
28023WAT     H184311   1.011   3.046   6.179
28023WAT     H284312   0.927   3.112   6.056
28024WAT      O84313   3.540   4.822   9.847
28024WAT     H184314   3.571   4.734   9.811
28024WAT     H284315   3.560   4.894   9.780
28025WAT      O84316   9.761   7.951   7.015
28025WAT     H184317   9.739   7.864   7.058
28025WAT     H284318   9.807   7.935   6.927
28026WAT      O84319   3.798   0.963   6.928
28026WAT     H184320   3.886   0.950   6.882
28026WAT     H284321   3.812   1.014   7.013
28027WAT      O84322   1.449   1.540   8.869
28027WAT     H184323   1.488   1.548   8.961
28027WAT     H284324   1.461   1.626   8.820
28028WAT      O84325   6.352   3.555   9.517
28028WAT     H184326   6.385   3.521   9.429
28028WAT     H284327   6.288   3.630   9.502
28029WAT      O84328   7.853   8.499   7.721
28029WAT     H184329   7.776   8.495   7.657
28029WAT     H284330   7.854   8.415   7.776
28030WAT      O84331   8.725   6.243   0.405
28030WAT     H184332   8.787   6.179   0.450
28030WAT     H284333   8.763   6.335   0.409
28031WAT      O84334   7.325   9.488   4.344
28031WAT     H184335   7.334   9.392   4.317
28031WAT     H284336   7.351   9.498   4.440
28032WAT      O84337   6.737   9.364   7.558
28032WAT     H184338   6.637   9.358   7.554
28032WAT     H284339   6.777   9.280   7.521
28033WAT      O84340   8.684   8.529   3.391
28033WAT     H184341   8.652   8.616   3.427
28033WAT     H284342   8.607   8.480   3.349
28034WAT      O84343   0.461   5.419   5.289
28034WAT     H184344   0.500   5.497   5.338
28034WAT     H284345   0.397   5.452   5.219
28035WAT      O84346   5.035   0.579   0.765
28035WAT     H184347   5.077   0.489   0.758
28035WAT     H284348   5.023   0.618   0.674
28036WAT      O84349   9.247   0.948   3.584
28036WAT     H184350   9.238   0.966   3.682
28036WAT     H284351   9.173   0.888   3.554
28037WAT      O84352   7.145   4.714   7.542
28037WAT     H184353   7.197   4.703   7.627
28037WAT     H284354   7.176   4.644   7.477
28038WAT      O84355   6.926   1.339   9.612
28038WAT     H184356   6.879   1.427   9.618
28038WAT     H284357   6.870   1.269   9.657
28039WAT      O84358   8.800   0.639   3.914
28039WAT     H184359   8.900   0.634   3.919
28039WAT     H284360   8.760   0.600   3.997
28040WAT      O84361   4.212   6.437   1.955
28040WAT     H184362   4.211   6.482   1.866
28040WAT     H284363   4.196   6.339   1.944
28041WAT      O84364   8.191   1.882   8.219
28041WAT     H184365   8.253   1.951   8.181
28041WAT     H284366   8.150   1.830   8.145
28042WAT      O84367   1.817   1.155   2.743
28042WAT     H184368   1.792   1.209   2.824
28042WAT     H284369   1.916   1.148   2.737
28043WAT      O84370   8.658   7.061   8.092
28043WAT     H184371   8.685   7.147   8.136
28043WAT     H284372   8.558   7.051   8.096
28044WAT      O84373   8.590   9.409   7.178
28044WAT     H184374   8.549   9.332   7.228
28044WAT     H284375   8.660   9.374   7.116
28045WAT      O84376   5.782   8.117   5.777
28045WAT     H184377   5.683   8.130   5.783
28045WAT     H284378   5.803   8.050   5.706
28046WAT      O84379   1.927   3.910   3.876
28046WAT     H184380   1.994   3.836   3.876
28046WAT     H284381   1.935   3.962   3.961
28047WAT      O84382   9.560   7.390   4.902
28047WAT     H184383   9.474   7.411   4.855
28047WAT     H284384   9.610   7.475   4.918
28048WAT      O84385   5.112   4.309   0.035
28048WAT     H184386   5.058   4.394   0.037
28048WAT     H284387   5.188   4.320  -0.029
28049WAT      O84388   5.645   1.917   2.827
28049WAT     H184389   5.652   1.891   2.923
28049WAT     H284390   5.690   1.849   2.770
28050WAT      O84391   2.952   3.896   1.524
28050WAT     H184392   2.895   3.875   1.603
28050WAT     H284393   3.007   3.977   1.543
28051WAT      O84394   2.584   2.999   7.274
28051WAT     H184395   2.585   2.899   7.275
28051WAT     H284396   2.489   3.031   7.269
28052WAT      O84397   4.118   1.621   0.156
28052WAT     H184398   4.172   1.556   0.104
28052WAT     H284399   4.033   1.578   0.187
28053WAT      O84400   2.078   1.173   5.961
28053WAT     H184401   2.027   1.187   6.046
28053WAT     H284402   2.156   1.235   5.959
28054WAT      O84403   1.782   6.037   2.547
28054WAT     H184404   1.746   6.120   2.502
28054WAT     H284405   1.861   6.003   2.496
28055WAT      O84406   8.554   8.312   2.817
28055WAT     H184407   8.485   8.310   2.890
28055WAT     H284408   8.644   8.332   2.856
28056WAT      O84409   3.961   0.301   9.043
28056WAT     H184410   3.891   0.358   9.086
28056WAT     H284411   3.936   0.284   8.947
28057WAT      O84412   6.651   0.913   0.381
28057WAT     H184413   6.697   0.905   0.292
28057WAT     H284414   6.639   1.009   0.403
28058WAT      O84415   1.524   3.066   5.601
28058WAT     H184416   1.538   3.058   5.502
28058WAT     H284417   1.450   3.131   5.619
28059WAT      O84418   4.714   7.121   8.640
28059WAT     H184419   4.796   7.123   8.583
28059WAT     H284420   4.704   7.208   8.688
28060WAT      O84421   2.122   0.846   2.924
28060WAT     H184422   2.027   0.820   2.907
28060WAT     H284423   2.133   0.873   3.020
28061WAT      O84424   0.955   3.734   7.609
28061WAT     H184425   0.968   3.833   7.609
28061WAT     H284426   0.890   3.708   7.539
28062WAT      O84427   2.278   4.542   2.010
28062WAT     H184428   2.364   4.572   2.052
28062WAT     H284429   2.203   4.599   2.043
28063WAT      O84430   5.207   1.482   6.516
28063WAT     H184431   5.141   1.515   6.448
28063WAT     H284432   5.294   1.461   6.471
28064WAT      O84433   8.228   2.432   8.553
28064WAT     H184434   8.165   2.356   8.568
28064WAT     H284435   8.304   2.425   8.618
28065WAT      O84436   8.672   6.707   5.111
28065WAT     H184437   8.698   6.786   5.056
28065WAT     H284438   8.754   6.667   5.153
28066WAT      O84439   3.405   8.521   0.426
28066WAT     H184440   3.392   8.611   0.385
28066WAT     H284441   3.461   8.465   0.366
28067WAT      O84442   5.561   7.034   8.049
28067WAT     H184443   5.555   7.065   8.143
28067WAT     H284444   5.658   7.022   8.024
28068WAT      O84445   7.484   5.188   4.569
28068WAT     H184446   7.387   5.166   4.557
28068WAT     H284447   7.518   5.233   4.487
28069WAT      O84448   5.904   2.298   2.796
28069WAT     H184449   5.937   2.234   2.866
28069WAT     H284450   5.804   2.303   2.800
28070WAT      O84451   0.449   2.299   7.192
28070WAT     H184452   0.510   2.229   7.154
28070WAT     H284453   0.389   2.257   7.260
28071WAT      O84454   0.656   3.591   3.278
28071WAT     H184455   0.642   3.541   3.363
28071WAT     H284456   0.604   3.676   3.280
28072WAT      O84457   4.318   3.616   1.023
28072WAT     H184458   4.358   3.688   0.965
28072WAT     H284459   4.226   3.643   1.050
28073WAT      O84460   7.454   0.703   5.359
28073WAT     H184461   7.390   0.773   5.327
28073WAT     H284462   7.411   0.613   5.352
28074WAT      O84463   5.546   1.392   0.490
28074WAT     H184464   5.548   1.330   0.412
28074WAT     H284465   5.482   1.467   0.471
28075WAT      O84466   0.084   1.560   7.976
28075WAT     H184467   0.055   1.464   7.977
28075WAT     H284468   0.106   1.589   8.069
28076WAT      O84469   7.707   5.776   0.994
28076WAT     H184470   7.769   5.699   0.980
28076WAT     H284471   7.616   5.741   1.018
28077WAT      O84472   4.166   7.329   2.481
28077WAT     H184473   4.085   7.387   2.465
28077WAT     H284474   4.233   7.381   2.534
28078WAT      O84475   4.142   2.672   7.287
28078WAT     H184476   4.079   2.692   7.211
28078WAT     H284477   4.093   2.683   7.373
28079WAT      O84478   8.285   7.524   3.636
28079WAT     H184479   8.259   7.590   3.565
28079WAT     H284480   8.350   7.567   3.698
28080WAT      O84481   2.872   9.769   8.007
28080WAT     H184482   2.799   9.801   8.068
28080WAT     H284483   2.898   9.676   8.032
28081WAT      O84484   6.696   8.802   7.513
28081WAT     H184485   6.601   8.806   7.543
28081WAT     H284486   6.700   8.820   7.415
28082WAT      O84487   7.873   3.749   5.840
28082WAT     H184488   7.811   3.732   5.763
28082WAT     H284489   7.943   3.677   5.843
28083WAT      O84490   6.834   2.884   5.133
28083WAT     H184491   6.901   2.952   5.164
28083WAT     H284492   6.759   2.879   5.199
28084WAT      O84493   3.274   6.233   0.984
28084WAT     H184494   3.347   6.234   0.915
28084WAT     H284495   3.200   6.293   0.954
28085WAT      O84496   3.040   2.282   3.192
28085WAT     H184497   3.133   2.304   3.162
28085WAT     H284498   2.996   2.365   3.227
28086WAT      O84499   3.025   9.220   4.228
28086WAT     H184500   3.105   9.178   4.185
28086WAT     H284501   2.969   9.265   4.158
28087WAT      O84502   7.625   3.444   6.819
28087WAT     H184503   7.580   3.533   6.829
28087WAT     H284504   7.605   3.387   6.898
28088WAT      O84505   0.348   9.142   7.383
28088WAT     H184506   0.360   9.054   7.337
28088WAT     H284507   0.278   9.133   7.454
28089WAT      O84508   7.358   9.642   9.336
28089WAT     H184509   7.407   9.561   9.369
28089WAT     H284510   7.382   9.659   9.240
28090WAT      O84511   1.785   1.200   2.124
28090WAT     H184512   1.878   1.223   2.152
28090WAT     H284513   1.766   1.238   2.034
28091WAT      O84514   6.615   1.990   7.445
28091WAT     H184515   6.563   1.905   7.435
28091WAT     H284516   6.590   2.053   7.371
28092WAT      O84517   9.159   3.090   4.652
28092WAT     H184518   9.154   3.128   4.744
28092WAT     H284519   9.074   3.110   4.603
28093WAT      O84520   8.650   8.981   9.430
28093WAT     H184521   8.652   9.078   9.406
28093WAT     H284522   8.612   8.928   9.355
28094WAT      O84523   1.293   9.699   2.585
28094WAT     H184524   1.312   9.756   2.504
28094WAT     H284525   1.320   9.605   2.566
28095WAT      O84526   6.402   7.353   7.772
28095WAT     H184527   6.466   7.295   7.723
28095WAT     H284528   6.440   7.377   7.861
28096WAT      O84529   7.651   2.964   9.725
28096WAT     H184530   7.695   2.889   9.774
28096WAT     H284531   7.693   2.973   9.635
28097WAT      O84532   8.976   8.177   5.473
28097WAT     H184533   9.051   8.219   5.525
28097WAT     H284534   8.895   8.236   5.481
28098WAT      O84535   7.070   0.316   3.388
28098WAT     H184536   7.044   0.411   3.406
28098WAT     H284537   7.153   0.294   3.439
28099WAT      O84538   4.877   7.823   2.016
28099WAT     H184539   4.784   7.813   2.052
28099WAT     H284540   4.941   7.833   2.093
28100WAT      O84541   3.208   3.827   6.916
28100WAT     H184542   3.304   3.841   6.895
28100WAT     H284543   3.152   3.852   6.837
28101WAT      O84544   5.070   3.248   4.689
28101WAT     H184545   5.160   3.281   4.716
28101WAT     H284546   5.029   3.196   4.765
28102WAT      O84547   6.699   9.793   0.983
28102WAT     H184548   6.749   9.869   0.942
28102WAT     H284549   6.633   9.828   1.049
28103WAT      O84550   4.172   8.522   5.173
28103WAT     H184551   4.115   8.580   5.231
28103WAT     H284552   4.199   8.440   5.224
28104WAT      O84553   9.300   5.879   0.465
28104WAT     H184554   9.299   5.884   0.365
28104WAT     H284555   9.225   5.821   0.496
28105WAT      O84556   9.237   9.091   8.129
28105WAT     H184557   9.314   9.139   8.171
28105WAT     H284558   9.195   9.150   8.059
28106WAT      O84559   7.921   2.268   0.251
28106WAT     H184560   8.012   2.243   0.217
28106WAT     H284561   7.852   2.239   0.185
28107WAT      O84562   4.650   7.647   5.769
28107WAT     H184563   4.564   7.658   5.819
28107WAT     H284564   4.709   7.726   5.787
28108WAT      O84565   1.014   2.332   0.755
28108WAT     H184566   1.012   2.304   0.659
28108WAT     H284567   0.922   2.361   0.782
28109WAT      O84568   1.247   8.203   2.362
28109WAT     H184569   1.152   8.203   2.333
28109WAT     H284570   1.307   8.198   2.282
28110WAT      O84571   0.315   7.933   7.941
28110WAT     H184572   0.356   8.024   7.949
28110WAT     H284573   0.374   7.867   7.987
28111WAT      O84574   8.438   0.929   2.872
28111WAT     H184575   8.526   0.939   2.825
28111WAT     H284576   8.442   0.851   2.935
28112WAT      O84577   4.268   8.147   7.181
28112WAT     H184578   4.363   8.121   7.198
28112WAT     H284579   4.228   8.087   7.113
28113WAT      O84580   0.325   5.601   9.479
28113WAT     H184581   0.359   5.594   9.572
28113WAT     H284582   0.313   5.697   9.455
28114WAT      O84583   8.236   6.158   3.723
28114WAT     H184584   8.269   6.074   3.764
28114WAT     H284585   8.198   6.137   3.632
28115WAT      O84586   0.645   9.182   4.251
28115WAT     H184587   0.661   9.272   4.209
28115WAT     H284588   0.686   9.179   4.342
28116WAT      O84589   5.251   7.966   0.740
28116WAT     H184590   5.195   7.983   0.821
28116WAT     H284591   5.262   8.051   0.689
28117WAT      O84592   7.712   4.043   6.546
28117WAT     H184593   7.767   4.122   6.571
28117WAT     H284594   7.640   4.028   6.614
28118WAT      O84595   6.889   9.232   3.347
28118WAT     H184596   6.956   9.192   3.409
28118WAT     H284597   6.835   9.301   3.395
28119WAT      O84598   8.776   2.874   8.691
28119WAT     H184599   8.766   2.795   8.630
28119WAT     H284600   8.686   2.917   8.705
28120WAT      O84601   3.760   3.858   7.619
28120WAT     H184602   3.840   3.911   7.588
28120WAT     H284603   3.677   3.901   7.585
28121WAT      O84604   3.852   0.241   1.941
28121WAT     H184605   3.835   0.275   2.034
28121WAT     H284606   3.846   0.316   1.876
28122WAT      O84607   5.594   7.739   2.693
28122WAT     H184608   5.613   7.819   2.751
28122WAT     H284609   5.510   7.755   2.642
28123WAT      O84610   2.811   8.362   5.940
28123WAT     H184611   2.840   8.288   5.880
28123WAT     H284612   2.725   8.336   5.985
28124WAT      O84613   1.219   5.718   5.719
28124WAT     H184614   1.275   5.650   5.767
28124WAT     H284615   1.246   5.809   5.750
28125WAT      O84616   5.238   4.580   6.864
28125WAT     H184617   5.307   4.567   6.793
28125WAT     H284618   5.224   4.494   6.913
28126WAT      O84619   3.955   2.971   1.443
28126WAT     H184620   4.031   3.034   1.458
28126WAT     H284621   3.926   2.975   1.347
28127WAT      O84622   4.696   7.510   9.169
28127WAT     H184623   4.616   7.568   9.151
28127WAT     H284624   4.770   7.566   9.207
28128WAT      O84625   0.929   9.419   7.198
28128WAT     H184626   1.013   9.399   7.248
28128WAT     H284627   0.941   9.395   7.101
28129WAT      O84628   6.136   9.296   8.061
28129WAT     H184629   6.080   9.368   8.019
28129WAT     H284630   6.077   9.221   8.089
28130WAT      O84631   9.037   7.939   4.094
28130WAT     H184632   9.035   7.968   4.190
28130WAT     H284633   8.991   8.008   4.037
28131WAT      O84634   3.790   9.312   7.529
28131WAT     H184635   3.863   9.366   7.488
28131WAT     H284636   3.771   9.346   7.621
28132WAT      O84637   1.009   9.828   3.171
28132WAT     H184638   0.958   9.755   3.125
28132WAT     H284639   1.092   9.848   3.120
28133WAT      O84640   2.952   2.603   9.126
28133WAT     H184641   2.989   2.680   9.076
28133WAT     H284642   2.873   2.566   9.077
28134WAT      O84643   9.016   3.752   5.645
28134WAT     H184644   8.946   3.822   5.637
28134WAT     H284645   8.973   3.665   5.669
28135WAT      O84646   9.882   4.807   1.316
28135WAT     H184647   9.811   4.743   1.346
28135WAT     H284648   9.905   4.869   1.391
28136WAT      O84649   9.756   2.880   2.985
28136WAT     H184650   9.755   2.976   2.959
28136WAT     H284651   9.663   2.844   2.984
28137WAT      O84652   8.944   5.625   8.049
28137WAT     H184653   8.897   5.674   7.975
28137WAT     H284654   8.879   5.565   8.095
28138WAT      O84655   3.857   8.931   2.175
28138WAT     H184656   3.882   8.968   2.264
28138WAT     H284657   3.939   8.900   2.127
28139WAT      O84658   5.642   0.401   1.990
28139WAT     H184659   5.559   0.447   1.958
28139WAT     H284660   5.692   0.462   2.052
28140WAT      O84661   8.255   7.121   0.876
28140WAT     H184662   8.251   7.089   0.971
28140WAT     H284663   8.208   7.055   0.817
28141WAT      O84664   5.468   4.756   5.400
28141WAT     H184665   5.557   4.794   5.377
28141WAT     H284666   5.468   4.657   5.386
28142WAT      O84667   5.894   9.676   6.047
28142WAT     H184668   5.839   9.663   5.964
28142WAT     H284669   5.989   9.692   6.023
28143WAT      O84670   3.305   8.809   5.609
28143WAT     H184671   3.290   8.718   5.648
28143WAT     H284672   3.398   8.816   5.573
28144WAT      O84673   6.894   3.506   1.915
28144WAT     H184674   6.963   3.520   1.844
28144WAT     H284675   6.910   3.569   1.991
28145WAT      O84676   9.616   6.186   0.011
28145WAT     H184677   9.620   6.132  -0.073
28145WAT     H284678   9.703   6.178   0.059
28146WAT      O84679   6.550   1.211   9.485
28146WAT     H184680   6.522   1.253   9.398
28146WAT     H284681   6.627   1.149   9.468
28147WAT      O84682   1.925   6.103   1.717
28147WAT     H184683   1.875   6.079   1.800
28147WAT     H284684   2.014   6.143   1.742
28148WAT      O84685   6.320   5.690   4.022
28148WAT     H184686   6.395   5.726   3.967
28148WAT     H284687   6.283   5.764   4.079
28149WAT      O84688   6.831   9.326   0.885
28149WAT     H184689   6.928   9.306   0.893
28149WAT     H284690   6.815   9.423   0.902
28150WAT      O84691   4.084   4.808   3.173
28150WAT     H184692   4.122   4.844   3.258
28150WAT     H284693   3.986   4.825   3.171
28151WAT      O84694   0.291   7.619   8.611
28151WAT     H184695   0.315   7.612   8.515
28151WAT     H284696   0.217   7.555   8.632
28152WAT      O84697   2.288   9.159   5.619
28152WAT     H184698   2.322   9.093   5.552
28152WAT     H284699   2.342   9.152   5.703
28153WAT      O84700   7.165   9.595   6.726
28153WAT     H184701   7.145   9.692   6.739
28153WAT     H284702   7.166   9.574   6.628
28154WAT      O84703   1.479   1.363   9.802
28154WAT     H184704   1.463   1.438   9.737
28154WAT     H284705   1.391   1.329   9.835
28155WAT      O84706   1.125   4.424   7.434
28155WAT     H184707   1.155   4.487   7.506
28155WAT     H284708   1.172   4.336   7.446
28156WAT      O84709   5.318   9.267   7.356
28156WAT     H184710   5.388   9.223   7.301
28156WAT     H284711   5.359   9.304   7.440
28157WAT      O84712   4.368   7.002   4.993
28157WAT     H184713   4.368   6.903   4.980
28157WAT     H284714   4.376   7.047   4.904
28158WAT      O84715   9.511   7.887   8.424
28158WAT     H184716   9.493   7.842   8.512
28158WAT     H284717   9.485   7.983   8.430
28159WAT      O84718   5.313   1.160   5.258
28159WAT     H184719   5.367   1.076   5.262
28159WAT     H284720   5.242   1.150   5.188
28160WAT      O84721   5.207   0.868   9.140
28160WAT     H184722   5.130   0.817   9.179
28160WAT     H284723   5.245   0.928   9.209
28161WAT      O84724   9.599   4.132   7.931
28161WAT     H184725   9.641   4.144   8.021
28161WAT     H284726   9.511   4.179   7.929
28162WAT      O84727   7.252   8.441   5.135
28162WAT     H184728   7.196   8.524   5.133
28162WAT     H284729   7.328   8.455   5.198
28163WAT      O84730   2.806   9.167   2.714
28163WAT     H184731   2.810   9.141   2.618
28163WAT     H284732   2.895   9.204   2.742
28164WAT      O84733   2.278   4.041   0.571
28164WAT     H184734   2.276   3.945   0.545
28164WAT     H284735   2.187   4.070   0.599
28165WAT      O84736   5.134   2.144   0.062
28165WAT     H184737   5.225   2.158   0.100
28165WAT     H284738   5.135   2.063   0.002
28166WAT      O84739   2.713   2.027   1.643
28166WAT     H184740   2.674   2.071   1.562
28166WAT     H284741   2.667   2.064   1.725
28167WAT      O84742   5.208   8.888   5.346
28167WAT     H184743   5.176   8.886   5.440
28167WAT     H284744   5.141   8.845   5.286
28168WAT      O84745   2.004   4.400   2.913
28168WAT     H184746   1.988   4.463   2.836
28168WAT     H284747   1.920   4.352   2.935
28169WAT      O84748   0.390   6.475   2.933
28169WAT     H184749   0.443   6.394   2.957
28169WAT     H284750   0.362   6.522   3.016
28170WAT      O84751   4.601   0.224   4.611
28170WAT     H184752   4.549   0.286   4.670
28170WAT     H284753   4.599   0.259   4.517
28171WAT      O84754   2.187   0.847   4.715
28171WAT     H184755   2.178   0.820   4.811
28171WAT     H284756   2.283   0.866   4.694
28172WAT      O84757   4.886   8.306   5.854
28172WAT     H184758   4.820   8.310   5.929
28172WAT     H284759   4.854   8.240   5.785
28173WAT      O84760   3.171   0.587   6.043
28173WAT     H184761   3.164   0.511   5.980
28173WAT     H284762   3.174   0.553   6.137
28174WAT      O84763   8.757   9.566   7.885
28174WAT     H184764   8.847   9.529   7.864
28174WAT     H284765   8.764   9.626   7.965
28175WAT      O84766   9.179   6.475   0.771
28175WAT     H184767   9.092   6.491   0.818
28175WAT     H284768   9.248   6.449   0.838
28176WAT      O84769   8.862   9.451   9.218
28176WAT     H184770   8.900   9.543   9.205
28176WAT     H284771   8.909   9.387   9.157
28177WAT      O84772   6.861   6.277   4.517
28177WAT     H184773   6.957   6.276   4.546
28177WAT     H284774   6.811   6.344   4.572
28178WAT      O84775   1.548   7.755   5.202
28178WAT     H184776   1.578   7.787   5.112
28178WAT     H284777   1.495   7.828   5.247
28179WAT      O84778   9.263   4.751   0.723
28179WAT     H184779   9.287   4.676   0.785
28179WAT     H284780   9.335   4.820   0.726
28180WAT      O84781   4.645   4.713   8.989
28180WAT     H184782   4.725   4.713   9.050
28180WAT     H284783   4.584   4.787   9.015
28181WAT      O84784   5.462   3.911   6.778
28181WAT     H184785   5.407   3.952   6.706
28181WAT     H284786   5.445   3.813   6.782
28182WAT      O84787   3.384   3.010   8.573
28182WAT     H184788   3.333   2.946   8.516
28182WAT     H284789   3.398   2.970   8.664
28183WAT      O84790   2.486   0.140   2.198
28183WAT     H184791   2.444   0.211   2.141
28183WAT     H284792   2.426   0.060   2.200
28184WAT      O84793   8.676   5.622   6.455
28184WAT     H184794   8.772   5.651   6.456
28184WAT     H284795   8.653   5.580   6.543
28185WAT      O84796   9.376   9.005   1.316
28185WAT     H184797   9.447   8.972   1.379
28185WAT     H284798   9.308   8.934   1.302
28186WAT      O84799   9.074   6.891   2.033
28186WAT     H184800   9.081   6.897   1.934
28186WAT     H284801   9.097   6.980   2.073
28187WAT      O84802   9.735   0.283   0.863
28187WAT     H184803   9.671   0.342   0.912
28187WAT     H284804   9.828   0.307   0.888
28188WAT      O84805   0.142   5.961   2.790
28188WAT     H184806   0.177   5.980   2.882
28188WAT     H284807   0.046   5.933   2.795
28189WAT      O84808   7.484   5.365   7.286
28189WAT     H184809   7.518   5.406   7.202
28189WAT     H284810   7.430   5.284   7.265
28190WAT      O84811   9.245   1.893   3.147
28190WAT     H184812   9.249   1.815   3.209
28190WAT     H284813   9.297   1.873   3.064
28191WAT      O84814   4.088   3.945   5.387
28191WAT     H184815   3.991   3.970   5.392
28191WAT     H284816   4.132   3.965   5.475
28192WAT      O84817   6.576   6.278   1.572
28192WAT     H184818   6.593   6.185   1.603
28192WAT     H284819   6.661   6.330   1.573
28193WAT      O84820   3.670   1.706   9.724
28193WAT     H184821   3.665   1.610   9.697
28193WAT     H284822   3.753   1.720   9.778
28194WAT      O84823   7.167   9.815   3.692
28194WAT     H184824   7.252   9.781   3.652
28194WAT     H284825   7.119   9.872   3.626
28195WAT      O84826   4.664   6.986   0.443
28195WAT     H184827   4.742   7.046   0.425
28195WAT     H284828   4.645   6.983   0.541
28196WAT      O84829   4.195   1.351   0.680
28196WAT     H184830   4.244   1.358   0.593
28196WAT     H284831   4.205   1.259   0.717
28197WAT      O84832   3.030   1.931   0.030
28197WAT     H184833   2.960   1.868   0.062
28197WAT     H284834   3.023   2.018   0.079
28198WAT      O84835   0.960   0.662   0.291
28198WAT     H184836   0.869   0.687   0.258
28198WAT     H284837   0.957   0.645   0.389
28199WAT      O84838   0.316   0.634   3.317
28199WAT     H184839   0.244   0.609   3.252
28199WAT     H284840   0.310   0.575   3.398
28200WAT      O84841   4.132   8.707   5.371
28200WAT     H184842   4.219   8.754   5.387
28200WAT     H284843   4.056   8.768   5.396
28201WAT      O84844   5.647   5.457   6.534
28201WAT     H184845   5.735   5.421   6.504
28201WAT     H284846   5.661   5.519   6.611
28202WAT      O84847   0.334   7.852   4.608
28202WAT     H184848   0.395   7.928   4.630
28202WAT     H284849   0.277   7.877   4.530
28203WAT      O84850   5.882   1.312   3.702
28203WAT     H184851   5.934   1.394   3.728
28203WAT     H284852   5.804   1.301   3.763
28204WAT      O84853   4.081   1.652   5.719
28204WAT     H184854   4.114   1.562   5.692
28204WAT     H284855   4.010   1.682   5.655
28205WAT      O84856   9.586   0.148   8.755
28205WAT     H184857   9.493   0.131   8.787
28205WAT     H284858   9.650   0.138   8.831
28206WAT      O84859   5.351   2.888   5.327
28206WAT     H184860   5.428   2.882   5.263
28206WAT     H284861   5.386   2.904   5.419
28207WAT      O84862   3.650   6.052   3.921
28207WAT     H184863   3.738   6.008   3.936
28207WAT     H284864   3.585   6.023   3.991
28208WAT      O84865   9.613   6.354   3.820
28208WAT     H184866   9.665   6.299   3.885
28208WAT     H284867   9.609   6.306   3.732
28209WAT      O84868   7.381   4.042   0.895
28209WAT     H184869   7.477   4.059   0.874
28209WAT     H284870   7.369   3.947   0.922
28210WAT      O84871   5.021   1.830   0.310
28210WAT     H184872   4.942   1.891   0.302
28210WAT     H284873   4.991   1.736   0.293
28211WAT      O84874   0.744   5.507   8.320
28211WAT     H184875   0.651   5.525   8.351
28211WAT     H284876   0.789   5.444   8.384
28212WAT      O84877   0.275   6.330   9.144
28212WAT     H184878   0.190   6.322   9.091
28212WAT     H284879   0.323   6.413   9.118
28213WAT      O84880   3.884   7.332   9.735
28213WAT     H184881   3.823   7.343   9.657
28213WAT     H284882   3.914   7.422   9.767
28214WAT      O84883   4.843   1.125   7.136
28214WAT     H184884   4.748   1.111   7.109
28214WAT     H284885   4.850   1.203   7.197
28215WAT      O84886   9.869   4.143   5.905
28215WAT     H184887   9.940   4.142   5.976
28215WAT     H284888   9.790   4.091   5.936
28216WAT      O84889   5.167   2.411   7.200
28216WAT     H184890   5.248   2.467   7.182
28216WAT     H284891   5.139   2.365   7.116
28217WAT      O84892   8.633   9.598   4.716
28217WAT     H184893   8.689   9.646   4.784
28217WAT     H284894   8.691   9.563   4.643
28218WAT      O84895   2.775   3.820   3.895
28218WAT     H184896   2.747   3.789   3.804
28218WAT     H284897   2.769   3.920   3.899
28219WAT      O84898   3.428   1.919   5.336
28219WAT     H184899   3.419   1.934   5.238
28219WAT     H284900   3.511   1.963   5.370
28220WAT      O84901   3.966   5.407   6.497
28220WAT     H184902   4.000   5.321   6.458
28220WAT     H284903   3.987   5.408   6.595
28221WAT      O84904   1.496   1.647   8.040
28221WAT     H184905   1.467   1.612   8.129
28221WAT     H284906   1.429   1.623   7.971
28222WAT      O84907   0.730   1.517   5.508
28222WAT     H184908   0.666   1.504   5.432
28222WAT     H284909   0.681   1.510   5.595
28223WAT      O84910   4.984   7.327   3.748
28223WAT     H184911   4.996   7.230   3.730
28223WAT     H284912   4.937   7.340   3.835
28224WAT      O84913   4.699   6.932   2.308
28224WAT     H184914   4.616   6.951   2.360
28224WAT     H284915   4.779   6.938   2.368
28225WAT      O84916   8.278   1.404   8.031
28225WAT     H184917   8.219   1.467   8.080
28225WAT     H284918   8.261   1.311   8.062
28226WAT      O84919   1.632   6.700   1.592
28226WAT     H184920   1.649   6.663   1.501
28226WAT     H284921   1.719   6.710   1.641
28227WAT      O84922   7.172   9.146   7.650
28227WAT     H184923   7.182   9.046   7.657
28227WAT     H284924   7.108   9.178   7.720
28228WAT      O84925   9.633   6.112   6.365
28228WAT     H184926   9.623   6.018   6.334
28228WAT     H284927   9.635   6.115   6.465
28229WAT      O84928   9.349   9.641   2.153
28229WAT     H184929   9.370   9.670   2.247
28229WAT     H284930   9.376   9.712   2.089
28230WAT      O84931   6.311   6.684   9.782
28230WAT     H184932   6.253   6.602   9.776
28230WAT     H284933   6.286   6.747   9.709
28231WAT      O84934   4.082   7.582   9.609
28231WAT     H184935   4.037   7.622   9.689
28231WAT     H284936   4.180   7.602   9.612
28232WAT      O84937   7.314   6.653   8.824
28232WAT     H184938   7.412   6.666   8.837
28232WAT     H284939   7.266   6.660   8.912
28233WAT      O84940   0.199   3.414   7.395
28233WAT     H184941   0.271   3.469   7.354
28233WAT     H284942   0.111   3.460   7.382
28234WAT      O84943   4.182   8.762   5.052
28234WAT     H184944   4.227   8.736   4.966
28234WAT     H284945   4.207   8.697   5.123
28235WAT      O84946   8.736   1.869   4.734
28235WAT     H184947   8.776   1.957   4.761
28235WAT     H284948   8.753   1.854   4.637
28236WAT      O84949   8.248   0.811   5.835
28236WAT     H184950   8.156   0.789   5.803
28236WAT     H284951   8.244   0.835   5.932
28237WAT      O84952   4.055   0.099   2.228
28237WAT     H184953   3.976   0.155   2.205
28237WAT     H284954   4.050   0.012   2.179
28238WAT      O84955   3.312   4.950   1.953
28238WAT     H184956   3.281   4.994   2.038
28238WAT     H284957   3.394   4.896   1.972
28239WAT      O84958   3.043   7.163   6.198
28239WAT     H184959   3.077   7.136   6.108
28239WAT     H284960   2.954   7.120   6.214
28240WAT      O84961   8.873   5.992   5.069
28240WAT     H184962   8.915   6.071   5.113
28240WAT     H284963   8.938   5.952   5.004
28241WAT      O84964   9.094   8.930   7.561
28241WAT     H184965   9.128   8.856   7.503
28241WAT     H284966   9.135   9.016   7.532
28242WAT      O84967   9.719   4.121   3.530
28242WAT     H184968   9.792   4.181   3.500
28242WAT     H284969   9.646   4.175   3.571
28243WAT      O84970   7.693   3.130   8.446
28243WAT     H184971   7.648   3.045   8.473
28243WAT     H284972   7.777   3.108   8.395
28244WAT      O84973   0.751   7.364   3.523
28244WAT     H184974   0.824   7.382   3.590
28244WAT     H284975   0.749   7.267   3.502
28245WAT      O84976   4.206   9.699   2.984
28245WAT     H184977   4.185   9.675   3.079
28245WAT     H284978   4.281   9.641   2.952
28246WAT      O84979   2.432   2.336   6.470
28246WAT     H184980   2.461   2.427   6.439
28246WAT     H284981   2.332   2.329   6.464
28247WAT      O84982   1.937   0.564   1.031
28247WAT     H184983   1.901   0.480   0.990
28247WAT     H284984   1.867   0.636   1.025
28248WAT      O84985   1.164   6.594   0.872
28248WAT     H184986   1.087   6.542   0.907
28248WAT     H284987   1.186   6.562   0.779
28249WAT      O84988   1.059   1.783   4.535
28249WAT     H184989   1.126   1.725   4.489
28249WAT     H284990   1.100   1.872   4.555
28250WAT      O84991   5.290   7.560   9.129
28250WAT     H184992   5.366   7.621   9.153
28250WAT     H284993   5.217   7.570   9.197
28251WAT      O84994   6.886   0.416   4.916
28251WAT     H184995   6.899   0.479   4.840
28251WAT     H284996   6.940   0.447   4.994
28252WAT      O84997   0.137   7.913   1.683
28252WAT     H184998   0.139   7.980   1.610
28252WAT     H284999   0.212   7.930   1.747
28253WAT      O85000   1.383   6.078   2.146
28253WAT     H185001   1.315   6.126   2.201
28253WAT     H285002   1.460   6.052   2.204
28254WAT      O85003   5.149   2.632   2.565
28254WAT     H185004   5.220   2.562   2.555
28254WAT     H285005   5.108   2.625   2.656
28255WAT      O85006   7.018   8.499   1.869
28255WAT     H185007   6.994   8.551   1.952
28255WAT     H285008   7.098   8.541   1.827
28256WAT      O85009   2.853   4.611   3.684
28256WAT     H185010   2.875   4.707   3.704
28256WAT     H285011   2.815   4.604   3.592
28257WAT      O85012   3.912   0.702   6.667
28257WAT     H185013   3.867   0.730   6.582
28257WAT     H285014   4.009   0.724   6.661
28258WAT      O85015   7.689   8.053   7.426
28258WAT     H185016   7.711   7.956   7.424
28258WAT     H285017   7.759   8.102   7.479
28259WAT      O85018   6.989   0.373   7.177
28259WAT     H185019   7.008   0.370   7.079
28259WAT     H285020   6.910   0.316   7.197
28260WAT      O85021   6.318   6.852   5.095
28260WAT     H185022   6.305   6.790   5.172
28260WAT     H285023   6.338   6.798   5.013
28261WAT      O85024   7.014   4.590   5.539
28261WAT     H185025   6.974   4.509   5.498
28261WAT     H285026   6.957   4.670   5.520
28262WAT      O85027   6.874   5.903   6.684
28262WAT     H185028   6.848   5.890   6.588
28262WAT     H285029   6.880   5.814   6.729
28263WAT      O85030   1.828   7.485   3.035
28263WAT     H185031   1.729   7.496   3.048
28263WAT     H285032   1.863   7.419   3.101
28264WAT      O85033   4.085   7.353   4.444
28264WAT     H185034   4.055   7.378   4.352
28264WAT     H285035   4.124   7.261   4.443
28265WAT      O85036   1.869   1.740   1.323
28265WAT     H185037   1.876   1.834   1.356
28265WAT     H285038   1.773   1.712   1.320
28266WAT      O85039   5.358   7.791   8.962
28266WAT     H185040   5.377   7.778   9.059
28266WAT     H285041   5.376   7.886   8.936
28267WAT      O85042   2.140   5.689   6.830
28267WAT     H185043   2.233   5.691   6.795
28267WAT     H285044   2.082   5.750   6.775
28268WAT      O85045   4.340   6.294   9.735
28268WAT     H185046   4.284   6.243   9.670
28268WAT     H285047   4.395   6.361   9.686
28269WAT      O85048   0.523   1.512   5.034
28269WAT     H185049   0.500   1.558   5.120
28269WAT     H285050   0.594   1.564   4.987
28270WAT      O85051   1.298   7.605   4.977
28270WAT     H185052   1.229   7.604   4.905
28270WAT     H285053   1.362   7.529   4.963
28271WAT      O85054   3.816   2.499   3.778
28271WAT     H185055   3.867   2.426   3.733
28271WAT     H285056   3.719   2.475   3.782
28272WAT      O85057   0.250   2.311   0.287
28272WAT     H185058   0.325   2.360   0.331
28272WAT     H285059   0.204   2.371   0.222
28273WAT      O85060   3.371   6.434   3.014
28273WAT     H185061   3.460   6.397   3.039
28273WAT     H285062   3.309   6.359   2.991
28274WAT      O85063   2.263   6.988   8.479
28274WAT     H185064   2.213   6.972   8.393
28274WAT     H285065   2.294   7.083   8.481
28275WAT      O85066   4.081   1.661   4.043
28275WAT     H185067   4.025   1.730   4.089
28275WAT     H285068   4.159   1.637   4.101
28276WAT      O85069   5.449   5.960   2.767
28276WAT     H185070   5.421   6.055   2.779
28276WAT     H285071   5.443   5.912   2.855
28277WAT      O85072   7.746   2.038   4.210
28277WAT     H185073   7.753   2.095   4.128
28277WAT     H285074   7.662   2.062   4.259
28278WAT      O85075   0.329   0.008   6.126
28278WAT     H185076   0.274  -0.041   6.194
28278WAT     H285077   0.287  -0.002   6.036
28279WAT      O85078   8.291   8.759   6.803
28279WAT     H185079   8.257   8.853   6.811
28279WAT     H285080   8.226   8.696   6.845
28280WAT      O85081   9.895   4.753   8.574
28280WAT     H185082   9.856   4.833   8.529
28280WAT     H285083   9.823   4.687   8.594
28281WAT      O85084   8.520   0.121   6.694
28281WAT     H185085   8.517   0.025   6.723
28281WAT     H285086   8.583   0.130   6.616
28282WAT      O85087   6.426   4.054   3.474
28282WAT     H185088   6.443   4.145   3.436
28282WAT     H285089   6.485   3.988   3.427
28283WAT      O85090   0.980   7.797   1.605
28283WAT     H185091   1.010   7.741   1.528
28283WAT     H285092   0.880   7.799   1.608
28284WAT      O85093   0.509   4.697   3.328
28284WAT     H185094   0.506   4.695   3.228
28284WAT     H285095   0.453   4.622   3.365
28285WAT      O85096   7.684   4.955   2.714
28285WAT     H185097   7.590   4.937   2.687
28285WAT     H285098   7.739   4.872   2.707
28286WAT      O85099   2.850   6.565   0.566
28286WAT     H185100   2.868   6.468   0.556
28286WAT     H285101   2.936   6.615   0.569
28287WAT      O85102   2.436   6.922   2.562
28287WAT     H185103   2.446   6.843   2.622
28287WAT     H285104   2.339   6.938   2.544
28288WAT      O85105   5.446   8.362   3.554
28288WAT     H185106   5.488   8.327   3.637
28288WAT     H285107   5.507   8.428   3.511
28289WAT      O85108   8.869   2.271   9.621
28289WAT     H185109   8.776   2.252   9.590
28289WAT     H285110   8.874   2.257   9.720
28290WAT      O85111   7.673   8.281   8.050
28290WAT     H185112   7.677   8.187   8.017
28290WAT     H285113   7.578   8.314   8.043
28291WAT      O85114   5.228   6.700   9.091
28291WAT     H185115   5.211   6.709   9.189
28291WAT     H285116   5.223   6.790   9.047
28292WAT      O85117   3.389   7.590   1.437
28292WAT     H185118   3.355   7.503   1.403
28292WAT     H285119   3.410   7.650   1.360
28293WAT      O85120   0.469   3.060   5.242
28293WAT     H185121   0.506   3.145   5.205
28293WAT     H285122   0.401   3.081   5.313
28294WAT      O85123   3.710   7.430   4.970
28294WAT     H185124   3.775   7.354   4.965
28294WAT     H285125   3.617   7.393   4.974
28295WAT      O85126   4.034   5.135   5.629
28295WAT     H185127   4.084   5.152   5.544
28295WAT     H285128   4.080   5.062   5.680
28296WAT      O85129   0.985   0.419   8.721
28296WAT     H185130   0.973   0.418   8.622
28296WAT     H285131   1.006   0.326   8.752
28297WAT      O85132   2.198   0.949   6.311
28297WAT     H185133   2.190   0.909   6.220
28297WAT     H285134   2.115   1.002   6.332
28298WAT      O85135   2.114   2.940   7.733
28298WAT     H185136   2.132   2.936   7.832
28298WAT     H285137   2.097   2.848   7.699
28299WAT      O85138   4.738   8.175   5.309
28299WAT     H185139   4.800   8.250   5.330
28299WAT     H285140   4.784   8.088   5.323
28300WAT      O85141   0.390   6.253   1.975
28300WAT     H185142   0.442   6.292   2.051
28300WAT     H285143   0.425   6.291   1.889
28301WAT      O85144   4.431   9.142   3.082
28301WAT     H185145   4.356   9.078   3.094
28301WAT     H285146   4.423   9.217   3.147
28302WAT      O85147   1.540   3.903   1.298
28302WAT     H185148   1.483   3.961   1.239
28302WAT     H285149   1.595   3.842   1.241
28303WAT      O85150   3.474   8.041   9.210
28303WAT     H185151   3.465   8.140   9.193
28303WAT     H285152   3.392   7.995   9.178
28304WAT      O85153   1.832   6.432   6.890
28304WAT     H185154   1.890   6.503   6.850
28304WAT     H285155   1.889   6.354   6.916
28305WAT      O85156   9.521   1.277   7.412
28305WAT     H185157   9.539   1.317   7.322
28305WAT     H285158   9.465   1.340   7.466
28306WAT      O85159   8.433   9.794   1.341
28306WAT     H185160   8.511   9.842   1.381
28306WAT     H285161   8.349   9.820   1.388
28307WAT      O85162   5.291   0.749   8.653
28307WAT     H185163   5.254   0.803   8.728
28307WAT     H285164   5.379   0.788   8.625
28308WAT      O85165   9.778   0.521   0.378
28308WAT     H185166   9.748   0.563   0.464
28308WAT     H285167   9.876   0.539   0.365
28309WAT      O85168   6.367   4.015   9.766
28309WAT     H185169   6.281   4.025   9.716
28309WAT     H285170   6.432   4.085   9.736
28310WAT      O85171   4.122   0.269   2.851
28310WAT     H185172   4.024   0.289   2.861
28310WAT     H285173   4.148   0.279   2.755
28311WAT      O85174   5.903   3.364   1.403
28311WAT     H185175   5.893   3.312   1.318
28311WAT     H285176   5.829   3.340   1.466
28312WAT      O85177   3.824   6.415   1.710
28312WAT     H185178   3.858   6.475   1.637
28312WAT     H285179   3.732   6.383   1.686
28313WAT      O85180   2.379   3.446   0.961
28313WAT     H185181   2.402   3.495   1.044
28313WAT     H285182   2.339   3.509   0.894
28314WAT      O85183   0.732   0.115   1.955
28314WAT     H185184   0.791   0.127   1.875
28314WAT     H285185   0.687   0.202   1.976
28315WAT      O85186   2.568   3.461   6.975
28315WAT     H185187   2.603   3.368   6.971
28315WAT     H285188   2.522   3.476   7.062
28316WAT      O85189   4.902   8.494   9.736
28316WAT     H185190   4.958   8.428   9.687
28316WAT     H285191   4.843   8.445   9.801
28317WAT      O85192   2.133   4.068   7.356
28317WAT     H185193   2.176   4.062   7.447
28317WAT     H285194   2.203   4.091   7.288
28318WAT      O85195   2.404   6.717   0.126
28318WAT     H185196   2.330   6.651   0.140
28318WAT     H285197   2.490   6.676   0.156
28319WAT      O85198   3.331   5.436   8.121
28319WAT     H185199   3.380   5.355   8.088
28319WAT     H285200   3.260   5.407   8.186
28320WAT      O85201   8.587   5.618   9.226
28320WAT     H185202   8.638   5.545   9.181
28320WAT     H285203   8.500   5.631   9.178
28321WAT      O85204   1.872   6.723   6.165
28321WAT     H185205   1.964   6.699   6.134
28321WAT     H285206   1.848   6.667   6.244
28322WAT      O85207   6.867   0.873   2.113
28322WAT     H185208   6.957   0.841   2.082
28322WAT     H285209   6.813   0.795   2.146
28323WAT      O85210   2.253   7.180   8.832
28323WAT     H185211   2.328   7.170   8.767
28323WAT     H285212   2.223   7.090   8.863
28324WAT      O85213   8.436   1.988   1.695
28324WAT     H185214   8.371   2.062   1.714
28324WAT     H285215   8.387   1.902   1.684
28325WAT      O85216   8.213   3.650   0.030
28325WAT     H185217   8.305   3.687   0.033
28325WAT     H285218   8.147   3.725   0.024
28326WAT      O85219   1.385   6.983   2.130
28326WAT     H185220   1.383   6.970   2.031
28326WAT     H285221   1.303   7.033   2.159
28327WAT      O85222   6.538   5.818   8.349
28327WAT     H185223   6.636   5.827   8.369
28327WAT     H285224   6.501   5.741   8.401
28328WAT      O85225   0.214   4.590   4.292
28328WAT     H185226   0.302   4.638   4.283
28328WAT     H285227   0.140   4.658   4.296
28329WAT      O85228   9.432   3.897   1.430
28329WAT     H185229   9.398   3.816   1.477
28329WAT     H285230   9.481   3.955   1.495
28330WAT      O85231   4.199   6.712   1.541
28330WAT     H185232   4.189   6.667   1.453
28330WAT     H285233   4.131   6.785   1.549
28331WAT      O85234   7.548   4.317   5.846
28331WAT     H185235   7.632   4.263   5.854
28331WAT     H285236   7.531   4.365   5.932
28332WAT      O85237   8.137   8.258   4.432
28332WAT     H185238   8.152   8.160   4.416
28332WAT     H285239   8.221   8.299   4.468
28333WAT      O85240   8.831   9.336   0.565
28333WAT     H185241   8.847   9.322   0.468
28333WAT     H285242   8.880   9.417   0.596
28334WAT      O85243   0.851   8.541   8.932
28334WAT     H185244   0.948   8.541   8.955
28334WAT     H285245   0.810   8.454   8.960
28335WAT      O85246   5.122   8.982   4.825
28335WAT     H185247   5.037   8.931   4.810
28335WAT     H285248   5.187   8.924   4.875
28336WAT      O85249   2.754   3.758   9.407
28336WAT     H185250   2.752   3.773   9.506
28336WAT     H285251   2.678   3.807   9.364
28337WAT      O85252   2.051   2.755   9.822
28337WAT     H185253   2.065   2.724   9.915
28337WAT     H285254   2.104   2.839   9.807
28338WAT      O85255   7.419   3.003   1.546
28338WAT     H185256   7.353   2.977   1.616
28338WAT     H285257   7.479   3.075   1.582
28339WAT      O85258   0.047   7.212   8.061
28339WAT     H185259   0.120   7.216   8.129
28339WAT     H285260   0.012   7.118   8.056
28340WAT      O85261   6.854   8.015   4.797
28340WAT     H185262   6.879   7.941   4.734
28340WAT     H285263   6.923   8.087   4.792
28341WAT      O85264   8.003   9.109   4.629
28341WAT     H185265   7.909   9.142   4.625
28341WAT     H285266   8.003   9.011   4.650
28342WAT      O85267   8.844   1.371   2.640
28342WAT     H185268   8.901   1.451   2.620
28342WAT     H285269   8.803   1.339   2.555
28343WAT      O85270   7.383   7.306   9.497
28343WAT     H185271   7.413   7.243   9.569
28343WAT     H285272   7.352   7.254   9.418
28344WAT      O85273   6.228   5.951   1.303
28344WAT     H185274   6.320   5.985   1.321
28344WAT     H285275   6.161   6.006   1.353
28345WAT      O85276   1.678   8.668   8.167
28345WAT     H185277   1.675   8.579   8.122
28345WAT     H285278   1.680   8.654   8.266
28346WAT      O85279   6.816   7.473   4.933
28346WAT     H185280   6.750   7.404   4.961
28346WAT     H285281   6.908   7.433   4.930
28347WAT      O85282   7.693   7.618   8.483
28347WAT     H185283   7.624   7.624   8.412
28347WAT     H285284   7.761   7.690   8.471
28348WAT      O85285   7.352   4.484   8.547
28348WAT     H185286   7.286   4.429   8.598
28348WAT     H285287   7.344   4.463   8.449
28349WAT      O85288   0.764   4.533   9.495
28349WAT     H185289   0.712   4.606   9.539
28349WAT     H285290   0.733   4.523   9.401
28350WAT      O85291   3.527   4.947   3.683
28350WAT     H185292   3.463   5.020   3.658
28350WAT     H285293   3.520   4.929   3.781
28351WAT      O85294   4.269   5.648   0.727
28351WAT     H185295   4.240   5.633   0.821
28351WAT     H285296   4.192   5.634   0.665
28352WAT      O85297   8.972   2.506   3.751
28352WAT     H185298   8.954   2.602   3.728
28352WAT     H285299   9.027   2.502   3.834
28353WAT      O85300   7.299   5.157   1.674
28353WAT     H185301   7.291   5.097   1.753
28353WAT     H285302   7.305   5.252   1.704
28354WAT      O85303   2.600   6.289   5.702
28354WAT     H185304   2.611   6.234   5.619
28354WAT     H285305   2.615   6.385   5.680
28355WAT      O85306   5.814   9.623   2.960
28355WAT     H185307   5.739   9.558   2.950
28355WAT     H285308   5.885   9.583   3.018
28356WAT      O85309   0.642   9.757   5.658
28356WAT     H185310   0.684   9.726   5.573
28356WAT     H285311   0.552   9.714   5.668
28357WAT      O85312   3.301   3.420   5.388
28357WAT     H185313   3.299   3.322   5.411
28357WAT     H285314   3.209   3.457   5.392
28358WAT      O85315   5.800   4.115   1.988
28358WAT     H185316   5.736   4.188   2.013
28358WAT     H285317   5.879   4.155   1.941
28359WAT      O85318   0.895   7.433   3.741
28359WAT     H185319   0.971   7.498   3.733
28359WAT     H285320   0.857   7.438   3.833
28360WAT      O85321   4.188   1.929   8.580
28360WAT     H185322   4.262   1.994   8.593
28360WAT     H285323   4.169   1.882   8.666
28361WAT      O85324   5.861   8.480   6.052
28361WAT     H185325   5.849   8.548   6.124
28361WAT     H285326   5.832   8.390   6.084
28362WAT      O85327   2.400   5.687   6.626
28362WAT     H185328   2.429   5.762   6.684
28362WAT     H285329   2.347   5.723   6.549
28363WAT      O85330   6.605   2.021   7.730
28363WAT     H185331   6.592   2.030   7.631
28363WAT     H285332   6.659   1.939   7.749
28364WAT      O85333   1.099   4.203   9.889
28364WAT     H185334   1.078   4.296   9.859
28364WAT     H285335   1.066   4.138   9.820
28365WAT      O85336   6.485   9.549   9.702
28365WAT     H185337   6.559   9.584   9.644
28365WAT     H285338   6.443   9.626   9.750
28366WAT      O85339   3.798   2.252   0.447
28366WAT     H185340   3.805   2.276   0.543
28366WAT     H285341   3.889   2.257   0.405
28367WAT      O85342   3.052   6.189   2.790
28367WAT     H185343   3.094   6.099   2.775
28367WAT     H285344   3.059   6.213   2.887
28368WAT      O85345   8.704   3.868   7.364
28368WAT     H185346   8.633   3.821   7.416
28368WAT     H285347   8.763   3.800   7.319
28369WAT      O85348   1.114   6.576   5.400
28369WAT     H185349   1.052   6.497   5.400
28369WAT     H285350   1.184   6.563   5.470
28370WAT      O85351   6.963   4.476   4.841
28370WAT     H185352   6.971   4.500   4.744
28370WAT     H285353   7.052   4.446   4.876
28371WAT      O85354   9.699   3.106   3.419
28371WAT     H185355   9.638   3.086   3.342
28371WAT     H285356   9.755   3.025   3.438
28372WAT      O85357   5.647   9.516   2.377
28372WAT     H185358   5.593   9.587   2.332
28372WAT     H285359   5.732   9.554   2.412
28373WAT      O85360   4.094   4.621   9.543
28373WAT     H185361   4.141   4.574   9.468
28373WAT     H285362   4.141   4.707   9.562
28374WAT      O85363   3.480   1.057   5.592
28374WAT     H185364   3.556   1.118   5.568
28374WAT     H285365   3.489   0.972   5.539
28375WAT      O85366   4.320   4.889   5.572
28375WAT     H185367   4.391   4.865   5.638
28375WAT     H285368   4.329   4.985   5.546
28376WAT      O85369   1.111   3.644   6.268
28376WAT     H185370   1.016   3.618   6.257
28376WAT     H285371   1.117   3.740   6.297
28377WAT      O85372   7.918   1.287   4.078
28377WAT     H185373   7.948   1.301   3.983
28377WAT     H285374   7.848   1.355   4.101
28378WAT      O85375   5.587   6.510   2.726
28378WAT     H185376   5.488   6.526   2.726
28378WAT     H285377   5.633   6.586   2.681
28379WAT      O85378   7.918   9.262   8.754
28379WAT     H185379   7.819   9.272   8.764
28379WAT     H285380   7.963   9.341   8.796
28380WAT      O85381   1.493   0.946   6.736
28380WAT     H185382   1.410   0.893   6.746
28380WAT     H285383   1.470   1.041   6.713
28381WAT      O85384   9.248   5.304   4.375
28381WAT     H185385   9.211   5.397   4.382
28381WAT     H285386   9.273   5.271   4.466
28382WAT      O85387   7.454   6.605   5.615
28382WAT     H185388   7.423   6.660   5.692
28382WAT     H285389   7.546   6.570   5.633
28383WAT      O85390   8.306   2.429   4.192
28383WAT     H185391   8.373   2.496   4.223
28383WAT     H285392   8.257   2.391   4.270
28384WAT      O85393   9.583   3.340   6.683
28384WAT     H185394   9.644   3.262   6.699
28384WAT     H285395   9.635   3.425   6.685
28385WAT      O85396   1.715   3.688   4.407
28385WAT     H185397   1.713   3.768   4.348
28385WAT     H285398   1.809   3.655   4.416
28386WAT      O85399   0.630   7.350   6.728
28386WAT     H185400   0.720   7.390   6.711
28386WAT     H285401   0.634   7.252   6.708
28387WAT      O85402   7.846   4.531   8.549
28387WAT     H185403   7.846   4.589   8.630
28387WAT     H285404   7.908   4.570   8.481
28388WAT      O85405   5.601   0.215   7.222
28388WAT     H185406   5.637   0.307   7.239
28388WAT     H285407   5.621   0.189   7.127
28389WAT      O85408   2.493   8.176   7.594
28389WAT     H185409   2.442   8.115   7.533
28389WAT     H285410   2.455   8.171   7.686
28390WAT      O85411   5.349   5.498   5.674
28390WAT     H185412   5.399   5.430   5.620
28390WAT     H285413   5.389   5.505   5.765
28391WAT      O85414   2.008   1.546   4.933
28391WAT     H185415   1.924   1.509   4.893
28391WAT     H285416   2.082   1.538   4.866
28392WAT      O85417   8.573   5.870   7.272
28392WAT     H185418   8.498   5.924   7.236
28392WAT     H285419   8.605   5.910   7.358
28393WAT      O85420   2.941   0.546   8.523
28393WAT     H185421   3.002   0.599   8.465
28393WAT     H285422   2.883   0.488   8.466
28394WAT      O85423   6.141   7.332   7.841
28394WAT     H185424   6.083   7.291   7.770
28394WAT     H285425   6.236   7.333   7.810
28395WAT      O85426   1.857   6.620   4.920
28395WAT     H185427   1.943   6.585   4.882
28395WAT     H285428   1.859   6.612   5.019
28396WAT      O85429   3.520   5.228   1.126
28396WAT     H185430   3.480   5.157   1.068
28396WAT     H285431   3.526   5.196   1.220
28397WAT      O85432   4.301   7.768   8.481
28397WAT     H185433   4.246   7.850   8.490
28397WAT     H285434   4.359   7.775   8.400
28398WAT      O85435   5.197   9.638   1.482
28398WAT     H185436   5.287   9.666   1.516
28398WAT     H285437   5.142   9.718   1.463
28399WAT      O85438   5.662   0.903   9.838
28399WAT     H185439   5.760   0.900   9.822
28399WAT     H285440   5.642   0.871   9.930
28400WAT      O85441   7.011   8.648   4.493
28400WAT     H185442   7.006   8.557   4.533
28400WAT     H285443   6.939   8.706   4.533
28401WAT      O85444   4.942   5.417   6.947
28401WAT     H185445   4.904   5.331   6.981
28401WAT     H285446   5.036   5.426   6.979
28402WAT      O85447   6.682   5.761   1.647
28402WAT     H185448   6.778   5.737   1.629
28402WAT     H285449   6.670   5.781   1.744
28403WAT      O85450   2.701   9.472   5.520
28403WAT     H185451   2.671   9.565   5.539
28403WAT     H285452   2.668   9.411   5.592
28404WAT      O85453   3.001   2.150   9.326
28404WAT     H185454   2.978   2.067   9.377
28404WAT     H285455   2.933   2.166   9.255
28405WAT      O85456   3.168   0.855   0.202
28405WAT     H185457   3.257   0.828   0.238
28405WAT     H285458   3.139   0.788   0.134
28406WAT      O85459   3.819   2.681   4.329
28406WAT     H185460   3.786   2.607   4.387
28406WAT     H285461   3.891   2.647   4.268
28407WAT      O85462   0.859   1.816   9.857
28407WAT     H185463   0.763   1.795   9.873
28407WAT     H285464   0.877   1.912   9.879
28408WAT      O85465   4.511   1.512   4.231
28408WAT     H185466   4.511   1.412   4.226
28408WAT     H285467   4.596   1.544   4.272
28409WAT      O85468   4.092   2.765   6.501
28409WAT     H185469   4.171   2.714   6.535
28409WAT     H285470   4.019   2.700   6.476
28410WAT      O85471   8.911   3.217   8.857
28410WAT     H185472   8.857   3.214   8.940
28410WAT     H285473   8.999   3.262   8.875
28411WAT      O85474   5.405   9.331   3.553
28411WAT     H185475   5.420   9.321   3.455
28411WAT     H285476   5.334   9.399   3.569
28412WAT      O85477   1.580   2.787   5.577
28412WAT     H185478   1.640   2.790   5.497
28412WAT     H285479   1.559   2.881   5.606
28413WAT      O85480   6.786   1.312   0.265
28413WAT     H185481   6.782   1.394   0.208
28413WAT     H285482   6.869   1.261   0.243
28414WAT      O85483   4.309   1.763   2.193
28414WAT     H185484   4.332   1.860   2.190
28414WAT     H285485   4.224   1.747   2.142
28415WAT      O85486   4.742   1.274   1.006
28415WAT     H185487   4.757   1.175   1.007
28415WAT     H285488   4.647   1.293   1.029
28416WAT      O85489   3.791   2.931   5.124
28416WAT     H185490   3.839   2.937   5.036
28416WAT     H285491   3.795   3.020   5.170
28417WAT      O85492   6.813   6.966   0.145
28417WAT     H185493   6.845   6.925   0.059
28417WAT     H285494   6.830   7.064   0.144
28418WAT      O85495   5.669   3.431   3.962
28418WAT     H185496   5.611   3.356   3.993
28418WAT     H285497   5.680   3.426   3.863
28419WAT      O85498   1.500   6.031   4.543
28419WAT     H185499   1.445   5.984   4.474
28419WAT     H285500   1.593   6.044   4.509
28420WAT      O85501   1.580   6.444   4.489
28420WAT     H185502   1.517   6.395   4.550
28420WAT     H285503   1.529   6.514   4.439
28421WAT      O85504   5.595   5.375   2.703
28421WAT     H185505   5.652   5.410   2.778
28421WAT     H285506   5.531   5.446   2.675
28422WAT      O85507   6.230   3.513   8.952
28422WAT     H185508   6.171   3.481   9.026
28422WAT     H285509   6.313   3.458   8.949
28423WAT      O85510   3.858   7.147   3.784
28423WAT     H185511   3.838   7.242   3.760
28423WAT     H285512   3.949   7.122   3.749
28424WAT      O85513   8.835   4.836   2.990
28424WAT     H185514   8.740   4.862   2.972
28424WAT     H285515   8.839   4.740   3.016
28425WAT      O85516   6.625   9.614   8.010
28425WAT     H185517   6.709   9.655   7.974
28425WAT     H285518   6.648   9.536   8.068
28426WAT      O85519   6.139   6.881   3.601
28426WAT     H185520   6.118   6.790   3.564
28426WAT     H285521   6.069   6.946   3.572
28427WAT      O85522   6.709   0.872   6.870
28427WAT     H185523   6.728   0.775   6.889
28427WAT     H285524   6.639   0.879   6.799
28428WAT      O85525   0.827   2.699   0.487
28428WAT     H185526   0.780   2.787   0.487
28428WAT     H285527   0.903   2.701   0.422
28429WAT      O85528   4.334   0.545   0.137
28429WAT     H185529   4.329   0.446   0.129
28429WAT     H285530   4.261   0.587   0.082
28430WAT      O85531   8.270   5.384   7.828
28430WAT     H185532   8.250   5.411   7.734
28430WAT     H285533   8.202   5.424   7.889
28431WAT      O85534   8.589   3.270   1.277
28431WAT     H185535   8.628   3.259   1.185
28431WAT     H285536   8.527   3.194   1.296
28432WAT      O85537   1.416   8.601   5.793
28432WAT     H185538   1.323   8.565   5.799
28432WAT     H285539   1.458   8.599   5.884
28433WAT      O85540   5.530   4.540   8.573
28433WAT     H185541   5.629   4.526   8.583
28433WAT     H285542   5.483   4.454   8.592
28434WAT      O85543   3.565   1.782   1.847
28434WAT     H185544   3.571   1.829   1.936
28434WAT     H285545   3.623   1.831   1.781
28435WAT      O85546   8.608   6.348   6.987
28435WAT     H185547   8.584   6.258   6.952
28435WAT     H285548   8.616   6.413   6.912
28436WAT      O85549   3.655   4.681   0.897
28436WAT     H185550   3.644   4.719   0.989
28436WAT     H285551   3.750   4.694   0.868
28437WAT      O85552   5.402   0.156   3.443
28437WAT     H185553   5.367   0.241   3.403
28437WAT     H285554   5.363   0.078   3.394
28438WAT      O85555   8.798   4.049   4.771
28438WAT     H185556   8.776   3.965   4.722
28438WAT     H285557   8.857   4.107   4.714
28439WAT      O85558   0.616   0.153   4.010
28439WAT     H185559   0.527   0.147   4.055
28439WAT     H285560   0.602   0.160   3.911
28440WAT      O85561   8.342   9.663   1.924
28440WAT     H185562   8.440   9.641   1.931
28440WAT     H285563   8.329   9.734   1.855
28441WAT      O85564   5.516   8.865   8.964
28441WAT     H185565   5.416   8.867   8.971
28441WAT     H285566   5.545   8.918   8.885
28442WAT      O85567   5.253   5.290   2.600
28442WAT     H185568   5.199   5.266   2.520
28442WAT     H285569   5.317   5.364   2.576
28443WAT      O85570   4.217   2.185   6.301
28443WAT     H185571   4.221   2.270   6.354
28443WAT     H285572   4.208   2.108   6.364
28444WAT      O85573   8.086   8.064   2.129
28444WAT     H185574   8.056   7.984   2.077
28444WAT     H285575   8.052   8.057   2.223
28445WAT      O85576   6.576   2.494   6.928
28445WAT     H185577   6.571   2.590   6.901
28445WAT     H285578   6.544   2.437   6.853
28446WAT      O85579   2.037   1.969   9.860
28446WAT     H185580   2.102   1.972   9.936
28446WAT     H285581   2.065   1.898   9.795
28447WAT      O85582   8.633   0.662   4.692
28447WAT     H185583   8.706   0.616   4.642
28447WAT     H285584   8.552   0.603   4.695
28448WAT      O85585   2.167   7.541   2.372
28448WAT     H185586   2.095   7.515   2.437
28448WAT     H285587   2.220   7.460   2.347
28449WAT      O85588   6.785   1.838   0.966
28449WAT     H185589   6.776   1.836   0.866
28449WAT     H285590   6.869   1.885   0.991
28450WAT      O85591   6.686   4.757   1.358
28450WAT     H185592   6.729   4.839   1.322
28450WAT     H285593   6.617   4.723   1.294
28451WAT      O85594   2.929   3.603   7.098
28451WAT     H185595   3.025   3.608   7.124
28451WAT     H285596   2.921   3.615   6.999
28452WAT      O85597   3.071   4.385   4.816
28452WAT     H185598   3.011   4.464   4.829
28452WAT     H285599   3.166   4.415   4.822
28453WAT      O85600   0.323   5.101   3.563
28453WAT     H185601   0.347   5.174   3.627
28453WAT     H285602   0.245   5.131   3.508
28454WAT      O85603   3.602   9.334   4.409
28454WAT     H185604   3.618   9.346   4.311
28454WAT     H285605   3.614   9.238   4.434
28455WAT      O85606   4.111   0.740   8.108
28455WAT     H185607   4.052   0.737   8.189
28455WAT     H285608   4.140   0.647   8.084
28456WAT      O85609   6.986   5.947   2.472
28456WAT     H185610   6.958   5.901   2.557
28456WAT     H285611   7.046   5.886   2.419
28457WAT      O85612   2.984   5.126   2.814
28457WAT     H185613   2.909   5.097   2.874
28457WAT     H285614   3.055   5.055   2.813
28458WAT      O85615   3.758   4.841   6.365
28458WAT     H185616   3.706   4.803   6.441
28458WAT     H285617   3.723   4.932   6.343
28459WAT      O85618   0.859   9.417   0.580
28459WAT     H185619   0.837   9.346   0.513
28459WAT     H285620   0.813   9.396   0.667
28460WAT      O85621   9.004   6.856   0.794
28460WAT     H185622   9.041   6.814   0.711
28460WAT     H285623   8.916   6.899   0.773
28461WAT      O85624   7.745   8.206   8.840
28461WAT     H185625   7.817   8.272   8.819
28461WAT     H285626   7.661   8.255   8.863
28462WAT      O85627   5.341   5.259   4.321
28462WAT     H185628   5.263   5.281   4.378
28462WAT     H285629   5.342   5.318   4.241
28463WAT      O85630   4.622   0.820   5.354
28463WAT     H185631   4.576   0.791   5.437
28463WAT     H285632   4.639   0.741   5.295
28464WAT      O85633   5.113   6.064   1.706
28464WAT     H185634   5.192   6.033   1.759
28464WAT     H285635   5.058   6.127   1.762
28465WAT      O85636   6.035   8.831   3.225
28465WAT     H185637   6.083   8.835   3.312
28465WAT     H285638   6.032   8.922   3.184
28466WAT      O85639   8.505   1.723   2.348
28466WAT     H185640   8.423   1.779   2.336
28466WAT     H285641   8.501   1.644   2.287
28467WAT      O85642   5.410   1.254   4.459
28467WAT     H185643   5.311   1.243   4.445
28467WAT     H285644   5.428   1.274   4.555
28468WAT      O85645   6.635   0.122   3.926
28468WAT     H185646   6.651   0.166   3.838
28468WAT     H285647   6.722   0.111   3.974
28469WAT      O85648   1.362   7.704   9.833
28469WAT     H185649   1.436   7.763   9.864
28469WAT     H285650   1.339   7.639   9.905
28470WAT      O85651   8.274   6.456   3.231
28470WAT     H185652   8.319   6.539   3.196
28470WAT     H285653   8.186   6.445   3.184
28471WAT      O85654   8.473   6.984   3.545
28471WAT     H185655   8.402   6.955   3.608
28471WAT     H285656   8.556   6.931   3.561
28472WAT      O85657   6.850   1.353   2.098
28472WAT     H185658   6.827   1.450   2.091
28472WAT     H285659   6.783   1.307   2.157
28473WAT      O85660   8.649   3.779   0.245
28473WAT     H185661   8.716   3.774   0.171
28473WAT     H285662   8.608   3.870   0.247
28474WAT      O85663   0.662   7.770   0.178
28474WAT     H185664   0.747   7.776   0.126
28474WAT     H285665   0.682   7.739   0.271
28475WAT      O85666   7.263   4.246   6.338
28475WAT     H185667   7.299   4.252   6.431
28475WAT     H285668   7.179   4.300   6.331
28476WAT      O85669   2.521   1.139   4.805
28476WAT     H185670   2.590   1.072   4.776
28476WAT     H285671   2.536   1.162   4.901
28477WAT      O85672   2.732   4.730   5.924
28477WAT     H185673   2.811   4.790   5.911
28477WAT     H285674   2.663   4.777   5.978
28478WAT      O85675   8.155   8.769   6.134
28478WAT     H185676   8.084   8.812   6.190
28478WAT     H285677   8.227   8.836   6.116
28479WAT      O85678   9.606   9.765   7.653
28479WAT     H185679   9.513   9.741   7.680
28479WAT     H285680   9.616   9.865   7.657
28480WAT      O85681   7.008   4.897   9.447
28480WAT     H185682   7.051   4.820   9.400
28480WAT     H285683   7.070   4.931   9.518
28481WAT      O85684   8.423   5.796   6.547
28481WAT     H185685   8.519   5.768   6.539
28481WAT     H285686   8.402   5.813   6.643
28482WAT      O85687   8.847   4.659   6.253
28482WAT     H185688   8.900   4.658   6.338
28482WAT     H285689   8.893   4.717   6.186
28483WAT      O85690   1.852   4.925   1.762
28483WAT     H185691   1.926   4.961   1.818
28483WAT     H285692   1.788   4.873   1.819
28484WAT      O85693   6.574   5.013   0.743
28484WAT     H185694   6.569   4.914   0.734
28484WAT     H285695   6.667   5.040   0.767
28485WAT      O85696   1.174   3.376   5.010
28485WAT     H185697   1.085   3.422   5.008
28485WAT     H285698   1.246   3.439   4.983
28486WAT      O85699   6.231   7.270   6.398
28486WAT     H185700   6.150   7.311   6.355
28486WAT     H285701   6.294   7.239   6.327
28487WAT      O85702   3.201   7.470   4.373
28487WAT     H185703   3.248   7.534   4.312
28487WAT     H285704   3.170   7.518   4.455
28488WAT      O85705   7.973   5.184   1.591
28488WAT     H185706   7.991   5.104   1.534
28488WAT     H285707   7.884   5.174   1.635
28489WAT      O85708   8.328   3.573   1.872
28489WAT     H185709   8.260   3.620   1.928
28489WAT     H285710   8.337   3.479   1.903
28490WAT      O85711   6.296   0.733   1.702
28490WAT     H185712   6.393   0.750   1.723
28490WAT     H285713   6.246   0.820   1.702
28491WAT      O85714   9.343   1.089   9.056
28491WAT     H185715   9.391   1.122   8.975
28491WAT     H285716   9.245   1.103   9.045
28492WAT      O85717   9.094   2.358   7.455
28492WAT     H185718   9.016   2.379   7.513
28492WAT     H285719   9.061   2.329   7.365
28493WAT      O85720   5.290   7.491   4.106
28493WAT     H185721   5.232   7.427   4.056
28493WAT     H285722   5.261   7.585   4.086
28494WAT      O85723   3.525   9.411   5.053
28494WAT     H185724   3.623   9.419   5.035
28494WAT     H285725   3.500   9.470   5.129
28495WAT      O85726   8.916   4.049   6.852
28495WAT     H185727   9.013   4.050   6.876
28495WAT     H285728   8.899   4.114   6.778
28496WAT      O85729   7.895   9.326   6.566
28496WAT     H185730   7.825   9.397   6.566
28496WAT     H285731   7.976   9.360   6.614
28497WAT      O85732   9.629   7.815   9.278
28497WAT     H185733   9.576   7.871   9.215
28497WAT     H285734   9.706   7.869   9.313
28498WAT      O85735   4.885   0.158   0.718
28498WAT     H185736   4.798   0.191   0.681
28498WAT     H285737   4.931   0.102   0.650
28499WAT      O85738   3.631   7.562   3.428
28499WAT     H185739   3.564   7.527   3.494
28499WAT     H285740   3.699   7.616   3.477
28500WAT      O85741   0.008   3.553   5.153
28500WAT     H185742   0.100   3.516   5.139
28500WAT     H285743   0.013   3.643   5.196
28501WAT      O85744   7.487   9.465   8.072
28501WAT     H185745   7.421   9.540   8.077
28501WAT     H285746   7.454   9.397   8.006
28502WAT      O85747   1.466   1.265   8.642
28502WAT     H185748   1.386   1.250   8.699
28502WAT     H285749   1.531   1.190   8.654
28503WAT      O85750   0.848   5.108   5.919
28503WAT     H185751   0.896   5.142   6.000
28503WAT     H285752   0.790   5.031   5.944
28504WAT      O85753   6.703   2.777   7.310
28504WAT     H185754   6.674   2.696   7.259
28504WAT     H285755   6.663   2.859   7.269
28505WAT      O85756   5.856   3.084   7.050
28505WAT     H185757   5.817   3.137   7.125
28505WAT     H285758   5.787   3.070   6.979
28506WAT      O85759   6.026   4.380   2.895
28506WAT     H185760   6.125   4.367   2.889
28506WAT     H285761   5.999   4.459   2.839
28507WAT      O85762   7.454   3.951   9.057
28507WAT     H185763   7.423   3.890   8.984
28507WAT     H285764   7.554   3.944   9.066
28508WAT      O85765   9.170   1.754   4.363
28508WAT     H185766   9.270   1.761   4.366
28508WAT     H285767   9.144   1.681   4.300
28509WAT      O85768   6.330   7.967   0.534
28509WAT     H185769   6.327   7.868   0.524
28509WAT     H285770   6.379   8.007   0.456
28510WAT      O85771   0.831   6.233   0.607
28510WAT     H185772   0.836   6.332   0.610
28510WAT     H285773   0.764   6.201   0.675
28511WAT      O85774   3.401   8.843   3.918
28511WAT     H185775   3.305   8.830   3.892
28511WAT     H285776   3.432   8.764   3.971
28512WAT      O85777   2.780   7.084   6.023
28512WAT     H185778   2.757   7.042   5.935
28512WAT     H285779   2.713   7.154   6.045
28513WAT      O85780   6.101   6.278   0.137
28513WAT     H185781   6.067   6.221   0.212
28513WAT     H285782   6.090   6.375   0.161
28514WAT      O85783   1.601   3.702   0.918
28514WAT     H185784   1.634   3.692   1.012
28514WAT     H285785   1.609   3.798   0.890
28515WAT      O85786   4.438   7.698   5.945
28515WAT     H185787   4.435   7.687   6.044
28515WAT     H285788   4.361   7.756   5.916
28516WAT      O85789   1.813   4.008   6.237
28516WAT     H185790   1.912   4.021   6.247
28516WAT     H285791   1.765   4.058   6.309
28517WAT      O85792   8.154   5.841   5.875
28517WAT     H185793   8.055   5.840   5.862
28517WAT     H285794   8.194   5.758   5.836
28518WAT      O85795   7.596   9.392   3.268
28518WAT     H185796   7.550   9.306   3.247
28518WAT     H285797   7.694   9.382   3.252
28519WAT      O85798   8.273   3.099   4.338
28519WAT     H185799   8.293   3.176   4.398
28519WAT     H285800   8.211   3.129   4.265
28520WAT      O85801   2.872   7.550   5.754
28520WAT     H185802   2.910   7.490   5.824
28520WAT     H285803   2.772   7.547   5.758
28521WAT      O85804   6.011   9.020   4.295
28521WAT     H185805   5.968   8.945   4.346
28521WAT     H285806   6.009   9.103   4.351
28522WAT      O85807   4.915   2.211   6.598
28522WAT     H185808   4.947   2.118   6.613
28522WAT     H285809   4.984   2.262   6.546
28523WAT      O85810   4.088   5.190   2.595
28523WAT     H185811   4.187   5.197   2.605
28523WAT     H285812   4.062   5.094   2.592
28524WAT      O85813   1.798   8.416   7.659
28524WAT     H185814   1.876   8.426   7.721
28524WAT     H285815   1.771   8.506   7.624
28525WAT      O85816   4.362   6.476   8.827
28525WAT     H185817   4.403   6.458   8.737
28525WAT     H285818   4.435   6.490   8.894
28526WAT      O85819   2.009   6.599   7.100
28526WAT     H185820   1.945   6.523   7.113
28526WAT     H285821   1.973   6.681   7.144
28527WAT      O85822   8.923   9.467   1.634
28527WAT     H185823   9.007   9.515   1.659
28527WAT     H285824   8.860   9.531   1.588
28528WAT      O85825   6.178   3.410   7.405
28528WAT     H185826   6.179   3.510   7.415
28528WAT     H285827   6.224   3.368   7.484
28529WAT      O85828   3.006   1.220   3.376
28529WAT     H185829   2.949   1.277   3.436
28529WAT     H285830   2.989   1.245   3.281
28530WAT      O85831   9.117   4.387   7.379
28530WAT     H185832   9.167   4.427   7.302
28530WAT     H285833   9.024   4.366   7.352
28531WAT      O85834   9.707   4.805   1.698
28531WAT     H185835   9.705   4.843   1.790
28531WAT     H285836   9.718   4.706   1.702
28532WAT      O85837   5.899   5.373   2.675
28532WAT     H185838   5.870   5.378   2.770
28532WAT     H285839   5.838   5.313   2.625
28533WAT      O85840   5.949   0.089   5.168
28533WAT     H185841   6.023   0.050   5.114
28533WAT     H285842   5.982   0.114   5.258
28534WAT      O85843   6.674   6.922   3.797
28534WAT     H185844   6.741   6.866   3.747
28534WAT     H285845   6.706   7.017   3.801
28535WAT      O85846   6.831   8.433   9.457
28535WAT     H185847   6.780   8.407   9.375
28535WAT     H285848   6.914   8.481   9.430
28536WAT      O85849   1.644   5.023   2.181
28536WAT     H185850   1.663   4.955   2.252
28536WAT     H285851   1.552   5.060   2.195
28537WAT      O85852   4.506   0.510   8.047
28537WAT     H185853   4.412   0.526   8.076
28537WAT     H285854   4.555   0.462   8.119
28538WAT      O85855   2.219   4.142   3.740
28538WAT     H185856   2.141   4.111   3.794
28538WAT     H285857   2.206   4.237   3.713
28539WAT      O85858   8.150   2.930   2.746
28539WAT     H185859   8.192   3.020   2.755
28539WAT     H285860   8.168   2.876   2.829
28540WAT      O85861   5.761   1.369   3.465
28540WAT     H185862   5.758   1.275   3.430
28540WAT     H285863   5.819   1.372   3.546
28541WAT      O85864   8.877   9.566   7.080
28541WAT     H185865   8.864   9.503   7.156
28541WAT     H285866   8.975   9.585   7.068
28542WAT      O85867   8.466   6.168   5.619
28542WAT     H185868   8.377   6.128   5.643
28542WAT     H285869   8.504   6.215   5.698
28543WAT      O85870   0.859   5.953   7.907
28543WAT     H185871   0.814   5.878   7.860
28543WAT     H285872   0.819   6.040   7.878
28544WAT      O85873   5.190   7.736   6.337
28544WAT     H185874   5.277   7.781   6.358
28544WAT     H285875   5.170   7.667   6.407
28545WAT      O85876   1.103   7.948   2.132
28545WAT     H185877   1.058   7.878   2.188
28545WAT     H285878   1.187   7.977   2.177
28546WAT      O85879   0.468   6.521   8.469
28546WAT     H185880   0.375   6.555   8.459
28546WAT     H285881   0.488   6.457   8.394
28547WAT      O85882   0.922   0.836   1.654
28547WAT     H185883   0.931   0.794   1.744
28547WAT     H285884   0.843   0.797   1.606
28548WAT      O85885   3.906   7.770   6.837
28548WAT     H185886   3.997   7.731   6.820
28548WAT     H285887   3.891   7.778   6.936
28549WAT      O85888   5.488   4.271   5.510
28549WAT     H185889   5.481   4.338   5.584
28549WAT     H285890   5.580   4.275   5.470
28550WAT      O85891   7.345   7.072   0.061
28550WAT     H185892   7.407   7.005   0.104
28550WAT     H285893   7.287   7.113   0.131
28551WAT      O85894   1.231   6.331   7.659
28551WAT     H185895   1.314   6.380   7.636
28551WAT     H285896   1.177   6.316   7.576
28552WAT      O85897   0.710   8.883   2.422
28552WAT     H185898   0.699   8.863   2.325
28552WAT     H285899   0.798   8.928   2.438
28553WAT      O85900   9.599   6.392   3.149
28553WAT     H185901   9.648   6.449   3.083
28553WAT     H285902   9.520   6.350   3.105
28554WAT      O85903   5.747   1.940   6.030
28554WAT     H185904   5.786   2.032   6.024
28554WAT     H285905   5.654   1.942   5.993
28555WAT      O85906   6.390   0.677   9.858
28555WAT     H185907   6.441   0.757   9.889
28555WAT     H285908   6.453   0.607   9.825
28556WAT      O85909   3.634   4.916   2.397
28556WAT     H185910   3.627   4.998   2.453
28556WAT     H285911   3.692   4.935   2.318
28557WAT      O85912   7.224   8.592   4.335
28557WAT     H185913   7.254   8.503   4.367
28557WAT     H285914   7.149   8.625   4.392
28558WAT      O85915   9.333   7.420   6.265
28558WAT     H185916   9.382   7.357   6.205
28558WAT     H285917   9.267   7.472   6.212
28559WAT      O85918   8.157   0.717   4.242
28559WAT     H185919   8.137   0.751   4.150
28559WAT     H285920   8.225   0.776   4.286
28560WAT      O85921   1.544   0.738   2.269
28560WAT     H185922   1.636   0.777   2.266
28560WAT     H285923   1.550   0.639   2.256
28561WAT      O85924   2.676   8.975   7.280
28561WAT     H185925   2.746   8.924   7.230
28561WAT     H285926   2.718   9.020   7.359
28562WAT      O85927   4.816   6.855   3.050
28562WAT     H185928   4.895   6.882   3.105
28562WAT     H285929   4.804   6.756   3.056
28563WAT      O85930   1.777   7.814   4.674
28563WAT     H185931   1.713   7.737   4.668
28563WAT     H285932   1.860   7.792   4.623
28564WAT      O85933   5.410   5.897   4.927
28564WAT     H185934   5.458   5.837   4.863
28564WAT     H285935   5.329   5.849   4.962
28565WAT      O85936   9.461   5.827   1.996
28565WAT     H185937   9.444   5.908   1.941
28565WAT     H285938   9.382   5.765   1.989
28566WAT      O85939   0.764   8.071   6.996
28566WAT     H185940   0.838   8.014   6.961
28566WAT     H285941   0.744   8.047   7.091
28567WAT      O85942   7.138   0.951   5.508
28567WAT     H185943   7.213   1.010   5.534
28567WAT     H285944   7.103   0.904   5.589
28568WAT      O85945   2.731   9.218   0.413
28568WAT     H185946   2.632   9.219   0.424
28568WAT     H285947   2.754   9.192   0.319
28569WAT      O85948   6.676   0.944   7.936
28569WAT     H185949   6.733   0.961   7.855
28569WAT     H285950   6.589   0.903   7.907
28570WAT      O85951   7.049   6.443   5.331
28570WAT     H185952   7.126   6.466   5.390
28570WAT     H285953   6.966   6.436   5.386
28571WAT      O85954   2.324   8.025   7.252
28571WAT     H185955   2.406   8.052   7.202
28571WAT     H285956   2.288   8.104   7.302
28572WAT      O85957   5.735   2.127   5.221
28572WAT     H185958   5.822   2.096   5.182
28572WAT     H285959   5.718   2.222   5.192
28573WAT      O85960   0.093   1.012   6.380
28573WAT     H185961   0.163   1.082   6.362
28573WAT     H285962   0.138   0.924   6.399
28574WAT      O85963   6.126   6.447   5.802
28574WAT     H185964   6.030   6.460   5.823
28574WAT     H285965   6.181   6.516   5.850
28575WAT      O85966   3.205   0.290   9.520
28575WAT     H185967   3.165   0.213   9.471
28575WAT     H285968   3.223   0.365   9.456
28576WAT      O85969   9.705   5.388   9.590
28576WAT     H185970   9.674   5.343   9.674
28576WAT     H285971   9.803   5.370   9.577
28577WAT      O85972   5.585   3.791   0.250
28577WAT     H185973   5.509   3.771   0.187
28577WAT     H285974   5.594   3.891   0.259
28578WAT      O85975   8.728   1.400   4.267
28578WAT     H185976   8.749   1.418   4.363
28578WAT     H285977   8.658   1.329   4.261
28579WAT      O85978   9.174   0.787   9.309
28579WAT     H185979   9.261   0.767   9.265
28579WAT     H285980   9.188   0.855   9.381
28580WAT      O85981   4.196   1.520   5.203
28580WAT     H185982   4.263   1.545   5.133
28580WAT     H285983   4.143   1.602   5.228
28581WAT      O85984   4.410   5.559   6.908
28581WAT     H185985   4.362   5.471   6.912
28581WAT     H285986   4.498   5.550   6.954
28582WAT      O85987   3.232   7.600   1.650
28582WAT     H185988   3.141   7.578   1.613
28582WAT     H285989   3.298   7.600   1.575
28583WAT      O85990   7.584   1.890   2.883
28583WAT     H185991   7.507   1.894   2.820
28583WAT     H285992   7.568   1.817   2.949
28584WAT      O85993   4.851   1.800   8.329
28584WAT     H185994   4.759   1.763   8.317
28584WAT     H285995   4.855   1.856   8.412
28585WAT      O85996   7.360   5.420   0.397
28585WAT     H185997   7.379   5.517   0.412
28585WAT     H285998   7.297   5.387   0.467
28586WAT      O85999   1.751   1.545   6.433
28586WAT     H186000   1.754   1.491   6.518
28586WAT     H286001   1.669   1.602   6.433
28587WAT      O86002   7.021   3.101   5.201
28587WAT     H186003   6.981   3.173   5.144
28587WAT     H286004   7.119   3.120   5.214
28588WAT      O86005   8.879   9.245   4.894
28588WAT     H186006   8.873   9.150   4.923
28588WAT     H286007   8.955   9.255   4.830
28589WAT      O86008   6.247   2.665   2.922
28589WAT     H186009   6.173   2.703   2.865
28589WAT     H286010   6.322   2.731   2.926
28590WAT      O86011   9.097   9.408   5.602
28590WAT     H186012   9.126   9.353   5.681
28590WAT     H286013   9.013   9.370   5.563
28591WAT      O86014   7.802   6.778   9.396
28591WAT     H186015   7.714   6.823   9.381
28591WAT     H286016   7.876   6.841   9.373
28592WAT      O86017   2.563   1.057   1.951
28592WAT     H186018   2.623   1.076   2.028
28592WAT     H286019   2.524   1.143   1.918
28593WAT      O86020   5.441   4.282   4.254
28593WAT     H186021   5.528   4.245   4.286
28593WAT     H286022   5.366   4.245   4.309
28594WAT      O86023   1.080   6.208   6.995
28594WAT     H186024   1.094   6.117   7.035
28594WAT     H286025   1.015   6.259   7.051
28595WAT      O86026   2.829   3.743   2.648
28595WAT     H186027   2.922   3.761   2.680
28595WAT     H286028   2.790   3.668   2.702
28596WAT      O86029   6.823   3.929   2.432
28596WAT     H186030   6.859   3.972   2.349
28596WAT     H286031   6.792   4.000   2.495
28597WAT      O86032   1.870   0.772   2.587
28597WAT     H186033   1.883   0.781   2.686
28597WAT     H286034   1.930   0.700   2.552
28598WAT      O86035   1.238   2.265   4.656
28598WAT     H186036   1.180   2.186   4.639
28598WAT     H286037   1.246   2.280   4.755
28599WAT      O86038   0.420   3.332   6.498
28599WAT     H186039   0.499   3.391   6.486
28599WAT     H286040   0.377   3.315   6.409
28600WAT      O86041   5.594   2.380   9.446
28600WAT     H186042   5.595   2.324   9.529
28600WAT     H286043   5.682   2.427   9.436
28601WAT      O86044   9.740   4.589   5.895
28601WAT     H186045   9.780   4.507   5.853
28601WAT     H286046   9.645   4.600   5.865
28602WAT      O86047   7.874   0.244   9.557
28602WAT     H186048   7.943   0.240   9.485
28602WAT     H286049   7.844   0.339   9.570
28603WAT      O86050   6.801   6.996   4.064
28603WAT     H186051   6.740   6.920   4.088
28603WAT     H286052   6.750   7.082   4.070
28604WAT      O86053   6.802   3.445   6.926
28604WAT     H186054   6.847   3.526   6.963
28604WAT     H286055   6.703   3.454   6.936
28605WAT      O86056   7.835   5.432   4.401
28605WAT     H186057   7.889   5.400   4.479
28605WAT     H286058   7.884   5.415   4.316
28606WAT      O86059   2.550   4.248   2.142
28606WAT     H186060   2.543   4.297   2.056
28606WAT     H286061   2.641   4.261   2.181
28607WAT      O86062   3.683   4.466   6.620
28607WAT     H186063   3.659   4.385   6.673
28607WAT     H286064   3.697   4.440   6.524
28608WAT      O86065   6.921   3.325   0.946
28608WAT     H186066   6.896   3.272   0.864
28608WAT     H286067   7.015   3.303   0.972
28609WAT      O86068   3.167   0.783   8.860
28609WAT     H186069   3.237   0.848   8.831
28609WAT     H286070   3.164   0.707   8.795
28610WAT      O86071   4.483   7.117   3.086
28610WAT     H186072   4.567   7.120   3.032
28610WAT     H286073   4.447   7.209   3.098
28611WAT      O86074   5.635   3.997   1.531
28611WAT     H186075   5.560   3.932   1.516
28611WAT     H286076   5.653   4.047   1.446
28612WAT      O86077   3.776   4.008   0.137
28612WAT     H186078   3.807   4.103   0.138
28612WAT     H286079   3.829   3.956   0.070
28613WAT      O86080   9.221   6.911   0.409
28613WAT     H186081   9.201   6.910   0.312
28613WAT     H286082   9.315   6.878   0.425
28614WAT      O86083   8.848   3.567   5.709
28614WAT     H186084   8.826   3.477   5.747
28614WAT     H286085   8.764   3.613   5.680
28615WAT      O86086   3.155   1.692   1.480
28615WAT     H186087   3.190   1.785   1.466
28615WAT     H286088   3.183   1.659   1.570
28616WAT      O86089   0.247   0.998   1.393
28616WAT     H186090   0.314   0.951   1.336
28616WAT     H286091   0.227   0.941   1.473
28617WAT      O86092   3.118   0.710   8.382
28617WAT     H186093   3.074   0.695   8.293
28617WAT     H286094   3.217   0.698   8.372
28618WAT      O86095   2.951   9.686   1.753
28618WAT     H186096   2.858   9.708   1.723
28618WAT     H286097   3.014   9.696   1.676
28619WAT      O86098   4.683   6.823   6.892
28619WAT     H186099   4.770   6.782   6.867
28619WAT     H286100   4.698   6.908   6.944
28620WAT      O86101   9.452   2.445   8.834
28620WAT     H186102   9.381   2.512   8.857
28620WAT     H286103   9.453   2.430   8.735
28621WAT      O86104   1.794   9.040   6.886
28621WAT     H186105   1.886   9.049   6.924
28621WAT     H286106   1.800   9.021   6.788
28622WAT      O86107   1.695   9.383   5.772
28622WAT     H186108   1.655   9.421   5.855
28622WAT     H286109   1.772   9.440   5.743
28623WAT      O86110   2.287   5.306   5.411
28623WAT     H186111   2.229   5.290   5.491
28623WAT     H286112   2.315   5.218   5.372
28624WAT      O86113   1.934   6.561   5.900
28624WAT     H186114   2.003   6.578   5.970
28624WAT     H286115   1.895   6.469   5.914
28625WAT      O86116   4.138   2.726   5.453
28625WAT     H186117   4.041   2.738   5.432
28625WAT     H286118   4.188   2.808   5.425
28626WAT      O86119   1.765   4.799   3.597
28626WAT     H186120   1.785   4.725   3.533
28626WAT     H286121   1.666   4.815   3.599
28627WAT      O86122   2.619   4.237   4.549
28627WAT     H186123   2.624   4.155   4.606
28627WAT     H286124   2.526   4.272   4.549
28628WAT      O86125   7.505   1.908   0.340
28628WAT     H186126   7.588   1.883   0.289
28628WAT     H286127   7.473   1.828   0.391
28629WAT      O86128   8.208   8.549   9.471
28629WAT     H186129   8.283   8.596   9.423
28629WAT     H286130   8.162   8.613   9.531
28630WAT      O86131   3.074   4.003   9.626
28630WAT     H186132   3.088   3.904   9.633
28630WAT     H286133   2.979   4.024   9.647
28631WAT      O86134   1.334   4.629   7.077
28631WAT     H186135   1.387   4.625   6.992
28631WAT     H286136   1.387   4.675   7.147
28632WAT      O86137   7.142   9.035   9.628
28632WAT     H186138   7.132   9.083   9.541
28632WAT     H286139   7.217   9.075   9.680
28633WAT      O86140   1.058   2.726   8.237
28633WAT     H186141   1.060   2.758   8.142
28633WAT     H286142   1.138   2.761   8.285
28634WAT      O86143   0.670   3.864   1.938
28634WAT     H186144   0.734   3.890   1.866
28634WAT     H286145   0.705   3.784   1.986
28635WAT      O86146   3.599   3.644   6.640
28635WAT     H186147   3.689   3.655   6.598
28635WAT     H286148   3.568   3.550   6.628
28636WAT      O86149   7.009   2.491   2.360
28636WAT     H186150   6.998   2.416   2.425
28636WAT     H286151   6.939   2.483   2.289
28637WAT      O86152   2.823   1.329   3.576
28637WAT     H186153   2.805   1.320   3.674
28637WAT     H286154   2.737   1.323   3.526
28638WAT      O86155   5.047   6.258   8.524
28638WAT     H186156   5.099   6.173   8.522
28638WAT     H286157   5.086   6.319   8.592
28639WAT      O86158   0.451   7.696   7.962
28639WAT     H186159   0.369   7.639   7.974
28639WAT     H286160   0.506   7.658   7.887
28640WAT      O86161   6.154   4.464   9.180
28640WAT     H186162   6.218   4.498   9.111
28640WAT     H286163   6.183   4.496   9.270
28641WAT      O86164   2.426   1.714   8.316
28641WAT     H186165   2.348   1.710   8.252
28641WAT     H286166   2.511   1.722   8.263
28642WAT      O86167   0.948   0.462   6.572
28642WAT     H186168   1.046   0.477   6.585
28642WAT     H286169   0.908   0.430   6.658
28643WAT      O86170   5.969   3.611   5.544
28643WAT     H186171   5.939   3.516   5.528
28643WAT     H286172   5.892   3.664   5.578
28644WAT      O86173   7.411   3.362   3.850
28644WAT     H186174   7.406   3.278   3.905
28644WAT     H286175   7.474   3.427   3.894
28645WAT      O86176   1.593   5.938   7.900
28645WAT     H186177   1.665   5.879   7.936
28645WAT     H286178   1.532   5.966   7.974
28646WAT      O86179   4.705   0.207   6.891
28646WAT     H186180   4.804   0.209   6.882
28646WAT     H286181   4.670   0.301   6.887
28647WAT      O86182   5.916   3.146   7.851
28647WAT     H186183   5.855   3.124   7.927
28647WAT     H286184   6.006   3.169   7.887
28648WAT      O86185   4.302   8.698   1.288
28648WAT     H186186   4.238   8.774   1.295
28648WAT     H286187   4.383   8.718   1.343
28649WAT      O86188   3.249   7.459   3.253
28649WAT     H186189   3.161   7.416   3.233
28649WAT     H286190   3.314   7.390   3.286
28650WAT      O86191   8.582   9.357   8.522
28650WAT     H186192   8.649   9.428   8.543
28650WAT     H286193   8.622   9.291   8.459
28651WAT      O86194   3.313   2.353   2.706
28651WAT     H186195   3.402   2.335   2.747
28651WAT     H286196   3.304   2.451   2.688
28652WAT      O86197   0.008   3.832   9.377
28652WAT     H186198   0.085   3.882   9.337
28652WAT     H286199   0.041   3.775   9.452
28653WAT      O86200   8.502   8.698   0.896
28653WAT     H186201   8.550   8.676   0.811
28653WAT     H286202   8.405   8.677   0.885
28654WAT      O86203   3.391   5.647   2.484
28654WAT     H186204   3.421   5.737   2.515
28654WAT     H286205   3.291   5.643   2.485
28655WAT      O86206   3.671   3.059   2.026
28655WAT     H186207   3.648   3.156   2.031
28655WAT     H286208   3.589   3.007   2.002
28656WAT      O86209   2.558   6.131   6.933
28656WAT     H186210   2.565   6.214   6.989
28656WAT     H286211   2.600   6.148   6.844
28657WAT      O86212   6.964   9.566   4.302
28657WAT     H186213   6.879   9.607   4.334
28657WAT     H286214   7.040   9.599   4.359
28658WAT      O86215   2.037   1.994   1.896
28658WAT     H186216   2.072   1.948   1.814
28658WAT     H286217   1.943   2.024   1.880
28659WAT      O86218   8.943   6.464   9.582
28659WAT     H186219   8.884   6.440   9.505
28659WAT     H286220   8.992   6.382   9.612
28660WAT      O86221   8.160   2.319   4.377
28660WAT     H186222   8.128   2.397   4.430
28660WAT     H286223   8.137   2.234   4.425
28661WAT      O86224   6.484   8.880   7.945
28661WAT     H186225   6.564   8.825   7.926
28661WAT     H286226   6.511   8.964   7.993
28662WAT      O86227   2.453   8.025   5.298
28662WAT     H186228   2.552   8.035   5.286
28662WAT     H286229   2.434   7.975   5.382
28663WAT      O86230   1.843   6.321   9.017
28663WAT     H186231   1.777   6.251   8.992
28663WAT     H286232   1.870   6.309   9.112
28664WAT      O86233   3.539   3.581   3.879
28664WAT     H186234   3.488   3.665   3.900
28664WAT     H286235   3.534   3.563   3.781
28665WAT      O86236   0.918   7.028   5.840
28665WAT     H186237   0.891   7.044   5.935
28665WAT     H286238   0.908   7.112   5.787
28666WAT      O86239   4.262   2.495   5.408
28666WAT     H186240   4.224   2.450   5.328
28666WAT     H286241   4.254   2.594   5.398
28667WAT      O86242   1.227   4.705   3.034
28667WAT     H186243   1.191   4.633   3.093
28667WAT     H286244   1.263   4.664   2.949
28668WAT      O86245   8.220   3.901   3.408
28668WAT     H186246   8.206   3.946   3.496
28668WAT     H286247   8.250   3.968   3.341
28669WAT      O86248   7.504   4.047   6.743
28669WAT     H186249   7.446   4.108   6.795
28669WAT     H286250   7.448   3.991   6.682
28670WAT      O86251   6.651   1.859   9.146
28670WAT     H186252   6.702   1.938   9.112
28670WAT     H286253   6.708   1.806   9.209
28671WAT      O86254   7.833   9.768   5.345
28671WAT     H186255   7.754   9.740   5.291
28671WAT     H286256   7.848   9.866   5.334
28672WAT      O86257   5.860   9.257   0.717
28672WAT     H186258   5.808   9.233   0.798
28672WAT     H286259   5.940   9.312   0.743
28673WAT      O86260   3.019   7.234   7.607
28673WAT     H186261   3.081   7.300   7.650
28673WAT     H286262   2.947   7.209   7.672
28674WAT      O86263   8.456   1.285   1.779
28674WAT     H186264   8.397   1.222   1.729
28674WAT     H286265   8.546   1.243   1.792
28675WAT      O86266   3.443   8.879   1.356
28675WAT     H186267   3.446   8.878   1.456
28675WAT     H286268   3.351   8.906   1.326
28676WAT      O86269   7.339   4.211   6.907
28676WAT     H186270   7.380   4.302   6.892
28676WAT     H286271   7.242   4.215   6.881
28677WAT      O86272   8.970   5.605   5.760
28677WAT     H186273   9.067   5.607   5.784
28677WAT     H286274   8.931   5.696   5.775
28678WAT      O86275   7.950   0.553   7.967
28678WAT     H186276   8.001   0.582   7.886
28678WAT     H286277   7.855   0.584   7.959
28679WAT      O86278   6.976   0.456   6.885
28679WAT     H186279   7.059   0.507   6.907
28679WAT     H286280   6.897   0.516   6.894
28680WAT      O86281   1.100   2.206   9.130
28680WAT     H186282   1.114   2.203   9.031
28680WAT     H286283   1.005   2.184   9.151
28681WAT      O86284   0.296   5.012   1.754
28681WAT     H186285   0.311   5.110   1.767
28681WAT     H286286   0.231   4.979   1.823
28682WAT      O86287   8.541   3.948   5.591
28682WAT     H186288   8.452   3.972   5.629
28682WAT     H286289   8.545   3.977   5.495
28683WAT      O86290   8.143   4.038   4.164
28683WAT     H186291   8.116   3.958   4.218
28683WAT     H286292   8.144   4.015   4.067
28684WAT      O86293   8.929   1.730   2.619
28684WAT     H186294   8.832   1.716   2.637
28684WAT     H286295   8.941   1.802   2.550
28685WAT      O86296   7.218   2.504   4.448
28685WAT     H186297   7.286   2.480   4.517
28685WAT     H286298   7.126   2.489   4.486
28686WAT      O86299   6.212   5.922   9.047
28686WAT     H186300   6.203   6.014   9.009
28686WAT     H286301   6.189   5.855   8.976
28687WAT      O86302   8.734   1.246   9.343
28687WAT     H186303   8.649   1.284   9.380
28687WAT     H286304   8.713   1.161   9.294
28688WAT      O86305   1.279   5.019   9.863
28688WAT     H186306   1.230   4.966   9.793
28688WAT     H286307   1.296   4.961   9.942
28689WAT      O86308   9.339   4.717   7.947
28689WAT     H186309   9.388   4.722   8.034
28689WAT     H286310   9.388   4.655   7.885
28690WAT      O86311   3.363   6.293   5.382
28690WAT     H186312   3.308   6.210   5.390
28690WAT     H286313   3.460   6.269   5.380
28691WAT      O86314   1.917   2.088   8.140
28691WAT     H186315   1.944   2.072   8.235
28691WAT     H286316   1.895   2.000   8.097
28692WAT      O86317   6.831   0.091   0.207
28692WAT     H186318   6.766   0.114   0.279
28692WAT     H286319   6.924   0.090   0.245
28693WAT      O86320   5.846   4.997   2.812
28693WAT     H186321   5.767   4.940   2.833
28693WAT     H286322   5.837   5.034   2.720
28694WAT      O86323   3.838   8.314   8.707
28694WAT     H186324   3.861   8.286   8.800
28694WAT     H286325   3.814   8.411   8.707
28695WAT      O86326   8.847   8.010   2.487
28695WAT     H186327   8.849   7.956   2.403
28695WAT     H286328   8.753   8.039   2.505
28696WAT      O86329   0.039   9.538   7.362
28696WAT     H186330   0.089   9.481   7.297
28696WAT     H286331  -0.036   9.485   7.402
28697WAT      O86332   5.111   9.237   7.804
28697WAT     H186333   5.205   9.235   7.839
28697WAT     H286334   5.104   9.176   7.725
28698WAT      O86335   7.614   9.778   5.139
28698WAT     H186336   7.521   9.766   5.106
28698WAT     H286337   7.678   9.735   5.075
28699WAT      O86338   0.359   9.487   3.999
28699WAT     H186339   0.373   9.393   4.030
28699WAT     H286340   0.447   9.531   3.985
28700WAT      O86341   9.625   3.525   7.907
28700WAT     H186342   9.557   3.452   7.912
28700WAT     H286343   9.656   3.547   8.000
28701WAT      O86344   4.399   6.876   5.512
28701WAT     H186345   4.465   6.951   5.509
28701WAT     H286346   4.364   6.859   5.420
28702WAT      O86347   5.736   5.972   5.916
28702WAT     H186348   5.782   5.892   5.876
28702WAT     H286349   5.650   5.989   5.867
28703WAT      O86350   6.650   5.014   6.835
28703WAT     H186351   6.574   5.008   6.899
28703WAT     H286352   6.630   4.960   6.753
28704WAT      O86353   2.404   5.806   5.901
28704WAT     H186354   2.452   5.776   5.819
28704WAT     H286355   2.413   5.737   5.973
28705WAT      O86356   9.315   3.448   8.590
28705WAT     H186357   9.386   3.508   8.626
28705WAT     H286358   9.355   3.360   8.565
28706WAT      O86359   7.751   4.685   7.798
28706WAT     H186360   7.795   4.731   7.876
28706WAT     H286361   7.754   4.586   7.812
28707WAT      O86362   2.129   8.724   2.199
28707WAT     H186363   2.199   8.775   2.251
28707WAT     H286364   2.103   8.642   2.250
28708WAT      O86365   7.750   4.841   1.842
28708WAT     H186366   7.742   4.932   1.881
28708WAT     H286367   7.680   4.828   1.772
28709WAT      O86368   5.973   4.011   5.417
28709WAT     H186369   5.874   4.002   5.406
28709WAT     H286370   6.019   3.988   5.331
28710WAT      O86371   7.169   2.149   7.695
28710WAT     H186372   7.179   2.051   7.679
28710WAT     H286373   7.137   2.194   7.612
28711WAT      O86374   7.068   8.162   7.469
28711WAT     H186375   7.090   8.078   7.419
28711WAT     H286376   7.150   8.218   7.478
28712WAT      O86377   1.473   4.483   0.769
28712WAT     H186378   1.411   4.552   0.730
28712WAT     H286379   1.515   4.432   0.695
28713WAT      O86380   8.708   6.290   3.709
28713WAT     H186381   8.694   6.336   3.797
28713WAT     H286382   8.635   6.317   3.646
28714WAT      O86383   5.436   8.849   5.196
28714WAT     H186384   5.483   8.777   5.248
28714WAT     H286385   5.354   8.877   5.246
28715WAT      O86386   2.558   4.015   9.409
28715WAT     H186387   2.498   4.052   9.480
28715WAT     H286388   2.651   4.047   9.424
28716WAT      O86389   7.654   9.073   8.166
28716WAT     H186390   7.600   8.996   8.200
28716WAT     H286391   7.629   9.093   8.071
28717WAT      O86392   3.162   6.613   3.953
28717WAT     H186393   3.081   6.592   3.899
28717WAT     H286394   3.219   6.531   3.962
28718WAT      O86395   1.996   4.700   2.582
28718WAT     H186396   2.082   4.735   2.620
28718WAT     H286397   1.924   4.705   2.651
28719WAT      O86398   3.804   8.307   0.773
28719WAT     H186399   3.813   8.368   0.694
28719WAT     H286400   3.850   8.348   0.852
28720WAT      O86401   4.250   4.997   6.837
28720WAT     H186402   4.283   5.029   6.926
28720WAT     H286403   4.317   5.020   6.766
28721WAT      O86404   8.008   8.433   7.213
28721WAT     H186405   7.973   8.488   7.137
28721WAT     H286406   8.040   8.345   7.179
28722WAT      O86407   3.236   1.356   3.879
28722WAT     H186408   3.196   1.314   3.961
28722WAT     H286409   3.238   1.455   3.891
28723WAT      O86410   1.261   4.137   8.548
28723WAT     H186411   1.340   4.191   8.518
28723WAT     H286412   1.185   4.150   8.485
28724WAT      O86413   5.714   1.388   9.733
28724WAT     H186414   5.645   1.456   9.707
28724WAT     H286415   5.790   1.392   9.667
28725WAT      O86416   2.311   3.706   3.395
28725WAT     H186417   2.318   3.625   3.337
28725WAT     H286418   2.278   3.678   3.486
28726WAT      O86419   0.206   7.343   6.714
28726WAT     H186420   0.243   7.290   6.790
28726WAT     H286421   0.108   7.358   6.728
28727WAT      O86422   2.639   9.169   4.794
28727WAT     H186423   2.669   9.185   4.700
28727WAT     H286424   2.602   9.077   4.802
28728WAT      O86425   0.373   0.490   0.180
28728WAT     H186426   0.328   0.560   0.236
28728WAT     H286427   0.403   0.531   0.094
28729WAT      O86428   5.861   5.619   7.508
28729WAT     H186429   5.941   5.670   7.478
28729WAT     H286430   5.883   5.522   7.513
28730WAT      O86431   4.234   5.513   7.610
28730WAT     H186432   4.176   5.451   7.558
28730WAT     H286433   4.275   5.581   7.549
28731WAT      O86434   7.628   9.820   8.710
28731WAT     H186435   7.584   9.878   8.778
28731WAT     H286436   7.670   9.742   8.756
28732WAT      O86437   9.145   8.485   2.568
28732WAT     H186438   9.115   8.535   2.487
28732WAT     H286439   9.094   8.399   2.575
28733WAT      O86440   3.037   2.835   3.298
28733WAT     H186441   3.031   2.788   3.209
28733WAT     H286442   3.093   2.917   3.288
28734WAT      O86443   8.037   4.470   3.980
28734WAT     H186444   8.052   4.411   4.059
28734WAT     H286445   8.095   4.439   3.904
28735WAT      O86446   7.109   3.533   7.065
28735WAT     H186447   7.035   3.597   7.080
28735WAT     H286448   7.157   3.556   6.980
28736WAT      O86449   9.419   2.840   5.599
28736WAT     H186450   9.518   2.855   5.603
28736WAT     H286451   9.397   2.783   5.519
28737WAT      O86452   6.495   8.010   3.564
28737WAT     H186453   6.460   8.016   3.657
28737WAT     H286454   6.525   7.916   3.545
28738WAT      O86455   6.997   3.275   7.042
28738WAT     H186456   7.023   3.368   7.069
28738WAT     H286457   6.993   3.269   6.943
28739WAT      O86458   6.696   5.833   9.609
28739WAT     H186459   6.769   5.765   9.605
28739WAT     H286460   6.736   5.925   9.601
28740WAT      O86461   0.475   7.234   5.254
28740WAT     H186462   0.472   7.286   5.168
28740WAT     H286463   0.550   7.268   5.311
28741WAT      O86464   1.040   2.936   5.345
28741WAT     H186465   1.129   2.970   5.315
28741WAT     H286466   1.044   2.837   5.355
28742WAT      O86467   2.694   6.603   1.384
28742WAT     H186468   2.755   6.575   1.458
28742WAT     H286469   2.620   6.659   1.421
28743WAT      O86470   5.703   9.625   0.873
28743WAT     H186471   5.755   9.562   0.930
28743WAT     H286472   5.612   9.640   0.912
28744WAT      O86473   4.114   3.820   2.634
28744WAT     H186474   4.054   3.780   2.703
28744WAT     H286475   4.075   3.803   2.543
28745WAT      O86476   5.106   8.376   5.111
28745WAT     H186477   5.060   8.441   5.172
28745WAT     H286478   5.064   8.286   5.121
28746WAT      O86479   3.085   3.872   3.671
28746WAT     H186480   3.052   3.823   3.752
28746WAT     H286481   3.079   3.813   3.591
28747WAT      O86482   7.617   7.182   9.339
28747WAT     H186483   7.644   7.279   9.335
28747WAT     H286484   7.662   7.138   9.416
28748WAT      O86485   8.575   6.504   1.085
28748WAT     H186486   8.551   6.439   1.157
28748WAT     H286487   8.670   6.533   1.098
28749WAT      O86488   2.957   2.362   4.783
28749WAT     H186489   2.899   2.282   4.797
28749WAT     H286490   2.932   2.406   4.697
28750WAT      O86491   2.823   2.462   8.030
28750WAT     H186492   2.725   2.455   8.008
28750WAT     H286493   2.874   2.395   7.977
28751WAT      O86494   1.787   2.709   3.507
28751WAT     H186495   1.702   2.756   3.532
28751WAT     H286496   1.865   2.767   3.528
28752WAT      O86497   1.260   2.541   4.049
28752WAT     H186498   1.333   2.591   4.001
28752WAT     H286499   1.282   2.444   4.051
28753WAT      O86500   1.901   3.416   8.146
28753WAT     H186501   1.881   3.387   8.053
28753WAT     H286502   1.913   3.336   8.205
28754WAT      O86503   3.356   8.160   9.805
28754WAT     H186504   3.365   8.067   9.841
28754WAT     H286505   3.350   8.224   9.882
28755WAT      O86506   0.978   9.332   6.183
28755WAT     H186507   0.952   9.364   6.091
28755WAT     H286508   1.008   9.237   6.177
28756WAT      O86509   5.419   5.826   4.546
28756WAT     H186510   5.394   5.776   4.629
28756WAT     H286511   5.432   5.762   4.471
28757WAT      O86512   5.041   2.363   4.614
28757WAT     H186513   5.001   2.446   4.576
28757WAT     H286514   5.112   2.387   4.680
28758WAT      O86515   7.385   8.716   3.243
28758WAT     H186516   7.484   8.703   3.248
28758WAT     H286517   7.353   8.703   3.149
28759WAT      O86518   2.166   0.746   3.485
28759WAT     H186519   2.245   0.690   3.462
28759WAT     H286520   2.082   0.696   3.461
28760WAT      O86521   5.410   6.286   9.518
28760WAT     H186522   5.472   6.299   9.441
28760WAT     H286523   5.319   6.263   9.484
28761WAT      O86524   1.423   5.124   3.237
28761WAT     H186525   1.348   5.074   3.194
28761WAT     H286526   1.476   5.171   3.166
28762WAT      O86527   1.008   7.534   0.396
28762WAT     H186528   0.968   7.527   0.304
28762WAT     H286529   1.044   7.626   0.409
28763WAT      O86530   3.484   9.801   7.605
28763WAT     H186531   3.444   9.880   7.651
28763WAT     H286532   3.579   9.821   7.582
28764WAT      O86533   2.682   3.709   7.616
28764WAT     H186534   2.680   3.637   7.546
28764WAT     H286535   2.772   3.752   7.615
28765WAT      O86536   2.665   9.508   6.104
28765WAT     H186537   2.632   9.466   6.189
28765WAT     H286538   2.643   9.605   6.103
28766WAT      O86539   2.961   3.973   4.928
28766WAT     H186540   2.971   4.046   4.861
28766WAT     H286541   3.016   3.994   5.009
28767WAT      O86542   4.553   1.896   8.195
28767WAT     H186543   4.584   1.801   8.187
28767WAT     H286544   4.615   1.956   8.144
28768WAT      O86545   5.130   0.244   0.754
28768WAT     H186546   5.193   0.200   0.689
28768WAT     H286547   5.036   0.224   0.727
28769WAT      O86548   2.003   8.918   9.282
28769WAT     H186549   1.984   8.897   9.378
28769WAT     H286550   2.095   8.887   9.258
28770WAT      O86551   2.882   3.134   7.849
28770WAT     H186552   2.902   3.232   7.843
28770WAT     H286553   2.809   3.119   7.915
28771WAT      O86554   2.019   1.904   6.298
28771WAT     H186555   2.096   1.945   6.347
28771WAT     H286556   1.933   1.935   6.339
28772WAT      O86557   9.797   9.504   1.913
28772WAT     H186558   9.745   9.420   1.926
28772WAT     H286559   9.877   9.502   1.973
28773WAT      O86560   2.159   7.629   8.718
28773WAT     H186561   2.235   7.663   8.662
28773WAT     H286562   2.130   7.540   8.683
28774WAT      O86563   9.618   0.195   2.536
28774WAT     H186564   9.613   0.123   2.604
28774WAT     H286565   9.694   0.256   2.556
28775WAT      O86566   1.167   9.531   3.713
28775WAT     H186567   1.084   9.508   3.764
28775WAT     H286568   1.160   9.495   3.620
28776WAT      O86569   6.714   3.420   1.752
28776WAT     H186570   6.668   3.500   1.714
28776WAT     H286571   6.782   3.449   1.819
28777WAT      O86572   1.381   6.293   1.267
28777WAT     H186573   1.383   6.363   1.195
28777WAT     H286574   1.371   6.203   1.226
28778WAT      O86575   0.306   1.757   5.736
28778WAT     H186576   0.209   1.738   5.718
28778WAT     H286577   0.319   1.856   5.745
28779WAT      O86578   2.361   4.301   5.379
28779WAT     H186579   2.354   4.382   5.322
28779WAT     H286580   2.309   4.315   5.464
28780WAT      O86581   3.811   5.142   9.276
28780WAT     H186582   3.732   5.144   9.337
28780WAT     H286583   3.858   5.231   9.279
28781WAT      O86584   6.681   7.217   4.447
28781WAT     H186585   6.614   7.244   4.378
28781WAT     H286586   6.646   7.140   4.500
28782WAT      O86587   2.353   2.146   2.290
28782WAT     H186588   2.323   2.087   2.365
28782WAT     H286589   2.275   2.165   2.230
28783WAT      O86590   2.513   8.867   2.804
28783WAT     H186591   2.470   8.908   2.724
28783WAT     H286592   2.476   8.910   2.887
28784WAT      O86593   5.695   6.437   0.890
28784WAT     H186594   5.672   6.534   0.882
28784WAT     H286595   5.793   6.427   0.904
28785WAT      O86596   1.883   9.610   0.366
28785WAT     H186597   1.923   9.646   0.281
28785WAT     H286598   1.891   9.510   0.367
28786WAT      O86599   9.233   3.370   2.732
28786WAT     H186600   9.148   3.343   2.777
28786WAT     H286601   9.274   3.446   2.782
28787WAT      O86602   1.619   9.391   0.104
28787WAT     H186603   1.625   9.466   0.039
28787WAT     H286604   1.525   9.385   0.139
28788WAT      O86605   1.592   5.129   1.537
28788WAT     H186606   1.576   5.054   1.600
28788WAT     H286607   1.509   5.185   1.531
28789WAT      O86608   2.465   2.042   2.880
28789WAT     H186609   2.453   1.948   2.849
28789WAT     H286610   2.429   2.105   2.812
28790WAT      O86611   2.832   0.462   2.005
28790WAT     H186612   2.740   0.487   1.975
28790WAT     H286613   2.852   0.368   1.978
28791WAT      O86614   6.918   8.915   3.806
28791WAT     H186615   6.970   8.852   3.748
28791WAT     H286616   6.878   8.987   3.750
28792WAT      O86617   8.577   6.138   8.455
28792WAT     H186618   8.599   6.046   8.490
28792WAT     H286619   8.655   6.174   8.404
28793WAT      O86620   8.139   5.381   8.313
28793WAT     H186621   8.099   5.450   8.253
28793WAT     H286622   8.226   5.414   8.350
28794WAT      O86623   7.496   6.890   7.734
28794WAT     H186624   7.473   6.988   7.728
28794WAT     H286625   7.422   6.836   7.695
28795WAT      O86626   2.139   9.325   4.031
28795WAT     H186627   2.237   9.323   4.013
28795WAT     H286628   2.121   9.374   4.116
28796WAT      O86629   4.344   7.423   4.749
28796WAT     H186630   4.331   7.434   4.848
28796WAT     H286631   4.279   7.481   4.700
28797WAT      O86632   0.250   2.101   1.119
28797WAT     H186633   0.169   2.120   1.175
28797WAT     H286634   0.296   2.188   1.097
28798WAT      O86635   7.083   3.754   9.087
28798WAT     H186636   6.995   3.797   9.111
28798WAT     H286637   7.091   3.748   8.988
28799WAT      O86638   6.715   8.064   2.273
28799WAT     H186639   6.711   8.156   2.313
28799WAT     H286640   6.627   8.019   2.284
28800WAT      O86641   7.362   3.762   8.866
28800WAT     H186642   7.262   3.772   8.860
28800WAT     H286643   7.402   3.781   8.776
28801WAT      O86644   6.130   8.463   4.165
28801WAT     H186645   6.229   8.460   4.152
28801WAT     H286646   6.095   8.370   4.177
28802WAT      O86647   4.531   9.550   2.958
28802WAT     H186648   4.613   9.499   2.983
28802WAT     H286649   4.555   9.626   2.898
28803WAT      O86650   3.235   1.152   6.325
28803WAT     H186651   3.300   1.076   6.333
28803WAT     H286652   3.262   1.226   6.387
28804WAT      O86653   1.702   1.400   7.307
28804WAT     H186654   1.626   1.353   7.351
28804WAT     H286655   1.755   1.449   7.375
28805WAT      O86656   2.711   6.526   6.794
28805WAT     H186657   2.716   6.512   6.695
28805WAT     H286658   2.745   6.445   6.841
28806WAT      O86659   6.419   2.508   5.270
28806WAT     H186660   6.458   2.434   5.326
28806WAT     H286661   6.482   2.531   5.196
28807WAT      O86662   1.121   5.068   8.817
28807WAT     H186663   1.117   5.067   8.917
28807WAT     H286664   1.029   5.066   8.779
28808WAT      O86665   6.733   8.511   2.862
28808WAT     H186666   6.781   8.464   2.936
28808WAT     H286667   6.800   8.562   2.807
28809WAT      O86668   2.281   7.265   5.505
28809WAT     H186669   2.228   7.349   5.504
28809WAT     H286670   2.373   7.283   5.469
28810WAT      O86671   9.164   1.243   1.793
28810WAT     H186672   9.253   1.202   1.775
28810WAT     H286673   9.155   1.327   1.740
28811WAT      O86674   3.215   0.534   6.295
28811WAT     H186675   3.132   0.479   6.304
28811WAT     H286676   3.246   0.563   6.385
28812WAT      O86677   3.957   7.509   1.029
28812WAT     H186678   3.919   7.594   1.065
28812WAT     H286679   3.961   7.514   0.929
28813WAT      O86680   0.896   7.939   6.575
28813WAT     H186681   0.884   7.872   6.648
28813WAT     H286682   0.923   8.027   6.615
28814WAT      O86683   6.578   4.567   4.350
28814WAT     H186684   6.607   4.583   4.255
28814WAT     H286685   6.478   4.564   4.353
28815WAT      O86686   0.328   0.858   4.854
28815WAT     H186687   0.271   0.921   4.802
28815WAT     H286688   0.273   0.781   4.886
28816WAT      O86689   9.598   9.023   8.736
28816WAT     H186690   9.599   9.085   8.657
28816WAT     H286691   9.635   9.070   8.816
28817WAT      O86692   3.015   2.551   1.544
28817WAT     H186693   3.026   2.610   1.624
28817WAT     H286694   2.953   2.476   1.566
28818WAT      O86695   7.832   0.778   3.658
28818WAT     H186696   7.748   0.826   3.634
28818WAT     H286697   7.890   0.837   3.714
28819WAT      O86698   2.261   6.802   7.710
28819WAT     H186699   2.216   6.846   7.633
28819WAT     H286700   2.266   6.703   7.694
28820WAT      O86701   5.836   9.500   6.236
28820WAT     H186702   5.890   9.567   6.184
28820WAT     H286703   5.782   9.444   6.174
28821WAT      O86704   0.224   9.474   8.612
28821WAT     H186705   0.240   9.425   8.526
28821WAT     H286706   0.265   9.565   8.607
28822WAT      O86707   3.680   4.096   9.274
28822WAT     H186708   3.638   4.006   9.283
28822WAT     H286709   3.732   4.101   9.189
28823WAT      O86710   0.149   2.502   1.942
28823WAT     H186711   0.065   2.524   1.894
28823WAT     H286712   0.127   2.471   2.035
28824WAT      O86713   5.248   7.884   3.427
28824WAT     H186714   5.157   7.906   3.392
28824WAT     H286715   5.279   7.797   3.389
28825WAT      O86716   8.138   9.401   7.934
28825WAT     H186717   8.223   9.406   7.987
28825WAT     H286718   8.140   9.320   7.876
28826WAT      O86719   4.264   3.963   8.762
28826WAT     H186720   4.273   3.929   8.856
28826WAT     H286721   4.175   4.006   8.750
28827WAT      O86722   3.825   7.186   4.930
28827WAT     H186723   3.792   7.185   4.835
28827WAT     H286724   3.907   7.130   4.937
28828WAT      O86725   6.394   7.400   1.886
28828WAT     H186726   6.433   7.350   1.808
28828WAT     H286727   6.366   7.491   1.857
28829WAT      O86728   3.529   8.877   7.551
28829WAT     H186729   3.619   8.921   7.547
28829WAT     H286730   3.530   8.806   7.621
28830WAT      O86731   8.602   3.838   8.801
28830WAT     H186732   8.606   3.791   8.889
28830WAT     H286733   8.686   3.891   8.787
28831WAT      O86734   6.005   1.158   5.021
28831WAT     H186735   5.931   1.167   4.954
28831WAT     H286736   6.092   1.148   4.974
28832WAT      O86737   6.901   5.745   2.659
28832WAT     H186738   6.978   5.752   2.722
28832WAT     H286739   6.911   5.663   2.602
28833WAT      O86740   2.111   1.992   6.667
28833WAT     H186741   2.052   2.071   6.652
28833WAT     H286742   2.173   2.010   6.743
28834WAT      O86743   2.595   9.317   5.713
28834WAT     H186744   2.523   9.257   5.750
28834WAT     H286745   2.663   9.333   5.784
28835WAT      O86746   4.935   4.957   8.926
28835WAT     H186747   4.979   4.932   9.012
28835WAT     H286748   4.946   4.883   8.860
28836WAT      O86749   3.993   4.240   5.808
28836WAT     H186750   3.899   4.274   5.815
28836WAT     H286751   3.996   4.144   5.836
28837WAT      O86752   4.978   6.217   1.300
28837WAT     H186753   4.926   6.281   1.242
28837WAT     H286754   4.985   6.129   1.254
28838WAT      O86755   6.672   4.142   6.827
28838WAT     H186756   6.732   4.190   6.892
28838WAT     H286757   6.690   4.043   6.834
28839WAT      O86758   5.562   2.739   7.638
28839WAT     H186759   5.567   2.678   7.717
28839WAT     H286760   5.613   2.823   7.658
28840WAT      O86761   7.299   7.882   1.079
28840WAT     H186762   7.335   7.791   1.101
28840WAT     H286763   7.284   7.889   0.980
28841WAT      O86764   8.975   5.897   5.838
28841WAT     H186765   8.898   5.940   5.885
28841WAT     H286766   9.060   5.944   5.862
28842WAT      O86767   2.300   1.773   9.513
28842WAT     H186768   2.311   1.733   9.604
28842WAT     H286769   2.390   1.784   9.471
28843WAT      O86770   3.157   2.846   4.446
28843WAT     H186771   3.123   2.752   4.441
28843WAT     H286772   3.116   2.900   4.372
28844WAT      O86773   9.721   4.801   8.888
28844WAT     H186774   9.729   4.723   8.950
28844WAT     H286775   9.638   4.793   8.834
28845WAT      O86776   3.058   7.142   9.328
28845WAT     H186777   2.989   7.213   9.344
28845WAT     H286778   3.018   7.069   9.273
28846WAT      O86779   8.688   5.343   6.868
28846WAT     H186780   8.668   5.354   6.965
28846WAT     H286781   8.655   5.254   6.836
28847WAT      O86782   5.766   4.320   1.421
28847WAT     H186783   5.761   4.282   1.514
28847WAT     H286784   5.850   4.373   1.410
28848WAT      O86785   8.825   1.992   1.206
28848WAT     H186786   8.835   1.943   1.119
28848WAT     H286787   8.728   2.007   1.224
28849WAT      O86788   6.764   3.147   1.467
28849WAT     H186789   6.697   3.200   1.520
28849WAT     H286790   6.804   3.077   1.526
28850WAT      O86791   1.197   2.226   6.394
28850WAT     H186792   1.268   2.245   6.462
28850WAT     H286793   1.135   2.304   6.389
28851WAT      O86794   4.950   2.728   5.950
28851WAT     H186795   4.867   2.673   5.940
28851WAT     H286796   4.930   2.809   6.005
28852WAT      O86797   6.550   2.253   6.179
28852WAT     H186798   6.609   2.331   6.159
28852WAT     H286799   6.605   2.176   6.211
28853WAT      O86800   9.532   6.656   0.207
28853WAT     H186801   9.502   6.573   0.159
28853WAT     H286802   9.530   6.733   0.145
28854WAT      O86803   5.491   6.637   2.183
28854WAT     H186804   5.422   6.709   2.174
28854WAT     H286805   5.505   6.594   2.094
28855WAT      O86806   9.726   4.872   9.760
28855WAT     H186807   9.638   4.905   9.728
28855WAT     H286808   9.797   4.938   9.737
28856WAT      O86809   8.618   0.479   1.888
28856WAT     H186810   8.674   0.398   1.870
28856WAT     H286811   8.585   0.476   1.982
28857WAT      O86812   7.290   3.443   3.398
28857WAT     H186813   7.351   3.521   3.388
28857WAT     H286814   7.337   3.369   3.447
28858WAT      O86815   4.305   0.643   3.580
28858WAT     H186816   4.370   0.599   3.641
28858WAT     H286817   4.343   0.731   3.549
28859WAT      O86818   1.333   1.277   3.523
28859WAT     H186819   1.321   1.181   3.497
28859WAT     H286820   1.421   1.287   3.571
28860WAT      O86821   0.212   0.566   9.496
28860WAT     H186822   0.134   0.565   9.432
28860WAT     H286823   0.283   0.626   9.460
28861WAT      O86824   4.756   1.288   4.361
28861WAT     H186825   4.813   1.250   4.434
28861WAT     H286826   4.782   1.382   4.343
28862WAT      O86827   3.219   2.673   2.679
28862WAT     H186828   3.121   2.653   2.673
28862WAT     H286829   3.251   2.654   2.772
28863WAT      O86830   2.039   0.374   1.995
28863WAT     H186831   1.957   0.402   2.046
28863WAT     H286832   2.030   0.404   1.900
28864WAT      O86833   6.745   0.597   6.309
28864WAT     H186834   6.724   0.502   6.332
28864WAT     H286835   6.743   0.653   6.393
28865WAT      O86836   4.498   1.929   7.836
28865WAT     H186837   4.489   2.028   7.842
28865WAT     H286838   4.589   1.902   7.867
28866WAT      O86839   6.338   5.132   4.927
28866WAT     H186840   6.239   5.121   4.940
28866WAT     H286841   6.367   5.078   4.849
28867WAT      O86842   2.825   8.368   8.008
28867WAT     H186843   2.856   8.358   7.913
28867WAT     H286844   2.738   8.417   8.011
28868WAT      O86845   5.622   7.740   7.053
28868WAT     H186846   5.612   7.649   7.092
28868WAT     H286847   5.571   7.806   7.108
28869WAT      O86848   6.629   7.683   0.275
28869WAT     H186849   6.652   7.767   0.323
28869WAT     H286850   6.530   7.678   0.263
28870WAT      O86851   2.343   1.273   6.024
28870WAT     H186852   2.397   1.299   6.104
28870WAT     H286853   2.404   1.246   5.950
28871WAT      O86854   6.207   9.599   7.121
28871WAT     H186855   6.186   9.682   7.070
28871WAT     H286856   6.303   9.598   7.147
28872WAT      O86857   1.852   4.519   6.740
28872WAT     H186858   1.924   4.470   6.690
28872WAT     H286859   1.894   4.588   6.799
28873WAT      O86860   0.239   5.735   6.471
28873WAT     H186861   0.322   5.680   6.468
28873WAT     H286862   0.159   5.674   6.472
28874WAT      O86863   8.096   0.513   9.536
28874WAT     H186864   8.093   0.414   9.521
28874WAT     H286865   8.117   0.559   9.450
28875WAT      O86866   6.449   1.053   6.487
28875WAT     H186867   6.495   0.999   6.416
28875WAT     H286868   6.518   1.090   6.549
28876WAT      O86869   9.393   7.715   8.241
28876WAT     H186870   9.468   7.711   8.307
28876WAT     H286871   9.349   7.804   8.245
28877WAT      O86872   9.475   3.937   2.869
28877WAT     H186873   9.482   3.961   2.772
28877WAT     H286874   9.472   4.020   2.924
28878WAT      O86875   4.790   4.825   7.160
28878WAT     H186876   4.808   4.910   7.209
28878WAT     H286877   4.696   4.795   7.177
28879WAT      O86878   7.666   5.196   1.059
28879WAT     H186879   7.759   5.224   1.082
28879WAT     H286880   7.661   5.174   0.962
28880WAT      O86881   9.349   5.715   9.710
28880WAT     H186882   9.324   5.750   9.619
28880WAT     H286883   9.266   5.692   9.760
28881WAT      O86884   4.352   7.768   2.862
28881WAT     H186885   4.385   7.734   2.774
28881WAT     H286886   4.381   7.863   2.875
28882WAT      O86887   7.720   2.193   4.499
28882WAT     H186888   7.640   2.164   4.445
28882WAT     H286889   7.710   2.161   4.593
28883WAT      O86890   5.191   0.023   9.294
28883WAT     H186891   5.275  -0.008   9.251
28883WAT     H286892   5.133  -0.056   9.315
28884WAT      O86893   7.345   0.619   6.447
28884WAT     H186894   7.365   0.686   6.519
28884WAT     H286895   7.412   0.545   6.451
28885WAT      O86896   8.368   0.500   9.735
28885WAT     H186897   8.433   0.425   9.728
28885WAT     H286898   8.286   0.478   9.683
28886WAT      O86899   3.270   3.192   6.960
28886WAT     H186900   3.332   3.270   6.952
28886WAT     H286901   3.319   3.114   6.999
28887WAT      O86902   9.541   2.313   9.280
28887WAT     H186903   9.449   2.273   9.270
28887WAT     H286904   9.582   2.324   9.190
28888WAT      O86905   4.659   0.449   7.556
28888WAT     H186906   4.688   0.544   7.556
28888WAT     H286907   4.567   0.441   7.518
28889WAT      O86908   9.284   0.432   5.686
28889WAT     H186909   9.272   0.531   5.675
28889WAT     H286910   9.337   0.396   5.610
28890WAT      O86911   8.155   5.642   7.212
28890WAT     H186912   8.141   5.730   7.258
28890WAT     H286913   8.140   5.568   7.277
28891WAT      O86914   4.468   0.788   5.554
28891WAT     H186915   4.518   0.821   5.634
28891WAT     H286916   4.377   0.829   5.553
28892WAT      O86917   0.430   2.021   1.825
28892WAT     H186918   0.486   2.041   1.745
28892WAT     H286919   0.354   2.086   1.830
28893WAT      O86920   8.773   1.351   2.041
28893WAT     H186921   8.736   1.267   2.080
28893WAT     H286922   8.830   1.329   1.961
28894WAT      O86923   6.583   0.972   9.245
28894WAT     H186924   6.585   0.874   9.263
28894WAT     H286925   6.497   1.011   9.279
28895WAT      O86926   5.592   9.081   8.541
28895WAT     H186927   5.598   9.077   8.641
28895WAT     H286928   5.615   9.174   8.511
28896WAT      O86929   0.150   2.863   0.398
28896WAT     H186930   0.135   2.796   0.326
28896WAT     H286931   0.110   2.951   0.370
28897WAT      O86932   0.062   8.893   7.290
28897WAT     H186933   0.123   8.968   7.262
28897WAT     H286934   0.105   8.842   7.365
28898WAT      O86935   6.242   6.022   9.665
28898WAT     H186936   6.221   6.060   9.575
28898WAT     H286937   6.339   6.001   9.671
28899WAT      O86938   9.840   3.810   0.934
28899WAT     H186939   9.924   3.780   0.887
28899WAT     H286940   9.762   3.758   0.899
28900WAT      O86941   8.608   4.702   9.689
28900WAT     H186942   8.609   4.730   9.785
28900WAT     H286943   8.596   4.603   9.683
28901WAT      O86944   4.918   1.542   5.604
28901WAT     H186945   4.849   1.498   5.661
28901WAT     H286946   4.981   1.594   5.663
28902WAT      O86947   9.134   3.346   5.342
28902WAT     H186948   9.107   3.438   5.371
28902WAT     H286949   9.189   3.352   5.259
28903WAT      O86950   1.416   0.330   3.382
28903WAT     H186951   1.359   0.402   3.342
28903WAT     H286952   1.367   0.286   3.457
28904WAT      O86953   1.413   8.591   7.315
28904WAT     H186954   1.388   8.685   7.291
28904WAT     H286955   1.358   8.560   7.392
28905WAT      O86956   0.586   2.877   1.111
28905WAT     H186957   0.667   2.843   1.063
28905WAT     H286958   0.615   2.920   1.197
28906WAT      O86959   3.876   2.456   0.709
28906WAT     H186960   3.886   2.514   0.790
28906WAT     H286961   3.923   2.369   0.724
28907WAT      O86962   2.113   8.515   5.326
28907WAT     H186963   2.206   8.494   5.296
28907WAT     H286964   2.111   8.526   5.425
28908WAT      O86965   2.397   5.680   8.076
28908WAT     H186966   2.395   5.681   8.176
28908WAT     H286967   2.325   5.739   8.040
28909WAT      O86968   1.875   7.796   5.883
28909WAT     H186969   1.785   7.828   5.914
28909WAT     H286970   1.887   7.700   5.909
28910WAT      O86971   7.101   0.253   0.616
28910WAT     H186972   7.192   0.276   0.584
28910WAT     H286973   7.098   0.259   0.716
28911WAT      O86974   1.046   5.546   5.563
28911WAT     H186975   1.115   5.611   5.593
28911WAT     H286976   0.987   5.521   5.640
28912WAT      O86977   0.775   6.036   8.581
28912WAT     H186978   0.872   6.017   8.561
28912WAT     H286979   0.756   6.013   8.676
28913WAT      O86980   2.173   0.924   6.040
28913WAT     H186981   2.146   1.017   6.015
28913WAT     H286982   2.252   0.896   5.985
28914WAT      O86983   3.312   3.858   1.839
28914WAT     H186984   3.361   3.927   1.787
28914WAT     H286985   3.263   3.797   1.776
28915WAT      O86986   8.359   9.310   8.915
28915WAT     H186987   8.429   9.380   8.922
28915WAT     H286988   8.398   9.221   8.939
28916WAT      O86989   7.153   8.144   4.039
28916WAT     H186990   7.226   8.212   4.032
28916WAT     H286991   7.064   8.190   4.038
28917WAT      O86992   9.642   4.495   3.565
28917WAT     H186993   9.728   4.540   3.585
28917WAT     H286994   9.622   4.501   3.468
28918WAT      O86995   7.400   1.238   1.549
28918WAT     H186996   7.418   1.313   1.614
28918WAT     H286997   7.461   1.162   1.570
28919WAT      O86998   8.079   3.412   8.897
28919WAT     H186999   7.991   3.440   8.857
28919WAT     H287000   8.154   3.455   8.847
28920WAT      O87001   8.463   9.413   2.483
28920WAT     H187002   8.435   9.325   2.520
28920WAT     H287003   8.403   9.485   2.517
28921WAT      O87004   1.119   9.290   3.958
28921WAT     H187005   1.041   9.230   3.941
28921WAT     H287006   1.088   9.374   4.003
28922WAT      O87007   1.278   3.812   1.358
28922WAT     H187008   1.241   3.873   1.428
28922WAT     H287009   1.378   3.816   1.360
28923WAT      O87010   0.429   5.162   9.393
28923WAT     H187011   0.446   5.257   9.367
28923WAT     H287012   0.391   5.113   9.315
28924WAT      O87013   4.340   2.598   2.907
28924WAT     H187014   4.272   2.659   2.947
28924WAT     H287015   4.298   2.542   2.836
28925WAT      O87016   0.162   9.558   8.295
28925WAT     H187017   0.105   9.640   8.298
28925WAT     H287018   0.256   9.582   8.316
28926WAT      O87019   5.875   5.693   2.793
28926WAT     H187020   5.948   5.666   2.731
28926WAT     H287021   5.792   5.714   2.741
28927WAT      O87022   8.273   1.283   0.483
28927WAT     H187023   8.243   1.197   0.442
28927WAT     H287024   8.368   1.301   0.460
28928WAT      O87025   0.507   4.070   3.946
28928WAT     H187026   0.414   4.102   3.930
28928WAT     H287027   0.505   3.973   3.971
28929WAT      O87028   3.141   6.445   8.134
28929WAT     H187029   3.178   6.421   8.044
28929WAT     H287030   3.098   6.365   8.175
28930WAT      O87031   1.853   4.839   1.506
28930WAT     H187032   1.867   4.927   1.460
28930WAT     H287033   1.852   4.854   1.605
28931WAT      O87034   2.057   1.169   3.102
28931WAT     H187035   2.117   1.095   3.073
28931WAT     H287036   2.038   1.161   3.200
28932WAT      O87037   8.610   2.464   0.792
28932WAT     H187038   8.663   2.513   0.861
28932WAT     H287039   8.517   2.501   0.788
28933WAT      O87040   7.873   1.585   7.260
28933WAT     H187041   7.893   1.530   7.341
28933WAT     H287042   7.817   1.532   7.197
28934WAT      O87043   5.711   5.479   1.249
28934WAT     H187044   5.638   5.453   1.313
28934WAT     H287045   5.797   5.436   1.278
28935WAT      O87046   2.212   3.944   1.682
28935WAT     H187047   2.141   3.926   1.613
28935WAT     H287048   2.214   4.041   1.703
28936WAT      O87049   8.105   2.833   7.834
28936WAT     H187050   8.006   2.825   7.850
28936WAT     H287051   8.131   2.929   7.837
28937WAT      O87052   5.196   4.246   8.615
28937WAT     H187053   5.292   4.274   8.618
28937WAT     H287054   5.142   4.319   8.574
28938WAT      O87055   5.556   8.400   9.470
28938WAT     H187056   5.533   8.315   9.518
28938WAT     H287057   5.628   8.449   9.520
28939WAT      O87058   0.923   0.378   9.125
28939WAT     H187059   1.011   0.344   9.158
28939WAT     H287060   0.850   0.352   9.188
28940WAT      O87061   4.640   1.673   5.879
28940WAT     H187062   4.641   1.581   5.842
28940WAT     H287063   4.548   1.696   5.910
28941WAT      O87064   0.656   9.237   8.121
28941WAT     H187065   0.704   9.174   8.060
28941WAT     H287066   0.691   9.330   8.107
28942WAT      O87067   9.622   0.773   4.267
28942WAT     H187068   9.703   0.810   4.313
28942WAT     H287069   9.587   0.841   4.202
28943WAT      O87070   5.855   1.771   7.711
28943WAT     H187071   5.925   1.751   7.780
28943WAT     H287072   5.894   1.826   7.638
28944WAT      O87073   5.637   7.947   2.861
28944WAT     H187074   5.678   7.979   2.946
28944WAT     H287075   5.617   8.025   2.802
28945WAT      O87076   9.514   8.812   5.074
28945WAT     H187077   9.461   8.895   5.058
28945WAT     H287078   9.532   8.802   5.172
28946WAT      O87079   6.234   1.384   5.499
28946WAT     H187080   6.143   1.352   5.473
28946WAT     H287081   6.292   1.306   5.523
28947WAT      O87082   1.588   5.753   0.925
28947WAT     H187083   1.642   5.696   0.863
28947WAT     H287084   1.563   5.700   1.006
28948WAT      O87085   6.832   2.737   0.994
28948WAT     H187086   6.873   2.825   0.967
28948WAT     H287087   6.877   2.705   1.077
28949WAT      O87088   1.104   8.606   1.098
28949WAT     H187089   1.065   8.550   1.170
28949WAT     H287090   1.070   8.700   1.107
28950WAT      O87091   2.626   7.750   2.592
28950WAT     H187092   2.534   7.741   2.631
28950WAT     H287093   2.682   7.806   2.653
28951WAT      O87094   8.058   6.870   0.646
28951WAT     H187095   7.958   6.880   0.644
28951WAT     H287096   8.087   6.846   0.738
28952WAT      O87097   7.181   6.455   1.655
28952WAT     H187098   7.261   6.509   1.632
28952WAT     H287099   7.113   6.463   1.582
28953WAT      O87100   6.627   7.846   8.498
28953WAT     H187101   6.650   7.798   8.414
28953WAT     H287102   6.681   7.808   8.573
28954WAT      O87103   5.945   6.081   3.587
28954WAT     H187104   5.976   6.156   3.529
28954WAT     H287105   5.955   6.106   3.683
28955WAT      O87106   8.772   2.452   4.089
28955WAT     H187107   8.706   2.488   4.155
28955WAT     H287108   8.831   2.384   4.133
28956WAT      O87109   5.197   1.743   2.264
28956WAT     H187110   5.275   1.778   2.316
28956WAT     H287111   5.128   1.814   2.255
28957WAT      O87112   7.832   8.659   6.552
28957WAT     H187113   7.778   8.691   6.474
28957WAT     H287114   7.828   8.725   6.626
28958WAT      O87115   2.652   2.668   9.787
28958WAT     H187116   2.690   2.600   9.724
28958WAT     H287117   2.554   2.653   9.797
28959WAT      O87118   4.357   4.427   6.376
28959WAT     H187119   4.313   4.435   6.286
28959WAT     H287120   4.399   4.337   6.385
28960WAT      O87121   0.502   6.257   0.276
28960WAT     H187122   0.446   6.296   0.349
28960WAT     H287123   0.445   6.242   0.194
28961WAT      O87124   5.613   8.163   7.619
28961WAT     H187125   5.574   8.128   7.704
28961WAT     H287126   5.546   8.155   7.546
28962WAT      O87127   8.147   1.069   2.486
28962WAT     H187128   8.161   1.063   2.387
28962WAT     H287129   8.063   1.119   2.505
28963WAT      O87130   5.743   9.204   7.449
28963WAT     H187131   5.821   9.192   7.387
28963WAT     H287132   5.739   9.299   7.479
28964WAT      O87133   6.081   6.596   1.614
28964WAT     H187134   6.095   6.672   1.677
28964WAT     H287135   6.084   6.510   1.665
28965WAT      O87136   2.294   9.616   9.860
28965WAT     H187137   2.380   9.625   9.910
28965WAT     H287138   2.283   9.693   9.798
28966WAT      O87139   2.077   4.019   0.105
28966WAT     H187140   2.145   3.986   0.172
28966WAT     H287141   2.124   4.071   0.034
28967WAT      O87142   4.114   2.003   2.198
28967WAT     H187143   4.051   2.071   2.235
28967WAT     H287144   4.123   2.016   2.099
28968WAT      O87145   0.336   6.592   1.953
28968WAT     H187146   0.391   6.640   1.884
28968WAT     H287147   0.239   6.612   1.938
28969WAT      O87148   2.316   6.229   7.376
28969WAT     H187149   2.370   6.149   7.349
28969WAT     H287150   2.373   6.311   7.371
28970WAT      O87151   9.604   3.830   4.285
28970WAT     H187152   9.549   3.768   4.228
28970WAT     H287153   9.554   3.915   4.300
28971WAT      O87154   3.886   4.546   9.099
28971WAT     H187155   3.928   4.631   9.069
28971WAT     H287156   3.803   4.528   9.045
28972WAT      O87157   1.747   7.927   7.683
28972WAT     H187158   1.726   8.021   7.654
28972WAT     H287159   1.727   7.916   7.780
28973WAT      O87160   6.311   9.697   9.198
28973WAT     H187161   6.302   9.724   9.102
28973WAT     H287162   6.306   9.598   9.206
28974WAT      O87163   1.053   9.624   9.674
28974WAT     H187164   1.047   9.552   9.605
28974WAT     H287165   1.149   9.643   9.695
28975WAT      O87166   4.265   5.417   4.800
28975WAT     H187167   4.348   5.447   4.847
28975WAT     H287168   4.290   5.353   4.727
28976WAT      O87169   0.281   1.130   2.195
28976WAT     H187170   0.351   1.155   2.262
28976WAT     H287171   0.315   1.057   2.136
28977WAT      O87172   6.010   7.336   8.898
28977WAT     H187173   6.022   7.362   8.994
28977WAT     H287174   6.088   7.369   8.844
28978WAT      O87175   4.506   5.089   5.292
28978WAT     H187176   4.514   5.168   5.231
28978WAT     H287177   4.455   5.115   5.374
28979WAT      O87178   7.081   9.619   3.383
28979WAT     H187179   6.997   9.610   3.329
28979WAT     H287180   7.101   9.716   3.397
28980WAT      O87181   3.809   0.271   3.738
28980WAT     H187182   3.828   0.367   3.720
28980WAT     H287183   3.894   0.218   3.731
28981WAT      O87184   4.006   5.349   2.400
28981WAT     H187185   4.019   5.446   2.421
28981WAT     H287186   4.015   5.295   2.484
28982WAT      O87187   9.622   4.213   1.829
28982WAT     H187188   9.708   4.167   1.805
28982WAT     H287189   9.552   4.190   1.761
28983WAT      O87190   9.407   4.396   9.619
28983WAT     H187191   9.466   4.355   9.550
28983WAT     H287192   9.360   4.475   9.580
28984WAT      O87193   6.983   9.200   2.998
28984WAT     H187194   7.020   9.293   2.997
28984WAT     H287195   6.884   9.204   2.986
28985WAT      O87196   8.086   2.556   4.117
28985WAT     H187197   8.172   2.509   4.137
28985WAT     H287198   8.014   2.488   4.102
28986WAT      O87199   4.550   3.986   3.060
28986WAT     H187200   4.491   3.910   3.032
28986WAT     H287201   4.591   4.028   2.980
28987WAT      O87202   0.340   3.842   0.914
28987WAT     H187203   0.324   3.919   0.975
28987WAT     H287204   0.258   3.825   0.859
28988WAT      O87205   3.645   0.040   5.398
28988WAT     H187206   3.566   0.025   5.457
28988WAT     H287207   3.618   0.094   5.319
28989WAT      O87208   4.997   8.933   0.722
28989WAT     H187209   4.925   8.962   0.786
28989WAT     H287210   5.038   9.014   0.679
28990WAT      O87211   3.536   0.827   8.617
28990WAT     H187212   3.533   0.727   8.620
28990WAT     H287213   3.625   0.857   8.582
28991WAT      O87214   7.603   8.373   7.129
28991WAT     H187215   7.534   8.338   7.066
28991WAT     H287216   7.659   8.297   7.162
28992WAT      O87217   8.099   7.792   9.633
28992WAT     H187218   8.104   7.826   9.539
28992WAT     H287219   8.181   7.739   9.654
28993WAT      O87220   6.728   4.140   8.329
28993WAT     H187221   6.796   4.100   8.267
28993WAT     H287222   6.640   4.145   8.283
28994WAT      O87223   8.794   1.999   3.093
28994WAT     H187224   8.849   2.024   3.173
28994WAT     H287225   8.855   1.978   3.017
28995WAT      O87226   5.799   4.398   0.019
28995WAT     H187227   5.763   4.430  -0.069
28995WAT     H287228   5.776   4.465   0.090
28996WAT      O87229   2.343   8.185   4.470
28996WAT     H187230   2.322   8.101   4.421
28996WAT     H287231   2.408   8.165   4.544
28997WAT      O87232   3.098   1.828   1.940
28997WAT     H187233   3.130   1.823   2.035
28997WAT     H287234   3.026   1.760   1.926
28998WAT      O87235   3.742   5.598   0.958
28998WAT     H187236   3.796   5.652   1.024
28998WAT     H287237   3.747   5.501   0.983
28999WAT      O87238   1.538   8.971   7.758
28999WAT     H187239   1.515   8.985   7.662
28999WAT     H287240   1.609   9.036   7.785
29000WAT      O87241   5.669   7.430   9.810
29000WAT     H187242   5.608   7.459   9.884
29000WAT     H287243   5.728   7.356   9.844
29001WAT      O87244   8.652   0.398   8.876
29001WAT     H187245   8.663   0.479   8.934
29001WAT     H287246   8.739   0.350   8.870
29002WAT      O87247   7.331   6.415   8.355
29002WAT     H187248   7.269   6.447   8.426
29002WAT     H287249   7.297   6.329   8.316
29003WAT      O87250   1.871   5.353   1.167
29003WAT     H187251   1.794   5.398   1.211
29003WAT     H287252   1.940   5.330   1.236
29004WAT      O87253   8.115   9.280   7.142
29004WAT     H187254   8.091   9.361   7.195
29004WAT     H287255   8.032   9.238   7.105
29005WAT      O87256   2.843   5.171   4.387
29005WAT     H187257   2.758   5.221   4.405
29005WAT     H287258   2.889   5.212   4.308
29006WAT      O87259   0.170   9.815   0.519
29006WAT     H187260   0.242   9.761   0.563
29006WAT     H287261   0.081   9.784   0.553
29007WAT      O87262   6.905   4.661   0.320
29007WAT     H187263   6.970   4.616   0.381
29007WAT     H287264   6.832   4.703   0.373
29008WAT      O87265   9.209   1.477   2.403
29008WAT     H187266   9.161   1.528   2.475
29008WAT     H287267   9.144   1.447   2.334
29009WAT      O87268   1.717   2.874   3.978
29009WAT     H187269   1.774   2.796   4.001
29009WAT     H287270   1.732   2.900   3.883
29010WAT      O87271   6.040   4.586   4.736
29010WAT     H187272   5.955   4.626   4.770
29010WAT     H287273   6.118   4.633   4.777
29011WAT      O87274   0.038   5.570   1.988
29011WAT     H187275   0.009   5.532   2.076
29011WAT     H287276   0.137   5.584   1.989
29012WAT      O87277   5.223   4.705   5.604
29012WAT     H187278   5.172   4.779   5.559
29012WAT     H287279   5.314   4.739   5.629
29013WAT      O87280   5.343   3.316   4.013
29013WAT     H187281   5.370   3.290   3.920
29013WAT     H287282   5.318   3.413   4.014
29014WAT      O87283   8.010   5.213   9.809
29014WAT     H187284   8.065   5.233   9.728
29014WAT     H287285   8.060   5.149   9.868
29015WAT      O87286   6.693   2.932   3.100
29015WAT     H187287   6.725   2.922   3.194
29015WAT     H287288   6.614   2.993   3.098
29016WAT      O87289   4.554   4.610   0.975
29016WAT     H187290   4.617   4.565   0.913
29016WAT     H287291   4.566   4.709   0.969
29017WAT      O87292   5.849   1.007   6.126
29017WAT     H187293   5.943   1.033   6.106
29017WAT     H287294   5.828   0.920   6.081
29018WAT      O87295   3.416   6.193   5.680
29018WAT     H187296   3.483   6.203   5.606
29018WAT     H287297   3.346   6.264   5.672
29019WAT      O87298   2.515   0.017   6.465
29019WAT     H187299   2.483   0.111   6.475
29019WAT     H287300   2.447  -0.036   6.414
29020WAT      O87301   4.571   1.724   2.094
29020WAT     H187302   4.664   1.697   2.120
29020WAT     H287303   4.509   1.708   2.170
29021WAT      O87304   0.950   8.185   0.020
29021WAT     H187305   0.871   8.202  -0.039
29021WAT     H287306   0.981   8.272   0.061
29022WAT      O87307   6.404   1.046   6.817
29022WAT     H187308   6.335   1.112   6.847
29022WAT     H287309   6.493   1.092   6.808
29023WAT      O87310   8.137   3.049   5.902
29023WAT     H187311   8.067   2.983   5.930
29023WAT     H287312   8.223   3.028   5.949
29024WAT      O87313   7.172   6.544   2.538
29024WAT     H187314   7.165   6.620   2.473
29024WAT     H287315   7.194   6.460   2.487
29025WAT      O87316   1.448   3.218   2.958
29025WAT     H187317   1.491   3.303   2.928
29025WAT     H287318   1.374   3.194   2.895
29026WAT      O87319   2.413   9.797   8.273
29026WAT     H187320   2.323   9.803   8.316
29026WAT     H287321   2.481   9.771   8.341
29027WAT      O87322   9.451   7.677   6.971
29027WAT     H187323   9.416   7.771   6.974
29027WAT     H287324   9.482   7.656   6.879
29028WAT      O87325   0.231   7.543   3.756
29028WAT     H187326   0.256   7.640   3.753
29028WAT     H287327   0.136   7.532   3.727
29029WAT      O87328   8.991   2.987   0.441
29029WAT     H187329   8.941   2.958   0.522
29029WAT     H287330   8.933   3.046   0.385
29030WAT      O87331   6.078   0.763   3.563
29030WAT     H187332   6.102   0.785   3.468
29030WAT     H287333   6.058   0.848   3.612
29031WAT      O87334   3.458   1.742   7.498
29031WAT     H187335   3.516   1.775   7.572
29031WAT     H287336   3.438   1.645   7.512
29032WAT      O87337   7.883   0.866   4.330
29032WAT     H187338   7.917   0.796   4.268
29032WAT     H287339   7.871   0.827   4.421
29033WAT      O87340   6.774   0.735   1.139
29033WAT     H187341   6.852   0.680   1.110
29033WAT     H287342   6.781   0.826   1.098
29034WAT      O87343   0.984   5.707   1.071
29034WAT     H187344   0.952   5.620   1.109
29034WAT     H287345   1.037   5.690   0.988
29035WAT      O87346   3.414   4.650   1.466
29035WAT     H187347   3.512   4.658   1.482
29035WAT     H287348   3.393   4.678   1.373
29036WAT      O87349   2.136   4.456   1.793
29036WAT     H187350   2.184   4.467   1.880
29036WAT     H287351   2.037   4.460   1.809
29037WAT      O87352   5.870   9.116   9.198
29037WAT     H187353   5.887   9.207   9.235
29037WAT     H287354   5.900   9.047   9.264
29038WAT      O87355   6.709   3.821   0.897
29038WAT     H187356   6.739   3.869   0.980
29038WAT     H287357   6.704   3.723   0.915
29039WAT      O87358   1.498   4.907   3.569
29039WAT     H187359   1.414   4.940   3.611
29039WAT     H287360   1.476   4.855   3.487
29040WAT      O87361   2.521   1.312   1.330
29040WAT     H187362   2.553   1.222   1.301
29040WAT     H287363   2.453   1.346   1.265
29041WAT      O87364   1.904   0.733   7.514
29041WAT     H187365   1.897   0.761   7.419
29041WAT     H287366   2.000   0.733   7.543
29042WAT      O87367   4.038   4.288   5.131
29042WAT     H187368   3.970   4.225   5.093
29042WAT     H287369   4.002   4.331   5.213
29043WAT      O87370   9.370   5.857   2.371
29043WAT     H187371   9.456   5.894   2.337
29043WAT     H287372   9.371   5.757   2.363
29044WAT      O87373   3.012   7.560   2.844
29044WAT     H187374   3.079   7.592   2.910
29044WAT     H287375   2.983   7.636   2.785
29045WAT      O87376   3.777   0.999   3.606
29045WAT     H187377   3.776   0.905   3.642
29045WAT     H287378   3.866   1.018   3.565
29046WAT      O87379   3.672   2.614   1.528
29046WAT     H187380   3.677   2.620   1.428
29046WAT     H287381   3.755   2.571   1.563
29047WAT      O87382   4.422   5.927   9.246
29047WAT     H187383   4.522   5.937   9.254
29047WAT     H287384   4.378   6.009   9.284
29048WAT      O87385   6.169   8.820   2.146
29048WAT     H187386   6.097   8.816   2.216
29048WAT     H287387   6.134   8.868   2.065
29049WAT      O87388   8.802   1.439   8.027
29049WAT     H187389   8.721   1.404   7.982
29049WAT     H287390   8.792   1.537   8.043
29050WAT      O87391   4.850   7.691   7.261
29050WAT     H187392   4.872   7.645   7.347
29050WAT     H287393   4.756   7.726   7.265
29051WAT      O87394   7.351   6.892   5.399
29051WAT     H187395   7.278   6.827   5.420
29051WAT     H287396   7.364   6.954   5.476
29052WAT      O87397   0.618   8.597   9.311
29052WAT     H187398   0.618   8.643   9.400
29052WAT     H287399   0.689   8.637   9.253
29053WAT      O87400   8.526   6.713   6.517
29053WAT     H187401   8.614   6.669   6.502
29053WAT     H287402   8.540   6.811   6.534
29054WAT      O87403   4.108   8.859   1.252
29054WAT     H187404   4.025   8.905   1.283
29054WAT     H287405   4.101   8.839   1.154
29055WAT      O87406   4.274   3.409   7.357
29055WAT     H187407   4.245   3.479   7.291
29055WAT     H287408   4.363   3.372   7.328
29056WAT      O87409   6.374   0.184   8.127
29056WAT     H187410   6.437   0.127   8.074
29056WAT     H287411   6.287   0.136   8.138
29057WAT      O87412   7.593   7.434   3.554
29057WAT     H187413   7.521   7.447   3.486
29057WAT     H287414   7.556   7.452   3.645
29058WAT      O87415   1.286   5.806   7.549
29058WAT     H187416   1.381   5.803   7.519
29058WAT     H287417   1.254   5.900   7.551
29059WAT      O87418   2.675   4.686   9.567
29059WAT     H187419   2.738   4.651   9.636
29059WAT     H287420   2.656   4.783   9.586
29060WAT      O87421   0.846   2.804   9.346
29060WAT     H187422   0.849   2.723   9.287
29060WAT     H287423   0.824   2.884   9.292
29061WAT      O87424   2.394   2.545   5.489
29061WAT     H187425   2.401   2.645   5.494
29061WAT     H287426   2.304   2.520   5.457
29062WAT      O87427   2.855   7.561   4.634
29062WAT     H187428   2.775   7.560   4.575
29062WAT     H287429   2.863   7.474   4.682
29063WAT      O87430   6.178   1.081   4.597
29063WAT     H187431   6.155   1.053   4.504
29063WAT     H287432   6.226   1.006   4.643
29064WAT      O87433   2.401   9.692   7.020
29064WAT     H187434   2.444   9.658   6.936
29064WAT     H287435   2.473   9.720   7.084
29065WAT      O87436   3.448   3.355   4.818
29065WAT     H187437   3.445   3.281   4.750
29065WAT     H287438   3.533   3.349   4.870
29066WAT      O87439   4.189   9.262   7.519
29066WAT     H187440   4.261   9.312   7.567
29066WAT     H287441   4.139   9.324   7.459
29067WAT      O87442   8.380   0.352   7.135
29067WAT     H187443   8.440   0.294   7.081
29067WAT     H287444   8.376   0.317   7.229
29068WAT      O87445   2.183   8.751   9.706
29068WAT     H187446   2.120   8.808   9.653
29068WAT     H287447   2.143   8.661   9.721
29069WAT      O87448   8.591   4.102   4.958
29069WAT     H187449   8.604   4.124   5.055
29069WAT     H287450   8.681   4.094   4.914
29070WAT      O87451   1.649   5.054   0.185
29070WAT     H187452   1.705   5.135   0.168
29070WAT     H287453   1.708   4.973   0.194
29071WAT      O87454   2.952   5.350   1.710
29071WAT     H187455   3.002   5.291   1.648
29071WAT     H287456   2.947   5.307   1.800
29072WAT      O87457   3.316   5.689   9.747
29072WAT     H187458   3.412   5.707   9.770
29072WAT     H287459   3.310   5.662   9.651
29073WAT      O87460   0.868   6.074   0.916
29073WAT     H187461   0.956   6.117   0.937
29073WAT     H287462   0.846   6.006   0.986
29074WAT      O87463   8.229   1.324   3.457
29074WAT     H187464   8.213   1.294   3.362
29074WAT     H287465   8.168   1.399   3.480
29075WAT      O87466   5.510   3.367   5.229
29075WAT     H187467   5.516   3.430   5.152
29075WAT     H287468   5.425   3.384   5.279
29076WAT      O87469   4.734   5.052   3.720
29076WAT     H187470   4.746   5.080   3.815
29076WAT     H287471   4.749   4.954   3.713
29077WAT      O87472   8.465   8.052   5.965
29077WAT     H187473   8.378   8.035   5.919
29077WAT     H287474   8.539   8.007   5.914
29078WAT      O87475   2.646   4.387   7.217
29078WAT     H187476   2.643   4.485   7.237
29078WAT     H287477   2.717   4.369   7.149
29079WAT      O87478   3.310   6.368   1.778
29079WAT     H187479   3.365   6.418   1.844
29079WAT     H287480   3.213   6.382   1.798
29080WAT      O87481   8.111   4.576   0.966
29080WAT     H187482   8.090   4.607   1.059
29080WAT     H287483   8.039   4.514   0.935
29081WAT      O87484   2.355   3.843   9.850
29081WAT     H187485   2.453   3.841   9.831
29081WAT     H287486   2.339   3.867   9.945
29082WAT      O87487   1.122   4.044   5.790
29082WAT     H187488   1.142   4.109   5.863
29082WAT     H287489   1.138   3.951   5.822
29083WAT      O87490   1.401   1.182   1.060
29083WAT     H187491   1.470   1.174   1.133
29083WAT     H287492   1.440   1.234   0.984
29084WAT      O87493   7.131   2.176   5.468
29084WAT     H187494   7.052   2.207   5.521
29084WAT     H287495   7.149   2.239   5.393
29085WAT      O87496   1.326   1.868   8.523
29085WAT     H187497   1.392   1.942   8.509
29085WAT     H287498   1.331   1.804   8.446
29086WAT      O87499   6.470   3.672   4.077
29086WAT     H187500   6.410   3.646   4.153
29086WAT     H287501   6.414   3.692   3.996
29087WAT      O87502   1.577   6.110   1.966
29087WAT     H187503   1.543   6.175   1.898
29087WAT     H287504   1.506   6.094   2.035
29088WAT      O87505   5.275   9.649   2.636
29088WAT     H187506   5.300   9.700   2.554
29088WAT     H287507   5.300   9.552   2.624
29089WAT      O87508   2.908   8.693   5.661
29089WAT     H187509   2.811   8.683   5.682
29089WAT     H287510   2.956   8.727   5.742
29090WAT      O87511   0.189   5.117   2.955
29090WAT     H187512   0.149   5.075   3.037
29090WAT     H287513   0.246   5.195   2.981
29091WAT      O87514   7.951   9.265   9.393
29091WAT     H187515   7.988   9.229   9.307
29091WAT     H287516   8.011   9.238   9.469
29092WAT      O87517   6.469   5.881   0.475
29092WAT     H187518   6.434   5.974   0.482
29092WAT     H287519   6.464   5.836   0.564
29093WAT      O87520   1.099   0.629   8.843
29093WAT     H187521   1.142   0.562   8.903
29093WAT     H287522   1.024   0.585   8.793
29094WAT      O87523   2.162   9.533   8.300
29094WAT     H187524   2.189   9.478   8.379
29094WAT     H287525   2.170   9.479   8.217
29095WAT      O87526   2.907   5.575   0.267
29095WAT     H187527   2.981   5.642   0.265
29095WAT     H287528   2.923   5.506   0.196
29096WAT      O87529   5.676   1.947   0.426
29096WAT     H187530   5.630   2.020   0.476
29096WAT     H287531   5.773   1.968   0.418
29097WAT      O87532   8.099   3.425   7.424
29097WAT     H187533   8.097   3.377   7.336
29097WAT     H287534   8.024   3.492   7.426
29098WAT      O87535   0.970   4.711   7.320
29098WAT     H187536   0.895   4.745   7.264
29098WAT     H287537   0.934   4.670   7.403
29099WAT      O87538   2.701   6.582   2.822
29099WAT     H187539   2.800   6.592   2.826
29099WAT     H287540   2.678   6.486   2.808
29100WAT      O87541   0.188   2.908   9.383
29100WAT     H187542   0.170   3.005   9.398
29100WAT     H287543   0.279   2.897   9.344
29101WAT      O87544   2.202   7.828   2.435
29101WAT     H187545   2.267   7.833   2.511
29101WAT     H287546   2.189   7.733   2.408
29102WAT      O87547   5.888   3.853   9.006
29102WAT     H187548   5.974   3.895   8.976
29102WAT     H287549   5.811   3.909   8.975
29103WAT      O87550   2.610   1.568   1.243
29103WAT     H187551   2.575   1.488   1.292
29103WAT     H287552   2.663   1.538   1.164
29104WAT      O87553   8.950   8.539   3.371
29104WAT     H187554   8.852   8.526   3.360
29104WAT     H287555   8.998   8.454   3.349
29105WAT      O87556   7.723   2.304   1.595
29105WAT     H187557   7.680   2.244   1.528
29105WAT     H287558   7.725   2.397   1.560
29106WAT      O87559   6.805   1.769   2.995
29106WAT     H187560   6.800   1.796   3.091
29106WAT     H287561   6.869   1.693   2.985
29107WAT      O87562   5.907   4.859   8.652
29107WAT     H187563   5.991   4.861   8.707
29107WAT     H287564   5.912   4.928   8.580
29108WAT      O87565   4.235   4.013   0.869
29108WAT     H187566   4.159   4.002   0.933
29108WAT     H287567   4.201   4.007   0.775
29109WAT      O87568   3.445   4.530   1.793
29109WAT     H187569   3.448   4.604   1.725
29109WAT     H287570   3.494   4.450   1.757
29110WAT      O87571   6.950   3.644   2.169
29110WAT     H187572   6.957   3.619   2.266
29110WAT     H287573   7.029   3.699   2.143
29111WAT      O87574   5.714   7.960   0.087
29111WAT     H187575   5.770   7.970   0.004
29111WAT     H287576   5.741   7.876   0.135
29112WAT      O87577   1.407   9.766   1.679
29112WAT     H187578   1.499   9.779   1.717
29112WAT     H287579   1.348   9.840   1.709
29113WAT      O87580   1.931   7.902   6.834
29113WAT     H187581   1.998   7.851   6.889
29113WAT     H287582   1.911   7.850   6.751
29114WAT      O87583   4.002   5.125   4.000
29114WAT     H187584   4.039   5.197   4.059
29114WAT     H287585   3.943   5.065   4.054
29115WAT      O87586   5.977   4.133   8.189
29115WAT     H187587   6.029   4.215   8.215
29115WAT     H287588   6.038   4.065   8.150
29116WAT      O87589   8.090   1.903   8.903
29116WAT     H187590   8.111   2.001   8.901
29116WAT     H287591   8.166   1.854   8.946
29117WAT      O87592   4.609   5.996   7.682
29117WAT     H187593   4.565   6.038   7.761
29117WAT     H287594   4.546   5.931   7.640
29118WAT      O87595   2.482   4.902   9.373
29118WAT     H187596   2.570   4.918   9.328
29118WAT     H287597   2.425   4.846   9.314
29119WAT      O87598   7.033   4.648   8.492
29119WAT     H187599   7.039   4.555   8.456
29119WAT     H287600   6.989   4.708   8.425
29120WAT      O87601   6.161   2.843   7.192
29120WAT     H187602   6.139   2.937   7.165
29120WAT     H287603   6.171   2.786   7.110
29121WAT      O87604   3.152   3.634   8.398
29121WAT     H187605   3.162   3.596   8.306
29121WAT     H287606   3.072   3.594   8.442
29122WAT      O87607   5.850   5.018   6.344
29122WAT     H187608   5.811   5.105   6.315
29122WAT     H287609   5.822   4.999   6.439
29123WAT      O87610   1.549   0.210   7.044
29123WAT     H187611   1.517   0.230   6.951
29123WAT     H287612   1.490   0.141   7.085
29124WAT      O87613   9.045   2.838   1.437
29124WAT     H187614   9.081   2.839   1.343
29124WAT     H287615   9.004   2.926   1.457
29125WAT      O87616   7.127   4.610   5.272
29125WAT     H187617   7.110   4.577   5.365
29125WAT     H287618   7.129   4.710   5.271
29126WAT      O87619   8.597   3.323   0.736
29126WAT     H187620   8.548   3.400   0.776
29126WAT     H287621   8.649   3.276   0.807
29127WAT      O87622   4.534   3.661   7.137
29127WAT     H187623   4.481   3.745   7.127
29127WAT     H287624   4.560   3.650   7.233
29128WAT      O87625   8.406   3.952   0.844
29128WAT     H187626   8.311   3.983   0.833
29128WAT     H287627   8.459   4.023   0.890
29129WAT      O87628   7.620   3.754   6.144
29129WAT     H187629   7.531   3.796   6.122
29129WAT     H287630   7.693   3.816   6.117
29130WAT      O87631   0.616   5.376   8.570
29130WAT     H187632   0.594   5.287   8.529
29130WAT     H287633   0.579   5.449   8.513
29131WAT      O87634   4.718   8.253   9.378
29131WAT     H187635   4.769   8.295   9.304
29131WAT     H287636   4.650   8.318   9.412
29132WAT      O87637   3.468   4.427   5.333
29132WAT     H187638   3.378   4.392   5.307
29132WAT     H287639   3.469   4.526   5.323
29133WAT      O87640   8.015   6.625   0.504
29133WAT     H187641   8.022   6.719   0.540
29133WAT     H287642   7.961   6.625   0.420
29134WAT      O87643   1.349   3.710   0.334
29134WAT     H187644   1.321   3.718   0.430
29134WAT     H287645   1.349   3.800   0.291
29135WAT      O87646   1.165   1.962   6.403
29135WAT     H187647   1.237   1.916   6.455
29135WAT     H287648   1.189   2.058   6.391
29136WAT      O87649   1.466   5.291   9.583
29136WAT     H187650   1.381   5.254   9.546
29136WAT     H287651   1.483   5.253   9.674
29137WAT      O87652   1.606   1.667   8.464
29137WAT     H187653   1.635   1.762   8.456
29137WAT     H287654   1.640   1.615   8.386
29138WAT      O87655   3.488   3.528   0.707
29138WAT     H187656   3.417   3.470   0.666
29138WAT     H287657   3.480   3.526   0.807
29139WAT      O87658   2.299   9.157   5.208
29139WAT     H187659   2.222   9.220   5.209
29139WAT     H287660   2.384   9.209   5.216
29140WAT      O87661   2.470   7.362   0.084
29140WAT     H187662   2.472   7.316   0.173
29140WAT     H287663   2.563   7.389   0.059
29141WAT      O87664   7.409   7.459   6.193
29141WAT     H187665   7.454   7.528   6.250
29141WAT     H287666   7.313   7.453   6.217
29142WAT      O87667   3.908   5.892   6.658
29142WAT     H187668   3.858   5.881   6.744
29142WAT     H287669   3.951   5.805   6.634
29143WAT      O87670   6.501   6.098   8.950
29143WAT     H187671   6.457   6.030   8.891
29143WAT     H287672   6.593   6.117   8.917
29144WAT      O87673   5.302   7.841   7.855
29144WAT     H187674   5.271   7.822   7.949
29144WAT     H287675   5.303   7.940   7.840
29145WAT      O87676   1.163   5.743   9.404
29145WAT     H187677   1.089   5.678   9.389
29145WAT     H287678   1.204   5.727   9.493
29146WAT      O87679   0.488   2.903   4.327
29146WAT     H187680   0.505   2.924   4.231
29146WAT     H287681   0.465   2.987   4.376
29147WAT      O87682   1.559   5.389   2.333
29147WAT     H187683   1.597   5.312   2.385
29147WAT     H287684   1.462   5.372   2.313
29148WAT      O87685   7.224   6.266   2.107
29148WAT     H187686   7.268   6.355   2.110
29148WAT     H287687   7.128   6.275   2.135
29149WAT      O87688   4.799   1.073   9.515
29149WAT     H187689   4.849   1.088   9.601
29149WAT     H287690   4.796   1.158   9.463
29150WAT      O87691   1.933   8.080   9.878
29150WAT     H187692   1.862   8.065   9.809
29150WAT     H287693   1.991   7.998   9.885
29151WAT      O87694   6.632   8.270   4.117
29151WAT     H187695   6.709   8.277   4.180
29151WAT     H287696   6.612   8.174   4.099
29152WAT      O87697   6.662   3.665   6.752
29152WAT     H187698   6.670   3.651   6.653
29152WAT     H287699   6.615   3.586   6.792
29153WAT      O87700   7.645   8.238   9.223
29153WAT     H187701   7.600   8.173   9.161
29153WAT     H287702   7.662   8.193   9.311
29154WAT      O87703   0.511   1.472   9.217
29154WAT     H187704   0.425   1.457   9.266
29154WAT     H287705   0.516   1.411   9.137
29155WAT      O87706   8.660   6.727   7.195
29155WAT     H187707   8.561   6.722   7.207
29155WAT     H287708   8.701   6.642   7.229
29156WAT      O87709   2.498   6.617   2.247
29156WAT     H187710   2.547   6.594   2.332
29156WAT     H287711   2.530   6.706   2.215
29157WAT      O87712   6.989   0.445   4.235
29157WAT     H187713   6.947   0.427   4.146
29157WAT     H287714   7.082   0.477   4.222
29158WAT      O87715   7.531   5.122   8.289
29158WAT     H187716   7.469   5.156   8.219
29158WAT     H287717   7.505   5.159   8.378
29159WAT      O87718   1.441   7.723   1.604
29159WAT     H187719   1.411   7.792   1.670
29159WAT     H287720   1.417   7.632   1.637
29160WAT      O87721   8.984   1.497   7.041
29160WAT     H187722   8.960   1.498   7.138
29160WAT     H287723   9.077   1.531   7.029
29161WAT      O87724   2.618   2.724   6.831
29161WAT     H187725   2.536   2.697   6.881
29161WAT     H287726   2.593   2.773   6.748
29162WAT      O87727   8.737   8.550   1.288
29162WAT     H187728   8.758   8.478   1.221
29162WAT     H287729   8.650   8.592   1.265
29163WAT      O87730   4.352   2.094   6.769
29163WAT     H187731   4.373   2.075   6.865
29163WAT     H287732   4.340   2.193   6.756
29164WAT      O87733   1.824   3.339   5.657
29164WAT     H187734   1.837   3.426   5.610
29164WAT     H287735   1.762   3.352   5.735
29165WAT      O87736   0.003   6.845   8.210
29165WAT     H187737   0.081   6.870   8.153
29165WAT     H287738  -0.007   6.746   8.212
29166WAT      O87739   4.865   3.743   2.019
29166WAT     H187740   4.837   3.663   2.073
29166WAT     H287741   4.934   3.716   1.953
29167WAT      O87742   6.761   5.665   3.966
29167WAT     H187743   6.701   5.689   3.890
29167WAT     H287744   6.845   5.625   3.931
29168WAT      O87745   0.987   6.088   5.152
29168WAT     H187746   1.054   6.059   5.083
29168WAT     H287747   0.970   6.012   5.214
29169WAT      O87748   7.459   1.547   6.768
29169WAT     H187749   7.447   1.462   6.718
29169WAT     H287750   7.526   1.533   6.842
29170WAT      O87751   2.749   2.593   7.423
29170WAT     H187752   2.687   2.577   7.500
29170WAT     H287753   2.838   2.624   7.457
29171WAT      O87754   9.602   8.463   5.581
29171WAT     H187755   9.656   8.430   5.659
29171WAT     H287756   9.547   8.388   5.545
29172WAT      O87757   8.565   7.636   0.978
29172WAT     H187758   8.472   7.665   0.956
29172WAT     H287759   8.582   7.649   1.076
29173WAT      O87760   9.353   8.571   6.505
29173WAT     H187761   9.408   8.621   6.573
29173WAT     H287762   9.414   8.517   6.447
29174WAT      O87763   4.068   1.092   8.931
29174WAT     H187764   4.158   1.118   8.897
29174WAT     H287765   4.073   1.076   9.030
29175WAT      O87766   0.840   9.480   6.388
29175WAT     H187767   0.892   9.424   6.323
29175WAT     H287768   0.823   9.427   6.472
29176WAT      O87769   4.464   0.815   7.396
29176WAT     H187770   4.474   0.870   7.479
29176WAT     H287771   4.551   0.771   7.374
29177WAT      O87772   8.918   1.639   3.077
29177WAT     H187773   8.994   1.575   3.070
29177WAT     H287774   8.950   1.731   3.051
29178WAT      O87775   3.065   0.583   9.873
29178WAT     H187776   3.115   0.507   9.913
29178WAT     H287777   3.001   0.620   9.942
29179WAT      O87778   5.968   4.393   4.394
29179WAT     H187779   5.911   4.466   4.432
29179WAT     H287780   6.063   4.426   4.386
29180WAT      O87781   4.792   1.130   2.520
29180WAT     H187782   4.731   1.157   2.595
29180WAT     H287783   4.837   1.044   2.543
29181WAT      O87784   6.677   1.354   6.494
29181WAT     H187785   6.632   1.386   6.410
29181WAT     H287786   6.636   1.398   6.573
29182WAT      O87787   0.519   4.227   0.383
29182WAT     H187788   0.482   4.273   0.303
29182WAT     H287789   0.590   4.285   0.424
29183WAT      O87790   1.081   5.595   4.410
29183WAT     H187791   1.100   5.497   4.418
29183WAT     H287792   1.055   5.632   4.499
29184WAT      O87793   9.086   3.828   8.868
29184WAT     H187794   9.018   3.761   8.839
29184WAT     H287795   9.139   3.858   8.789
29185WAT      O87796   2.047   5.264   4.690
29185WAT     H187797   2.047   5.361   4.712
29185WAT     H287798   2.039   5.252   4.591
29186WAT      O87799   8.095   6.679   7.904
29186WAT     H187800   8.034   6.721   7.836
29186WAT     H287801   8.059   6.589   7.930
29187WAT      O87802   2.381   8.423   4.755
29187WAT     H187803   2.282   8.430   4.762
29187WAT     H287804   2.423   8.507   4.788
29188WAT      O87805   8.231   5.915   6.366
29188WAT     H187806   8.296   5.852   6.409
29188WAT     H287807   8.234   5.903   6.267
29189WAT      O87808   1.038   0.321   3.058
29189WAT     H187809   1.024   0.237   3.005
29189WAT     H287810   0.999   0.310   3.149
29190WAT      O87811   4.043   8.843   6.534
29190WAT     H187812   3.967   8.867   6.594
29190WAT     H287813   4.094   8.926   6.509
29191WAT      O87814   8.173   8.651   1.783
29191WAT     H187815   8.249   8.587   1.782
29191WAT     H287816   8.159   8.688   1.691
29192WAT      O87817   0.492   5.469   9.304
29192WAT     H187818   0.474   5.493   9.209
29192WAT     H287819   0.428   5.518   9.363
29193WAT      O87820   7.711   9.131   1.552
29193WAT     H187821   7.806   9.160   1.539
29193WAT     H287822   7.681   9.159   1.643
29194WAT      O87823   8.700   2.424   0.321
29194WAT     H187824   8.752   2.348   0.359
29194WAT     H287825   8.742   2.454   0.235
29195WAT      O87826   1.130   7.935   0.594
29195WAT     H187827   1.048   7.931   0.651
29195WAT     H287828   1.191   8.007   0.627
29196WAT      O87829   4.508   6.000   6.578
29196WAT     H187830   4.437   6.039   6.519
29196WAT     H287831   4.539   6.069   6.644
29197WAT      O87832   2.583   8.675   3.154
29197WAT     H187833   2.622   8.739   3.221
29197WAT     H287834   2.629   8.686   3.066
29198WAT      O87835   5.127   3.016   8.138
29198WAT     H187836   5.170   3.104   8.159
29198WAT     H287837   5.064   3.026   8.061
29199WAT      O87838   8.257   6.291   9.021
29199WAT     H187839   8.225   6.327   8.934
29199WAT     H287840   8.251   6.191   9.020
29200WAT      O87841   8.414   0.274   5.180
29200WAT     H187842   8.428   0.176   5.194
29200WAT     H287843   8.318   0.291   5.159
29201WAT      O87844   5.096   2.906   8.376
29201WAT     H187845   5.070   2.810   8.369
29201WAT     H287846   5.084   2.950   8.286
29202WAT      O87847   6.807   5.846   8.397
29202WAT     H187848   6.860   5.802   8.325
29202WAT     H287849   6.841   5.817   8.486
29203WAT      O87850   6.616   5.564   0.589
29203WAT     H187851   6.559   5.535   0.512
29203WAT     H287852   6.707   5.524   0.580
29204WAT      O87853   6.109   4.216   9.738
29204WAT     H187854   6.126   4.154   9.661
29204WAT     H287855   6.159   4.302   9.722
29205WAT      O87856   4.080   5.023   5.957
29205WAT     H187857   4.084   4.967   5.874
29205WAT     H287858   4.130   4.977   6.030
29206WAT      O87859   7.199   7.234   7.145
29206WAT     H187860   7.234   7.146   7.113
29206WAT     H287861   7.251   7.264   7.225
29207WAT      O87862   1.369   9.391   5.220
29207WAT     H187863   1.447   9.414   5.278
29207WAT     H287864   1.368   9.292   5.204
29208WAT      O87865   2.378   6.220   6.619
29208WAT     H187866   2.312   6.162   6.666
29208WAT     H287867   2.388   6.307   6.669
29209WAT      O87868   1.720   0.188   3.017
29209WAT     H187869   1.799   0.244   3.042
29209WAT     H287870   1.714   0.109   3.078
29210WAT      O87871   1.475   6.421   6.679
29210WAT     H187872   1.443   6.452   6.769
29210WAT     H287873   1.559   6.368   6.690
29211WAT      O87874   2.150   3.351   7.575
29211WAT     H187875   2.210   3.392   7.643
29211WAT     H287876   2.116   3.422   7.513
29212WAT      O87877   1.337   4.436   5.499
29212WAT     H187878   1.248   4.439   5.544
29212WAT     H287879   1.397   4.371   5.547
29213WAT      O87880   0.552   7.852   2.817
29213WAT     H187881   0.594   7.762   2.826
29213WAT     H287882   0.619   7.923   2.837
29214WAT      O87883   9.876   4.915   4.826
29214WAT     H187884   9.806   4.873   4.770
29214WAT     H287885   9.919   4.990   4.776
29215WAT      O87886   7.121   9.751   6.130
29215WAT     H187887   7.057   9.774   6.057
29215WAT     H287888   7.077   9.763   6.219
29216WAT      O87889   3.005   0.914   6.701
29216WAT     H187890   2.957   0.834   6.665
29216WAT     H287891   3.034   0.896   6.795
29217WAT      O87892   5.616   4.260   4.768
29217WAT     H187893   5.569   4.343   4.798
29217WAT     H287894   5.687   4.285   4.702
29218WAT      O87895   1.503   0.332   2.043
29218WAT     H187896   1.486   0.420   1.998
29218WAT     H287897   1.544   0.269   1.977
29219WAT      O87898   1.685   8.619   5.195
29219WAT     H187899   1.707   8.624   5.292
29219WAT     H287900   1.650   8.528   5.174
29220WAT      O87901   4.092   8.902   8.178
29220WAT     H187902   4.150   8.941   8.250
29220WAT     H287903   4.150   8.870   8.103
29221WAT      O87904   7.540   0.848   8.336
29221WAT     H187905   7.462   0.794   8.368
29221WAT     H287906   7.526   0.944   8.360
29222WAT      O87907   3.390   7.035   9.209
29222WAT     H187908   3.484   7.064   9.189
29222WAT     H287909   3.340   7.024   9.123
29223WAT      O87910   9.441   0.351   1.418
29223WAT     H187911   9.487   0.355   1.330
29223WAT     H287912   9.474   0.424   1.477
29224WAT      O87913   4.577   9.838   4.328
29224WAT     H187914   4.579   9.823   4.427
29224WAT     H287915   4.491   9.882   4.303
29225WAT      O87916   4.465   7.200   1.274
29225WAT     H187917   4.470   7.282   1.330
29225WAT     H287918   4.386   7.207   1.212
29226WAT      O87919   6.577   7.968   6.720
29226WAT     H187920   6.574   8.003   6.626
29226WAT     H287921   6.586   7.868   6.717
29227WAT      O87922   0.414   7.888   5.673
29227WAT     H187923   0.359   7.913   5.753
29227WAT     H287924   0.422   7.967   5.613
29228WAT      O87925   2.220   1.600   5.749
29228WAT     H187926   2.185   1.527   5.690
29228WAT     H287927   2.313   1.578   5.777
29229WAT      O87928   8.276   5.615   5.808
29229WAT     H187929   8.331   5.594   5.727
29229WAT     H287930   8.194   5.559   5.807
29230WAT      O87931   5.324   3.346   4.491
29230WAT     H187932   5.351   3.379   4.581
29230WAT     H287933   5.402   3.304   4.446
29231WAT      O87934   3.904   8.446   6.270
29231WAT     H187935   3.823   8.388   6.259
29231WAT     H287936   3.877   8.542   6.261
29232WAT      O87937   1.968   8.580   1.179
29232WAT     H187938   1.871   8.582   1.202
29232WAT     H287939   2.023   8.578   1.263
29233WAT      O87940   8.866   4.744   6.667
29233WAT     H187941   8.873   4.843   6.660
29233WAT     H287942   8.920   4.701   6.595
29234WAT      O87943   7.276   0.663   1.201
29234WAT     H187944   7.372   0.666   1.171
29234WAT     H287945   7.262   0.728   1.275
29235WAT      O87946   3.106   4.917   5.739
29235WAT     H187947   3.162   4.840   5.768
29235WAT     H287948   3.020   4.917   5.789
29236WAT      O87949   8.453   6.131   4.657
29236WAT     H187950   8.468   6.041   4.698
29236WAT     H287951   8.511   6.140   4.576
29237WAT      O87952   0.891   3.319   4.916
29237WAT     H187953   0.889   3.373   4.832
29237WAT     H287954   0.909   3.223   4.893
29238WAT      O87955   0.923   5.036   1.047
29238WAT     H187956   0.871   5.072   1.124
29238WAT     H287957   0.939   5.109   0.980
29239WAT      O87958   2.860   0.824   2.918
29239WAT     H187959   2.913   0.759   2.864
29239WAT     H287960   2.922   0.887   2.965
29240WAT      O87961   7.263   1.130   3.287
29240WAT     H187962   7.196   1.189   3.242
29240WAT     H287963   7.352   1.174   3.286
29241WAT      O87964   3.776   5.483   8.436
29241WAT     H187965   3.811   5.526   8.520
29241WAT     H287966   3.680   5.458   8.450
29242WAT      O87967   0.401   5.848   3.287
29242WAT     H187968   0.370   5.875   3.378
29242WAT     H287969   0.337   5.782   3.248
29243WAT      O87970   2.295   6.816   6.504
29243WAT     H187971   2.353   6.862   6.437
29243WAT     H287972   2.203   6.856   6.501
29244WAT      O87973   3.041  -0.003   6.202
29244WAT     H187974   2.954   0.046   6.206
29244WAT     H287975   3.110   0.054   6.158
29245WAT      O87976   0.726   3.906   5.275
29245WAT     H187977   0.807   3.903   5.332
29245WAT     H287978   0.716   3.998   5.236
29246WAT      O87979   3.900   8.458   7.504
29246WAT     H187980   3.876   8.385   7.568
29246WAT     H287981   3.899   8.546   7.553
29247WAT      O87982   2.641   4.123   6.396
29247WAT     H187983   2.708   4.152   6.464
29247WAT     H287984   2.569   4.192   6.389
29248WAT      O87985   7.259   0.330   3.018
29248WAT     H187986   7.324   0.326   3.095
29248WAT     H287987   7.308   0.311   2.933
29249WAT      O87988   1.412   9.127   4.680
29249WAT     H187989   1.511   9.144   4.676
29249WAT     H287990   1.389   9.051   4.619
29250WAT      O87991   2.194   4.595   0.219
29250WAT     H187992   2.178   4.528   0.291
29250WAT     H287993   2.157   4.684   0.246
29251WAT      O87994   8.459   3.961   6.870
29251WAT     H187995   8.502   3.889   6.924
29251WAT     H287996   8.452   4.044   6.924
29252WAT      O87997   4.055   6.203   1.972
29252WAT     H187998   4.023   6.191   1.879
29252WAT     H287999   4.080   6.114   2.011
29253WAT      O88000   1.534   5.719   1.314
29253WAT     H188001   1.592   5.640   1.298
29253WAT     H288002   1.588   5.792   1.356
29254WAT      O88003   0.915   0.211   3.305
29254WAT     H188004   0.953   0.129   3.262
29254WAT     H288005   0.846   0.184   3.372
29255WAT      O88006   6.429   5.559   5.537
29255WAT     H188007   6.353   5.591   5.595
29255WAT     H288008   6.487   5.636   5.513
29256WAT      O88009   4.478   3.989   5.331
29256WAT     H188010   4.522   4.055   5.392
29256WAT     H288011   4.394   4.028   5.295
29257WAT      O88012   4.839   6.251   3.347
29257WAT     H188013   4.930   6.214   3.360
29257WAT     H288014   4.770   6.182   3.370
29258WAT      O88015   9.864   8.575   5.263
29258WAT     H188016   9.926   8.498   5.245
29258WAT     H288017   9.901   8.658   5.221
29259WAT      O88018   0.923   8.257   2.405
29259WAT     H188019   0.935   8.312   2.487
29259WAT     H288020   0.929   8.316   2.324
29260WAT      O88021   6.600   0.722   9.327
29260WAT     H188022   6.604   0.720   9.427
29260WAT     H288023   6.676   0.670   9.289
29261WAT      O88024   2.680   4.089   2.595
29261WAT     H188025   2.594   4.139   2.605
29261WAT     H288026   2.756   4.151   2.612
29262WAT      O88027   6.725   5.668   5.365
29262WAT     H188028   6.819   5.644   5.387
29262WAT     H288029   6.695   5.742   5.425
29263WAT      O88030   2.359   7.858   6.841
29263WAT     H188031   2.355   7.759   6.854
29263WAT     H288032   2.309   7.904   6.914
29264WAT      O88033   2.501   9.567   9.625
29264WAT     H188034   2.549   9.608   9.548
29264WAT     H288035   2.439   9.635   9.666
29265WAT      O88036   8.753   4.217   8.743
29265WAT     H188037   8.779   4.271   8.662
29265WAT     H288038   8.836   4.189   8.792
29266WAT      O88039   5.410   0.526   8.104
29266WAT     H188040   5.423   0.576   8.189
29266WAT     H288041   5.404   0.590   8.028
29267WAT      O88042   6.453   5.779   3.102
29267WAT     H188043   6.444   5.783   3.202
29267WAT     H288044   6.372   5.821   3.060
29268WAT      O88045   5.250   3.826   5.494
29268WAT     H188046   5.180   3.832   5.566
29268WAT     H288047   5.212   3.780   5.414
29269WAT      O88048   1.113   2.714   8.743
29269WAT     H188049   1.052   2.790   8.718
29269WAT     H288050   1.108   2.644   8.672
29270WAT      O88051   9.293   3.703   2.222
29270WAT     H188052   9.266   3.607   2.226
29270WAT     H288053   9.220   3.761   2.258
29271WAT      O88054   6.805   6.055   8.062
29271WAT     H188055   6.810   5.955   8.063
29271WAT     H288056   6.890   6.092   8.100
29272WAT      O88057   6.556   0.781   1.737
29272WAT     H188058   6.603   0.712   1.682
29272WAT     H288059   6.612   0.803   1.817
29273WAT      O88060   7.271   5.872   0.928
29273WAT     H188061   7.216   5.956   0.933
29273WAT     H288062   7.218   5.796   0.966
29274WAT      O88063   9.189   4.841   3.377
29274WAT     H188064   9.106   4.791   3.403
29274WAT     H288065   9.212   4.907   3.448
29275WAT      O88066   7.010   7.369   1.890
29275WAT     H188067   7.079   7.396   1.823
29275WAT     H288068   7.034   7.405   1.980
29276WAT      O88069   7.490   5.937   7.870
29276WAT     H188070   7.453   5.847   7.847
29276WAT     H288071   7.588   5.928   7.891
29277WAT      O88072   5.996   2.782   6.693
29277WAT     H188073   5.909   2.749   6.656
29277WAT     H288074   6.032   2.854   6.633
29278WAT      O88075   3.605   2.244   1.480
29278WAT     H188076   3.540   2.289   1.542
29278WAT     H288077   3.555   2.199   1.406
29279WAT      O88078   1.912   0.777   0.264
29279WAT     H188079   1.947   0.752   0.354
29279WAT     H288080   1.971   0.846   0.223
29280WAT      O88081   8.085   6.779   1.887
29280WAT     H188082   8.164   6.730   1.924
29280WAT     H288083   8.017   6.792   1.960
29281WAT      O88084   4.375   4.935   0.618
29281WAT     H188085   4.410   4.846   0.589
29281WAT     H288086   4.329   4.979   0.541
29282WAT      O88087   7.222   1.000   2.501
29282WAT     H188088   7.129   0.965   2.489
29282WAT     H288089   7.224   1.064   2.577
29283WAT      O88090   9.675   6.985   0.523
29283WAT     H188091   9.604   7.030   0.577
29283WAT     H288092   9.764   7.027   0.543
29284WAT      O88093   2.444   4.224   2.565
29284WAT     H188094   2.477   4.301   2.510
29284WAT     H288095   2.361   4.250   2.614
29285WAT      O88096   4.298   9.633   1.773
29285WAT     H188097   4.343   9.691   1.706
29285WAT     H288098   4.228   9.686   1.822
29286WAT      O88099   8.889   4.909   5.649
29286WAT     H188100   8.858   4.850   5.724
29286WAT     H288101   8.950   4.979   5.685
29287WAT      O88102   6.087   2.183   0.269
29287WAT     H188103   6.132   2.205   0.355
29287WAT     H288104   6.047   2.267   0.230
29288WAT      O88105   3.484   6.698   4.746
29288WAT     H188106   3.523   6.629   4.807
29288WAT     H288107   3.385   6.686   4.741
29289WAT      O88108   3.159   4.892   7.488
29289WAT     H188109   3.159   4.829   7.410
29289WAT     H288110   3.171   4.985   7.456
29290WAT      O88111   5.773   6.104   7.223
29290WAT     H188112   5.725   6.189   7.204
29290WAT     H288113   5.841   6.088   7.152
29291WAT      O88114   3.192   3.388   1.958
29291WAT     H188115   3.253   3.463   1.984
29291WAT     H288116   3.243   3.319   1.906
29292WAT      O88117   3.861   2.023   6.795
29292WAT     H188118   3.777   2.030   6.849
29292WAT     H288119   3.925   1.962   6.841
29293WAT      O88120   6.716   6.256   1.971
29293WAT     H188121   6.618   6.238   1.977
29293WAT     H288122   6.764   6.170   1.952
29294WAT      O88123   9.479   4.317   5.184
29294WAT     H188124   9.534   4.383   5.235
29294WAT     H288125   9.392   4.301   5.232
29295WAT      O88126   6.553   3.172   8.985
29295WAT     H188127   6.536   3.094   8.925
29295WAT     H288128   6.638   3.157   9.036
29296WAT      O88129   2.105   1.764   5.051
29296WAT     H188130   2.089   1.689   4.987
29296WAT     H288131   2.020   1.815   5.064
29297WAT      O88132   9.852   8.692   4.129
29297WAT     H188133   9.759   8.692   4.092
29297WAT     H288134   9.848   8.685   4.229
29298WAT      O88135   8.247   6.992   3.941
29298WAT     H188136   8.323   6.952   3.991
29298WAT     H288137   8.169   6.929   3.943
29299WAT      O88138   3.918   1.389   0.631
29299WAT     H188139   4.017   1.386   0.648
29299WAT     H288140   3.870   1.390   0.719
29300WAT      O88141   6.706   5.224   5.172
29300WAT     H188142   6.607   5.241   5.168
29300WAT     H288143   6.752   5.275   5.100
29301WAT      O88144   0.504   2.208   5.162
29301WAT     H188145   0.543   2.289   5.206
29301WAT     H288146   0.438   2.237   5.092
29302WAT      O88147   2.072   1.242   6.694
29302WAT     H188148   2.096   1.337   6.711
29302WAT     H288149   2.155   1.188   6.683
29303WAT      O88150   8.374   3.343   1.981
29303WAT     H188151   8.444   3.291   1.932
29303WAT     H288152   8.406   3.364   2.074
29304WAT      O88153   6.916   3.595   8.155
29304WAT     H188154   6.878   3.662   8.092
29304WAT     H288155   6.966   3.525   8.103
29305WAT      O88156   7.133   1.677   5.454
29305WAT     H188157   7.206   1.609   5.445
29305WAT     H288158   7.052   1.647   5.404
29306WAT      O88159   6.724   0.719   4.006
29306WAT     H188160   6.710   0.668   3.921
29306WAT     H288161   6.705   0.816   3.991
29307WAT      O88162   1.491   2.355   0.006
29307WAT     H188163   1.405   2.334  -0.040
29307WAT     H288164   1.524   2.444  -0.024
29308WAT      O88165   6.922   0.861   8.770
29308WAT     H188166   6.883   0.826   8.685
29308WAT     H288167   6.894   0.803   8.846
29309WAT      O88168   0.508   0.881   4.129
29309WAT     H188169   0.564   0.964   4.125
29309WAT     H288170   0.412   0.905   4.116
29310WAT      O88171   3.192   0.143   5.213
29310WAT     H188172   3.173   0.066   5.151
29310WAT     H288173   3.105   0.181   5.246
29311WAT      O88174   4.156   9.368   8.454
29311WAT     H188175   4.076   9.308   8.459
29311WAT     H288176   4.232   9.328   8.506
29312WAT      O88177   1.570   5.107   2.987
29312WAT     H188178   1.518   5.181   2.944
29312WAT     H288179   1.647   5.145   3.038
29313WAT      O88180   6.833   7.267   2.128
29313WAT     H188181   6.900   7.330   2.089
29313WAT     H288182   6.812   7.195   2.061
29314WAT      O88183   7.794   5.180   3.882
29314WAT     H188184   7.858   5.178   3.958
29314WAT     H288185   7.844   5.176   3.796
29315WAT      O88186   8.457   9.270   3.244
29315WAT     H188187   8.382   9.317   3.291
29315WAT     H288188   8.521   9.234   3.312
29316WAT      O88189   8.553   9.382   2.972
29316WAT     H188190   8.562   9.482   2.966
29316WAT     H288191   8.488   9.359   3.045
29317WAT      O88192   0.330   4.706   6.262
29317WAT     H188193   0.240   4.662   6.265
29317WAT     H288194   0.355   4.736   6.354
29318WAT      O88195   0.721   8.338   7.245
29318WAT     H188196   0.746   8.372   7.154
29318WAT     H288197   0.737   8.239   7.248
29319WAT      O88198   8.384   1.853   6.328
29319WAT     H188199   8.365   1.755   6.332
29319WAT     H288200   8.479   1.867   6.300
29320WAT      O88201   9.734   6.860   4.682
29320WAT     H188202   9.806   6.899   4.739
29320WAT     H288203   9.759   6.868   4.586
29321WAT      O88204   0.241   2.036   0.272
29321WAT     H188205   0.164   2.014   0.212
29321WAT     H288206   0.270   2.130   0.255
29322WAT      O88207   6.110   5.800   2.988
29322WAT     H188208   6.048   5.750   2.928
29322WAT     H288209   6.114   5.755   3.077
29323WAT      O88210   1.181   6.549   8.386
29323WAT     H188211   1.114   6.488   8.345
29323WAT     H288212   1.139   6.598   8.463
29324WAT      O88213   4.210   7.926   1.921
29324WAT     H188214   4.308   7.924   1.902
29324WAT     H288215   4.159   7.901   1.838
29325WAT      O88216   7.245   4.502   4.440
29325WAT     H188217   7.288   4.460   4.520
29325WAT     H288218   7.315   4.522   4.371
29326WAT      O88219   1.559   6.132   6.330
29326WAT     H188220   1.488   6.157   6.395
29326WAT     H288221   1.583   6.211   6.274
29327WAT      O88222   3.549   3.093   1.657
29327WAT     H188223   3.634   3.065   1.703
29327WAT     H288224   3.481   3.020   1.666
29328WAT      O88225   6.820   4.251   0.751
29328WAT     H188226   6.896   4.289   0.805
29328WAT     H288227   6.819   4.294   0.661
29329WAT      O88228   4.416   4.609   5.768
29329WAT     H188229   4.475   4.540   5.810
29329WAT     H288230   4.465   4.695   5.760
29330WAT      O88231   0.980   2.185   2.711
29330WAT     H188232   0.887   2.212   2.737
29330WAT     H288233   1.011   2.240   2.634
29331WAT      O88234   1.652   9.384   1.685
29331WAT     H188235   1.748   9.358   1.673
29331WAT     H288236   1.618   9.342   1.769
29332WAT      O88237   2.835   7.711   8.351
29332WAT     H188238   2.776   7.671   8.281
29332WAT     H288239   2.800   7.802   8.376
29333WAT      O88240   8.990   3.244   6.721
29333WAT     H188241   9.072   3.224   6.667
29333WAT     H288242   8.933   3.309   6.670
29334WAT      O88243   1.447   5.722   7.791
29334WAT     H188244   1.477   5.798   7.849
29334WAT     H288245   1.377   5.753   7.727
29335WAT      O88246   1.439   9.542   1.950
29335WAT     H188247   1.351   9.508   1.985
29335WAT     H288248   1.491   9.466   1.912
29336WAT      O88249   7.708   0.801   5.217
29336WAT     H188250   7.648   0.737   5.169
29336WAT     H288251   7.802   0.766   5.214
29337WAT      O88252   3.711   5.480   6.808
29337WAT     H188253   3.710   5.517   6.715
29337WAT     H288254   3.643   5.528   6.864
29338WAT      O88255   9.679   1.238   5.429
29338WAT     H188256   9.611   1.312   5.422
29338WAT     H288257   9.658   1.167   5.362
29339WAT      O88258   5.452   8.701   1.997
29339WAT     H188259   5.380   8.724   1.931
29339WAT     H288260   5.541   8.728   1.960
29340WAT      O88261   7.828   2.850   1.887
29340WAT     H188262   7.730   2.850   1.904
29340WAT     H288263   7.877   2.848   1.974
29341WAT      O88264   4.099   5.681   0.100
29341WAT     H188265   4.029   5.613   0.082
29341WAT     H288266   4.188   5.636   0.108
29342WAT      O88267   1.637   6.859   9.484
29342WAT     H188268   1.668   6.833   9.576
29342WAT     H288269   1.655   6.784   9.421
29343WAT      O88270   6.345   1.241   2.865
29343WAT     H188271   6.408   1.228   2.788
29343WAT     H288272   6.397   1.268   2.946
29344WAT      O88273   0.891   5.548   4.701
29344WAT     H188274   0.869   5.486   4.626
29344WAT     H288275   0.892   5.499   4.788
29345WAT      O88276   6.118   1.292   4.177
29345WAT     H188277   6.125   1.347   4.260
29345WAT     H288278   6.124   1.352   4.097
29346WAT      O88279   3.445   0.069   1.729
29346WAT     H188280   3.492  -0.015   1.760
29346WAT     H288281   3.494   0.107   1.651
29347WAT      O88282   5.347   0.118   7.241
29347WAT     H188283   5.438   0.157   7.223
29347WAT     H288284   5.352   0.057   7.319
29348WAT      O88285   6.800   1.143   9.751
29348WAT     H188286   6.716   1.138   9.806
29348WAT     H288287   6.784   1.100   9.662
29349WAT      O88288   1.188   6.869   5.837
29349WAT     H188289   1.107   6.926   5.823
29349WAT     H288290   1.216   6.873   5.932
29350WAT      O88291   3.137   4.884   4.279
29350WAT     H188292   3.231   4.866   4.307
29350WAT     H288293   3.133   4.968   4.226
29351WAT      O88294   0.618   1.699   6.064
29351WAT     H188295   0.520   1.699   6.046
29351WAT     H288296   0.643   1.783   6.113
29352WAT      O88297   0.422   6.103   9.031
29352WAT     H188298   0.371   6.188   9.049
29352WAT     H288299   0.441   6.097   8.933
29353WAT      O88300   3.259   8.765   1.096
29353WAT     H188301   3.185   8.724   1.042
29353WAT     H288302   3.335   8.700   1.103
29354WAT      O88303   5.378   2.751   1.946
29354WAT     H188304   5.283   2.781   1.940
29354WAT     H288305   5.405   2.706   1.861
29355WAT      O88306   9.598   6.810   1.565
29355WAT     H188307   9.602   6.743   1.638
29355WAT     H288308   9.656   6.780   1.488
29356WAT      O88309   3.986   3.525   9.760
29356WAT     H188310   3.953   3.594   9.825
29356WAT     H288311   4.071   3.485   9.794
29357WAT      O88312   1.050   6.536   9.282
29357WAT     H188313   0.964   6.565   9.240
29357WAT     H288314   1.042   6.441   9.312
29358WAT      O88315   4.764   8.676   2.251
29358WAT     H188316   4.703   8.621   2.308
29358WAT     H288317   4.831   8.723   2.308
29359WAT      O88318   2.431   0.060   2.528
29359WAT     H188319   2.413   0.016   2.440
29359WAT     H288320   2.493   0.003   2.582
29360WAT      O88321   4.550   4.226   5.435
29360WAT     H188322   4.493   4.267   5.507
29360WAT     H288323   4.646   4.245   5.454
29361WAT      O88324   7.385   0.856   5.021
29361WAT     H188325   7.323   0.844   5.099
29361WAT     H288326   7.456   0.785   5.023
29362WAT      O88327   7.367   3.248   0.833
29362WAT     H188328   7.325   3.218   0.747
29362WAT     H288329   7.416   3.172   0.875
29363WAT      O88330   7.759   0.807   1.291
29363WAT     H188331   7.750   0.903   1.266
29363WAT     H288332   7.839   0.768   1.246
29364WAT      O88333   2.598   6.953   8.005
29364WAT     H188334   2.529   6.989   8.069
29364WAT     H288335   2.588   6.854   7.998
29365WAT      O88336   1.393   0.058   2.370
29365WAT     H188337   1.479   0.008   2.360
29365WAT     H288338   1.411   0.156   2.367
29366WAT      O88339   5.097   7.596   8.051
29366WAT     H188340   5.189   7.620   8.021
29366WAT     H288341   5.100   7.508   8.099
29367WAT      O88342   6.533   7.212   9.260
29367WAT     H188343   6.464   7.140   9.258
29367WAT     H288344   6.492   7.298   9.231
29368WAT      O88345   4.402   3.228   3.890
29368WAT     H188346   4.305   3.238   3.868
29368WAT     H288347   4.424   3.281   3.972
29369WAT      O88348   0.900   6.698   5.485
29369WAT     H188349   0.843   6.638   5.429
29369WAT     H288350   0.989   6.709   5.443
29370WAT      O88351   0.215   2.634   2.491
29370WAT     H188352   0.175   2.695   2.423
29370WAT     H288353   0.289   2.681   2.539
29371WAT      O88354   2.659   9.548   7.526
29371WAT     H188355   2.670   9.617   7.597
29371WAT     H288356   2.735   9.554   7.461
29372WAT      O88357   7.895   4.326   1.826
29372WAT     H188358   7.907   4.409   1.880
29372WAT     H288359   7.925   4.343   1.732
29373WAT      O88360   9.699   6.964   1.884
29373WAT     H188361   9.683   7.029   1.810
29373WAT     H288362   9.612   6.932   1.920
29374WAT      O88363   5.649   0.924   8.300
29374WAT     H188364   5.559   0.881   8.299
29374WAT     H288365   5.641   1.018   8.334
29375WAT      O88366   2.494   4.797   6.051
29375WAT     H188367   2.476   4.891   6.080
29375WAT     H288368   2.424   4.769   5.984
29376WAT      O88369   4.730   4.442   4.460
29376WAT     H188370   4.774   4.361   4.420
29376WAT     H288371   4.638   4.418   4.490
29377WAT      O88372   9.227   1.718   6.113
29377WAT     H188373   9.287   1.735   6.192
29377WAT     H288374   9.132   1.725   6.141
29378WAT      O88375   6.787   6.301   4.274
29378WAT     H188376   6.816   6.277   4.366
29378WAT     H288377   6.696   6.262   4.257
29379WAT      O88378   8.935   9.388   6.174
29379WAT     H188379   8.926   9.337   6.088
29379WAT     H288380   9.030   9.417   6.185
29380WAT      O88381   6.984   8.853   6.384
29380WAT     H188382   7.005   8.949   6.401
29380WAT     H288383   6.909   8.846   6.318
29381WAT      O88384   3.008   8.030   1.013
29381WAT     H188385   2.969   8.109   1.061
29381WAT     H288386   3.017   7.954   1.077
29382WAT      O88387   3.531   2.816   4.739
29382WAT     H188388   3.628   2.791   4.742
29382WAT     H288389   3.485   2.777   4.818
29383WAT      O88390   6.287   1.806   3.988
29383WAT     H188391   6.340   1.891   3.983
29383WAT     H288392   6.190   1.828   3.995
29384WAT      O88393   9.004   6.864   9.672
29384WAT     H188394   9.039   6.786   9.620
29384WAT     H288395   8.914   6.841   9.709
29385WAT      O88396   6.277   7.982   8.315
29385WAT     H188397   6.323   7.955   8.231
29385WAT     H288398   6.328   8.056   8.359
29386WAT      O88399   2.954   8.069   3.101
29386WAT     H188400   2.931   8.120   3.018
29386WAT     H288401   2.873   8.062   3.159
29387WAT      O88402   8.543   0.767   2.136
29387WAT     H188403   8.501   0.833   2.198
29387WAT     H288404   8.494   0.767   2.049
29388WAT      O88405   9.204   0.353   1.148
29388WAT     H188406   9.173   0.380   1.239
29388WAT     H288407   9.131   0.302   1.102
29389WAT      O88408   0.660   5.251   1.668
29389WAT     H188409   0.746   5.269   1.715
29389WAT     H288410   0.637   5.154   1.676
29390WAT      O88411   1.060   8.857   1.578
29390WAT     H188412   1.140   8.856   1.639
29390WAT     H288413   1.067   8.935   1.516
29391WAT      O88414   2.608   6.305   3.309
29391WAT     H188415   2.662   6.247   3.370
29391WAT     H288416   2.645   6.299   3.216
29392WAT      O88417   5.472   4.340   8.969
29392WAT     H188418   5.478   4.436   8.994
29392WAT     H288419   5.380   4.305   8.991
29393WAT      O88420   8.189   4.436   8.432
29393WAT     H188421   8.111   4.490   8.400
29393WAT     H288422   8.274   4.482   8.405
29394WAT      O88423   7.529   3.393   6.333
29394WAT     H188424   7.441   3.433   6.307
29394WAT     H288425   7.533   3.385   6.432
29395WAT      O88426   3.011   6.951   7.177
29395WAT     H188427   3.044   7.015   7.108
29395WAT     H288428   3.014   6.994   7.267
29396WAT      O88429   8.617   0.739   7.376
29396WAT     H188430   8.640   0.836   7.377
29396WAT     H288431   8.529   0.726   7.422
29397WAT      O88432   2.635   8.564   7.739
29397WAT     H188433   2.654   8.482   7.684
29397WAT     H288434   2.574   8.625   7.688
29398WAT      O88435   0.036   0.179   7.332
29398WAT     H188436  -0.015   0.139   7.256
29398WAT     H288437   0.133   0.183   7.307
29399WAT      O88438   5.013   9.381   3.723
29399WAT     H188439   5.023   9.448   3.796
29399WAT     H288440   5.088   9.314   3.728
29400WAT      O88441   8.534   7.818   5.537
29400WAT     H188442   8.555   7.849   5.629
29400WAT     H288443   8.514   7.898   5.479
29401WAT      O88444   4.677   3.146   8.273
29401WAT     H188445   4.710   3.160   8.366
29401WAT     H288446   4.738   3.191   8.209
29402WAT      O88447   9.590   1.617   8.076
29402WAT     H188448   9.522   1.608   8.149
29402WAT     H288449   9.622   1.526   8.048
29403WAT      O88450   5.249   6.354   8.647
29403WAT     H188451   5.229   6.311   8.735
29403WAT     H288452   5.324   6.419   8.658
29404WAT      O88453   3.057   5.453   9.227
29404WAT     H188454   3.055   5.488   9.134
29404WAT     H288455   3.072   5.528   9.291
29405WAT      O88456   4.513   3.294   7.232
29405WAT     H188457   4.492   3.301   7.134
29405WAT     H288458   4.540   3.200   7.253
29406WAT      O88459   0.317   0.922   8.585
29406WAT     H188460   0.385   0.995   8.595
29406WAT     H288461   0.363   0.838   8.557
29407WAT      O88462   8.216   0.674   9.349
29407WAT     H188463   8.225   0.744   9.419
29407WAT     H288464   8.161   0.709   9.273
29408WAT      O88465   9.234   7.357   8.924
29408WAT     H188466   9.260   7.287   8.990
29408WAT     H288467   9.315   7.388   8.874
29409WAT      O88468   6.384   4.781   3.204
29409WAT     H188469   6.339   4.870   3.197
29409WAT     H288470   6.378   4.748   3.298
29410WAT      O88471   9.444   9.617   2.972
29410WAT     H188472   9.488   9.693   3.020
29410WAT     H288473   9.468   9.531   3.017
29411WAT      O88474   6.987   1.046   6.053
29411WAT     H188475   6.990   0.956   6.095
29411WAT     H288476   6.969   1.037   5.955
29412WAT      O88477   3.527   3.817   8.764
29412WAT     H188478   3.466   3.775   8.697
29412WAT     H288479   3.608   3.760   8.777
29413WAT      O88480   4.419   3.277   4.852
29413WAT     H188481   4.425   3.208   4.779
29413WAT     H288482   4.453   3.364   4.818
29414WAT      O88483   0.417   4.196   2.676
29414WAT     H188484   0.401   4.187   2.774
29414WAT     H288485   0.348   4.146   2.625
29415WAT      O88486   3.280   1.086   6.655
29415WAT     H188487   3.215   1.017   6.625
29415WAT     H288488   3.242   1.178   6.641
29416WAT      O88489   4.407   5.755   1.095
29416WAT     H188490   4.448   5.684   1.153
29416WAT     H288491   4.468   5.774   1.018
29417WAT      O88492   4.950   6.011   2.378
29417WAT     H188493   4.910   5.942   2.318
29417WAT     H288494   4.983   5.967   2.462
29418WAT      O88495   5.260   7.089   5.053
29418WAT     H188496   5.239   6.998   5.089
29418WAT     H288497   5.348   7.087   5.005
29419WAT      O88498   8.900   7.343   0.681
29419WAT     H188499   8.823   7.332   0.619
29419WAT     H288500   8.983   7.362   0.627
29420WAT      O88501   2.529   5.300   2.966
29420WAT     H188502   2.464   5.368   3.000
29420WAT     H288503   2.557   5.324   2.873
29421WAT      O88504   9.191   3.238   1.533
29421WAT     H188505   9.267   3.290   1.492
29421WAT     H288506   9.145   3.295   1.601
29422WAT      O88507   8.951   2.704   7.964
29422WAT     H188508   8.871   2.650   7.936
29422WAT     H288509   8.996   2.659   8.041
29423WAT      O88510   7.687   4.427   8.307
29423WAT     H188511   7.724   4.450   8.398
29423WAT     H288512   7.591   4.455   8.302
29424WAT      O88513   0.260   3.629   3.990
29424WAT     H188514   0.187   3.698   3.992
29424WAT     H288515   0.239   3.561   3.919
29425WAT      O88516   0.870   5.059   2.987
29425WAT     H188517   0.882   4.964   3.016
29425WAT     H288518   0.773   5.078   2.971
29426WAT      O88519   1.905   3.601   3.619
29426WAT     H188520   1.861   3.654   3.546
29426WAT     H288521   1.958   3.526   3.580
29427WAT      O88522   3.196   0.979   2.043
29427WAT     H188523   3.130   1.040   1.999
29427WAT     H288524   3.276   1.031   2.071
29428WAT      O88525   7.323   3.410   5.846
29428WAT     H188526   7.342   3.507   5.862
29428WAT     H288527   7.274   3.399   5.759
29429WAT      O88528   6.807   7.370   7.752
29429WAT     H188529   6.906   7.359   7.752
29429WAT     H288530   6.784   7.467   7.764
29430WAT      O88531   9.046   7.464   6.854
29430WAT     H188532   9.035   7.562   6.837
29430WAT     H288533   8.969   7.414   6.816
29431WAT      O88534   8.411   6.234   2.480
29431WAT     H188535   8.438   6.150   2.526
29431WAT     H288536   8.339   6.215   2.414
29432WAT      O88537   1.501   3.729   3.722
29432WAT     H188538   1.446   3.767   3.796
29432WAT     H288539   1.590   3.775   3.719
29433WAT      O88540   0.615   7.695   6.233
29433WAT     H188541   0.578   7.669   6.144
29433WAT     H288542   0.631   7.794   6.235
29434WAT      O88543   6.916   5.186   3.688
29434WAT     H188544   6.878   5.118   3.625
29434WAT     H288545   6.997   5.229   3.647
29435WAT      O88546   3.388   8.555   3.091
29435WAT     H188547   3.425   8.570   3.183
29435WAT     H288548   3.374   8.457   3.076
29436WAT      O88549   3.322   8.479   9.421
29436WAT     H188550   3.373   8.424   9.487
29436WAT     H288551   3.228   8.445   9.414
29437WAT      O88552   0.981   1.848   1.104
29437WAT     H188553   1.000   1.824   1.008
29437WAT     H288554   0.989   1.947   1.115
29438WAT      O88555   9.202   5.692   7.394
29438WAT     H188556   9.227   5.602   7.429
29438WAT     H288557   9.103   5.695   7.379
29439WAT      O88558   9.491   8.625   1.404
29439WAT     H188559   9.537   8.710   1.431
29439WAT     H288560   9.560   8.558   1.375
29440WAT      O88561   5.216   4.634   2.828
29440WAT     H188562   5.277   4.671   2.758
29440WAT     H288563   5.237   4.538   2.843
29441WAT      O88564   3.304   0.706   8.046
29441WAT     H188565   3.348   0.678   8.131
29441WAT     H288566   3.309   0.631   7.980
29442WAT      O88567   8.860   4.867   7.711
29442WAT     H188568   8.899   4.776   7.706
29442WAT     H288569   8.916   4.931   7.657
29443WAT      O88570   8.542   9.721   1.700
29443WAT     H188571   8.628   9.706   1.652
29443WAT     H288572   8.466   9.684   1.646
29444WAT      O88573   7.684   3.322   0.538
29444WAT     H188574   7.774   3.358   0.563
29444WAT     H288575   7.617   3.348   0.607
29445WAT      O88576   1.248   1.329   5.239
29445WAT     H188577   1.177   1.308   5.172
29445WAT     H288578   1.265   1.428   5.240
29446WAT      O88579   5.094   7.248   5.471
29446WAT     H188580   5.040   7.184   5.416
29446WAT     H288581   5.167   7.287   5.414
29447WAT      O88582   6.473   3.390   8.366
29447WAT     H188583   6.501   3.446   8.288
29447WAT     H288584   6.506   3.431   8.451
29448WAT      O88585   5.506   3.702   0.557
29448WAT     H188586   5.541   3.609   0.571
29448WAT     H288587   5.556   3.744   0.481
29449WAT      O88588   2.299   5.826   9.812
29449WAT     H188589   2.296   5.765   9.891
29449WAT     H288590   2.300   5.921   9.844
29450WAT      O88591   3.104   4.767   1.929
29450WAT     H188592   3.187   4.823   1.927
29450WAT     H288593   3.119   4.688   1.988
29451WAT      O88594   6.381   6.397   3.293
29451WAT     H188595   6.460   6.366   3.346
29451WAT     H288596   6.384   6.497   3.284
29452WAT      O88597   4.187   0.238   9.204
29452WAT     H188598   4.249   0.175   9.157
29452WAT     H288599   4.118   0.271   9.140
29453WAT      O88600   2.025   3.197   6.676
29453WAT     H188601   1.958   3.143   6.726
29453WAT     H288602   2.098   3.226   6.738
29454WAT      O88603   4.789   7.421   5.855
29454WAT     H188604   4.808   7.434   5.952
29454WAT     H288605   4.765   7.509   5.814
29455WAT      O88606   7.635   8.700   6.092
29455WAT     H188607   7.576   8.619   6.095
29455WAT     H288608   7.666   8.721   6.185
29456WAT      O88609   0.747   4.796   6.305
29456WAT     H188610   0.804   4.812   6.386
29456WAT     H288611   0.722   4.699   6.302
29457WAT      O88612   8.791   6.420   2.578
29457WAT     H188613   8.843   6.354   2.633
29457WAT     H288614   8.727   6.469   2.636
29458WAT      O88615   3.562   6.176   5.919
29458WAT     H188616   3.521   6.161   5.829
29458WAT     H288617   3.507   6.132   5.989
29459WAT      O88618   1.537   8.106   8.884
29459WAT     H188619   1.551   8.154   8.971
29459WAT     H288620   1.447   8.062   8.885
29460WAT      O88621   5.129   8.193   7.186
29460WAT     H188622   5.130   8.273   7.126
29460WAT     H288623   5.151   8.221   7.280
29461WAT      O88624   5.822   8.674   6.236
29461WAT     H188625   5.796   8.758   6.189
29461WAT     H288626   5.838   8.693   6.333
29462WAT      O88627   1.440   3.665   1.807
29462WAT     H188628   1.497   3.588   1.781
29462WAT     H288629   1.497   3.745   1.825
29463WAT      O88630   2.464   3.838   6.133
29463WAT     H188631   2.558   3.861   6.157
29463WAT     H288632   2.445   3.744   6.161
29464WAT      O88633   0.117   3.474   4.261
29464WAT     H188634   0.207   3.435   4.247
29464WAT     H288635   0.059   3.454   4.181
29465WAT      O88636   4.248   3.359   2.706
29465WAT     H188637   4.252   3.367   2.607
29465WAT     H288638   4.329   3.312   2.739
29466WAT      O88639   6.939   2.416   0.451
29466WAT     H188640   7.031   2.406   0.489
29466WAT     H288641   6.877   2.355   0.499
29467WAT      O88642   0.955   2.606   3.206
29467WAT     H188643   1.042   2.560   3.222
29467WAT     H288644   0.967   2.705   3.216
29468WAT      O88645   1.032   9.563   1.942
29468WAT     H188646   1.061   9.658   1.953
29468WAT     H288647   1.094   9.503   1.992
29469WAT      O88648   0.246   8.778   0.835
29469WAT     H188649   0.208   8.820   0.752
29469WAT     H288650   0.344   8.762   0.822
29470WAT      O88651   5.083   7.566   8.941
29470WAT     H188652   5.162   7.568   9.002
29470WAT     H288653   5.071   7.656   8.898
29471WAT      O88654   3.247   5.082   8.990
29471WAT     H188655   3.155   5.043   8.981
29471WAT     H288656   3.310   5.030   8.932
29472WAT      O88657   3.466   1.081   1.513
29472WAT     H188658   3.560   1.075   1.549
29472WAT     H288659   3.418   1.155   1.559
29473WAT      O88660   5.361   3.195   3.731
29473WAT     H188661   5.302   3.275   3.722
29473WAT     H288662   5.309   3.113   3.705
29474WAT      O88663   7.677   6.732   9.888
29474WAT     H188664   7.651   6.771   9.976
29474WAT     H288665   7.749   6.788   9.846
29475WAT      O88666   2.572   4.629   2.803
29475WAT     H188667   2.478   4.614   2.834
29475WAT     H288668   2.632   4.642   2.882
29476WAT      O88669   2.793   0.128   6.164
29476WAT     H188670   2.730   0.070   6.113
29476WAT     H288671   2.751   0.217   6.181
29477WAT      O88672   3.096   4.488   8.251
29477WAT     H188673   3.186   4.471   8.213
29477WAT     H288674   3.031   4.422   8.213
29478WAT      O88675   0.229   2.534   2.973
29478WAT     H188676   0.136   2.571   2.976
29478WAT     H288677   0.289   2.589   3.031
29479WAT      O88678   8.652   9.212   5.907
29479WAT     H188679   8.742   9.255   5.909
29479WAT     H288680   8.653   9.130   5.963
29480WAT      O88681   3.936   1.715   0.889
29480WAT     H188682   3.992   1.796   0.907
29480WAT     H288683   3.991   1.633   0.902
29481WAT      O88684   9.528   5.349   3.333
29481WAT     H188685   9.483   5.414   3.271
29481WAT     H288686   9.625   5.373   3.340
29482WAT      O88687   8.186   2.536   0.565
29482WAT     H188688   8.152   2.624   0.533
29482WAT     H288689   8.219   2.483   0.487
29483WAT      O88690   3.603   2.792   3.010
29483WAT     H188691   3.645   2.775   3.099
29483WAT     H288692   3.608   2.708   2.955
29484WAT      O88693   0.641   7.593   5.201
29484WAT     H188694   0.578   7.627   5.270
29484WAT     H288695   0.593   7.581   5.114
29485WAT      O88696   9.832   4.299   4.055
29485WAT     H188697   9.780   4.256   3.982
29485WAT     H288698   9.847   4.233   4.128
29486WAT      O88699   6.567   8.872   1.254
29486WAT     H188700   6.503   8.907   1.186
29486WAT     H288701   6.542   8.778   1.279
29487WAT      O88702   3.575   6.430   7.498
29487WAT     H188703   3.633   6.449   7.577
29487WAT     H288704   3.484   6.402   7.530
29488WAT      O88705   4.613   2.190   7.439
29488WAT     H188706   4.575   2.099   7.424
29488WAT     H288707   4.652   2.225   7.353
29489WAT      O88708   7.477   3.445   7.599
29489WAT     H188709   7.517   3.370   7.652
29489WAT     H288710   7.388   3.417   7.564
29490WAT      O88711   3.170   8.619   2.956
29490WAT     H188712   3.145   8.716   2.959
29490WAT     H288713   3.265   8.609   2.982
29491WAT      O88714   9.776   7.984   0.659
29491WAT     H188715   9.740   7.965   0.750
29491WAT     H288716   9.758   7.907   0.599
29492WAT      O88717   8.982   9.293   2.016
29492WAT     H188718   9.037   9.377   2.014
29492WAT     H288719   8.886   9.317   2.009
29493WAT      O88720   7.343   4.692   2.918
29493WAT     H188721   7.417   4.639   2.960
29493WAT     H288722   7.318   4.768   2.978
29494WAT      O88723   6.159   1.060   0.904
29494WAT     H188724   6.246   1.108   0.903
29494WAT     H288725   6.160   0.989   0.974
29495WAT      O88726   3.567   3.307   2.360
29495WAT     H188727   3.493   3.307   2.293
29495WAT     H288728   3.564   3.392   2.413
29496WAT      O88729   2.286   8.790   8.682
29496WAT     H188730   2.271   8.888   8.688
29496WAT     H288731   2.371   8.772   8.632
29497WAT      O88732   3.806   5.852   0.119
29497WAT     H188733   3.788   5.814   0.210
29497WAT     H288734   3.896   5.894   0.117
29498WAT      O88735   6.948   0.384   3.728
29498WAT     H188736   6.971   0.295   3.689
29498WAT     H288737   6.907   0.442   3.658
29499WAT      O88738   0.119   6.600   6.706
29499WAT     H188739   0.133   6.699   6.713
29499WAT     H288740   0.069   6.579   6.622
29500WAT      O88741   5.556   0.375   6.816
29500WAT     H188742   5.459   0.393   6.829
29500WAT     H288743   5.581   0.291   6.864
29501WAT      O88744   4.275   2.809   8.286
29501WAT     H188745   4.324   2.737   8.335
29501WAT     H288746   4.326   2.895   8.293
29502WAT      O88747   4.282   1.186   0.106
29502WAT     H188748   4.218   1.109   0.098
29502WAT     H288749   4.358   1.160   0.165
29503WAT      O88750   0.434   7.308   1.103
29503WAT     H188751   0.374   7.291   1.181
29503WAT     H288752   0.528   7.281   1.127
29504WAT      O88753   8.931   0.299   0.634
29504WAT     H188754   8.890   0.232   0.696
29504WAT     H288755   8.864   0.369   0.611
29505WAT      O88756   4.011   0.474   6.276
29505WAT     H188757   4.001   0.384   6.317
29505WAT     H288758   3.920   0.509   6.250
29506WAT      O88759   8.190   1.710   3.381
29506WAT     H188760   8.189   1.694   3.282
29506WAT     H288761   8.280   1.685   3.417
29507WAT      O88762   3.895   1.281   9.253
29507WAT     H188763   3.959   1.211   9.223
29507WAT     H288764   3.831   1.242   9.320
29508WAT      O88765   1.091   5.739   6.452
29508WAT     H188766   1.175   5.719   6.503
29508WAT     H288767   1.013   5.698   6.499
29509WAT      O88768   1.798   0.158   4.171
29509WAT     H188769   1.885   0.157   4.121
29509WAT     H288770   1.806   0.098   4.251
29510WAT      O88771   7.200   7.883   3.947
29510WAT     H188772   7.106   7.862   3.921
29510WAT     H288773   7.201   7.968   4.000
29511WAT      O88774   6.310   5.505   3.249
29511WAT     H188775   6.267   5.419   3.278
29511WAT     H288776   6.332   5.500   3.152
29512WAT      O88777   8.725   3.954   9.833
29512WAT     H188778   8.727   3.890   9.756
29512WAT     H288779   8.766   4.040   9.805
29513WAT      O88780   9.582   0.053   5.210
29513WAT     H188781   9.538  -0.016   5.268
29513WAT     H288782   9.665   0.015   5.169
29514WAT      O88783   7.958   3.888   6.433
29514WAT     H188784   7.977   3.916   6.339
29514WAT     H288785   7.867   3.920   6.460
29515WAT      O88786   0.145   1.492   2.816
29515WAT     H188787   0.174   1.538   2.732
29515WAT     H288788   0.131   1.395   2.798
29516WAT      O88789   4.172   9.000   8.509
29516WAT     H188790   4.226   9.082   8.490
29516WAT     H288791   4.233   8.920   8.512
29517WAT      O88792   1.798   8.733   3.389
29517WAT     H188793   1.764   8.770   3.302
29517WAT     H288794   1.845   8.805   3.439
29518WAT      O88795   3.681   0.204   7.350
29518WAT     H188796   3.689   0.294   7.306
29518WAT     H288797   3.617   0.148   7.298
29519WAT      O88798   9.332   4.216   4.975
29519WAT     H188799   9.375   4.269   5.048
29519WAT     H288800   9.353   4.119   4.988
29520WAT      O88801   5.323   5.784   8.217
29520WAT     H188802   5.355   5.747   8.304
29520WAT     H288803   5.244   5.731   8.186
29521WAT      O88804   9.037   3.742   0.269
29521WAT     H188805   8.982   3.812   0.223
29521WAT     H288806   9.131   3.776   0.278
29522WAT      O88807   1.113   0.102   8.100
29522WAT     H188808   1.060   0.023   8.131
29522WAT     H288809   1.106   0.110   8.000
29523WAT      O88810   3.983   5.705   5.267
29523WAT     H188811   3.999   5.680   5.171
29523WAT     H288812   3.982   5.805   5.275
29524WAT      O88813   9.266   3.049   7.245
29524WAT     H188814   9.343   3.038   7.183
29524WAT     H288815   9.220   2.961   7.258
29525WAT      O88816   7.013   2.804   0.012
29525WAT     H188817   7.060   2.881  -0.031
29525WAT     H288818   6.915   2.812  -0.003
29526WAT      O88819   3.388   4.499   5.730
29526WAT     H188820   3.419   4.455   5.814
29526WAT     H288821   3.466   4.537   5.680
29527WAT      O88822   8.298   3.692   6.905
29527WAT     H188823   8.231   3.652   6.843
29527WAT     H288824   8.250   3.746   6.975
29528WAT      O88825   2.945   1.580   1.345
29528WAT     H188826   3.032   1.612   1.382
29528WAT     H288827   2.949   1.481   1.333
29529WAT      O88828   4.987   1.353   8.068
29529WAT     H188829   4.975   1.254   8.081
29529WAT     H288830   4.913   1.388   8.010
29530WAT      O88831   4.893   2.582   6.942
29530WAT     H188832   4.840   2.515   6.994
29530WAT     H288833   4.952   2.534   6.877
29531WAT      O88834   7.030   9.057   4.630
29531WAT     H188835   7.059   8.963   4.648
29531WAT     H288836   7.021   9.106   4.717
29532WAT      O88837   6.892   1.429   5.911
29532WAT     H188838   6.898   1.524   5.943
29532WAT     H288839   6.805   1.390   5.942
29533WAT      O88840   6.738   3.710   6.023
29533WAT     H188841   6.775   3.637   5.967
29533WAT     H288842   6.725   3.792   5.967
29534WAT      O88843   8.730   2.881   7.474
29534WAT     H188844   8.765   2.900   7.383
29534WAT     H288845   8.686   2.963   7.511
29535WAT      O88846   6.088   3.453   3.325
29535WAT     H188847   6.002   3.501   3.308
29535WAT     H288848   6.125   3.420   3.239
29536WAT      O88849   2.478   7.848   8.230
29536WAT     H188850   2.491   7.878   8.136
29536WAT     H288851   2.380   7.845   8.251
29537WAT      O88852   6.676   9.024   0.750
29537WAT     H188853   6.662   8.939   0.801
29537WAT     H288854   6.605   9.090   0.775
29538WAT      O88855   2.922   2.582   4.161
29538WAT     H188856   2.874   2.642   4.096
29538WAT     H288857   2.994   2.533   4.113
29539WAT      O88858   2.001   4.770   0.862
29539WAT     H188859   1.904   4.780   0.838
29539WAT     H288860   2.054   4.842   0.816
29540WAT      O88861   5.252   6.432   5.279
29540WAT     H188862   5.329   6.377   5.245
29540WAT     H288863   5.257   6.438   5.378
29541WAT      O88864   3.010   4.714   2.852
29541WAT     H188865   2.936   4.668   2.803
29541WAT     H288866   3.006   4.690   2.949
29542WAT      O88867   7.698   1.840   3.431
29542WAT     H188868   7.762   1.917   3.433
29542WAT     H288869   7.643   1.845   3.348
29543WAT      O88870   7.477   1.552   3.785
29543WAT     H188871   7.532   1.594   3.857
29543WAT     H288872   7.448   1.461   3.814
29544WAT      O88873   4.362   4.692   4.172
29544WAT     H188874   4.263   4.703   4.169
29544WAT     H288875   4.385   4.595   4.159
29545WAT      O88876   5.077   3.981   9.437
29545WAT     H188877   4.986   4.020   9.453
29545WAT     H288878   5.081   3.889   9.476
29546WAT      O88879   4.339   7.540   9.392
29546WAT     H188880   4.355   7.539   9.294
29546WAT     H288881   4.284   7.461   9.418
29547WAT      O88882   4.692   7.068   4.752
29547WAT     H188883   4.717   7.047   4.847
29547WAT     H288884   4.771   7.110   4.706
29548WAT      O88885   7.518   9.485   8.914
29548WAT     H188886   7.497   9.406   8.856
29548WAT     H288887   7.597   9.533   8.877
29549WAT      O88888   0.513   9.515   7.100
29549WAT     H188889   0.483   9.611   7.098
29549WAT     H288890   0.561   9.497   7.186
29550WAT      O88891   7.415   4.052   3.791
29550WAT     H188892   7.366   3.965   3.792
29550WAT     H288893   7.418   4.087   3.698
29551WAT      O88894   5.281   8.177   8.685
29551WAT     H188895   5.298   8.273   8.661
29551WAT     H288896   5.202   8.143   8.634
29552WAT      O88897   0.320   9.109   9.617
29552WAT     H188898   0.330   9.103   9.518
29552WAT     H288899   0.296   9.203   9.642
29553WAT      O88900   8.287   0.618   3.249
29553WAT     H188901   8.269   0.520   3.264
29553WAT     H288902   8.200   0.668   3.251
29554WAT      O88903   4.833   1.889   2.012
29554WAT     H188904   4.739   1.922   2.016
29554WAT     H288905   4.870   1.882   2.105
29555WAT      O88906   4.846   0.815   9.403
29555WAT     H188907   4.796   0.734   9.432
29555WAT     H288908   4.809   0.896   9.449
29556WAT      O88909   0.760   6.129   9.061
29556WAT     H188910   0.661   6.119   9.056
29556WAT     H288911   0.804   6.046   9.029
29557WAT      O88912   5.927   0.124   2.236
29557WAT     H188913   6.020   0.120   2.273
29557WAT     H288914   5.867   0.167   2.303
29558WAT      O88915   6.736   1.894   2.459
29558WAT     H188916   6.688   1.825   2.513
29558WAT     H288917   6.698   1.896   2.366
29559WAT      O88918   9.574   3.611   8.954
29559WAT     H188919   9.520   3.616   9.039
29559WAT     H288920   9.638   3.534   8.961
29560WAT      O88921   4.638   0.628   8.752
29560WAT     H188922   4.639   0.693   8.676
29560WAT     H288923   4.729   0.622   8.792
29561WAT      O88924   9.187   0.408   5.104
29561WAT     H188925   9.258   0.386   5.170
29561WAT     H288926   9.211   0.369   5.015
29562WAT      O88927   4.085   6.122   2.268
29562WAT     H188928   4.142   6.200   2.239
29562WAT     H288929   4.043   6.142   2.356
29563WAT      O88930   4.268   1.793   2.885
29563WAT     H188931   4.320   1.864   2.932
29563WAT     H288932   4.170   1.806   2.904
29564WAT      O88933   0.302   4.909   1.506
29564WAT     H188934   0.316   4.956   1.593
29564WAT     H288935   0.211   4.867   1.505
29565WAT      O88936   1.182   9.315   4.313
29565WAT     H188937   1.120   9.237   4.317
29565WAT     H288938   1.226   9.327   4.402
29566WAT      O88939   6.492   3.406   2.824
29566WAT     H188940   6.591   3.400   2.834
29566WAT     H288941   6.452   3.438   2.910
29567WAT      O88942   8.196   4.602   2.291
29567WAT     H188943   8.126   4.537   2.320
29567WAT     H288944   8.225   4.581   2.198
29568WAT      O88945   2.809   2.464   6.433
29568WAT     H188946   2.808   2.406   6.515
29568WAT     H288947   2.904   2.475   6.402
29569WAT      O88948   1.599   3.148   9.163
29569WAT     H188949   1.593   3.061   9.113
29569WAT     H288950   1.652   3.213   9.109
29570WAT      O88951   7.236   4.045   2.897
29570WAT     H188952   7.206   4.140   2.888
29570WAT     H288953   7.157   3.984   2.898
29571WAT      O88954   2.427   7.561   8.186
29571WAT     H188955   2.452   7.656   8.205
29571WAT     H288956   2.405   7.551   8.089
29572WAT      O88957   9.172   8.600   9.561
29572WAT     H188958   9.182   8.697   9.538
29572WAT     H288959   9.219   8.581   9.647
29573WAT      O88960   2.829   6.297   1.975
29573WAT     H188961   2.841   6.244   2.059
29573WAT     H288962   2.849   6.239   1.896
29574WAT      O88963   9.761   0.844   3.783
29574WAT     H188964   9.817   0.916   3.823
29574WAT     H288965   9.675   0.883   3.750
29575WAT      O88966   8.775   8.767   2.498
29575WAT     H188967   8.749   8.739   2.591
29575WAT     H288968   8.807   8.862   2.499
29576WAT      O88969   4.933   4.028   2.082
29576WAT     H188970   4.855   3.972   2.055
29576WAT     H288971   4.943   4.026   2.181
29577WAT      O88972   2.120   6.203   0.645
29577WAT     H188973   2.213   6.238   0.653
29577WAT     H288974   2.071   6.254   0.574
29578WAT      O88975   0.955   5.289   3.971
29578WAT     H188976   0.924   5.320   4.061
29578WAT     H288977   1.005   5.362   3.926
29579WAT      O88978   7.192   5.323   6.365
29579WAT     H188979   7.176   5.419   6.345
29579WAT     H288980   7.206   5.311   6.463
29580WAT      O88981   7.381   4.149   5.716
29580WAT     H188982   7.435   4.219   5.762
29580WAT     H288983   7.290   4.185   5.695
29581WAT      O88984   8.260   3.671   6.154
29581WAT     H188985   8.297   3.591   6.106
29581WAT     H288986   8.185   3.642   6.213
29582WAT      O88987   5.477   0.532   2.298
29582WAT     H188988   5.441   0.585   2.375
29582WAT     H288989   5.469   0.586   2.214
29583WAT      O88990   4.407   1.181   9.251
29583WAT     H188991   4.352   1.122   9.310
29583WAT     H288992   4.445   1.127   9.176
29584WAT      O88993   6.360   0.347   6.316
29584WAT     H188994   6.395   0.344   6.222
29584WAT     H288995   6.263   0.323   6.316
29585WAT      O88996   8.971   2.227   1.270
29585WAT     H188997   9.019   2.195   1.352
29585WAT     H288998   8.909   2.155   1.238
29586WAT      O88999   6.099   9.606   0.963
29586WAT     H189000   6.178   9.570   1.013
29586WAT     H289001   6.085   9.702   0.987
29587WAT      O89002   2.880   9.817   6.945
29587WAT     H189003   2.823   9.866   6.879
29587WAT     H289004   2.927   9.883   7.004
29588WAT      O89005   1.585   6.971   5.736
29588WAT     H189006   1.551   6.885   5.698
29588WAT     H289007   1.652   6.953   5.807
29589WAT      O89008   1.088   3.078   8.115
29589WAT     H189009   1.181   3.086   8.079
29589WAT     H289010   1.038   3.163   8.098
29590WAT      O89011   7.413   2.953   4.629
29590WAT     H189012   7.512   2.938   4.634
29590WAT     H289013   7.385   3.018   4.700
29591WAT      O89014   8.824   4.093   0.389
29591WAT     H189015   8.878   4.147   0.455
29591WAT     H289016   8.863   4.104   0.298
29592WAT      O89017   9.174   8.281   4.282
29592WAT     H189018   9.263   8.239   4.270
29592WAT     H289019   9.181   8.352   4.353
29593WAT      O89020   9.440   7.361   5.191
29593WAT     H189021   9.434   7.296   5.114
29593WAT     H289022   9.391   7.324   5.269
29594WAT      O89023   9.156   5.648   6.827
29594WAT     H189024   9.162   5.710   6.748
29594WAT     H289025   9.106   5.566   6.801
29595WAT      O89026   9.317   6.117   9.857
29595WAT     H189027   9.382   6.042   9.858
29595WAT     H289028   9.357   6.196   9.810
29596WAT      O89029   4.331   6.591   6.788
29596WAT     H189030   4.367   6.669   6.839
29596WAT     H289031   4.402   6.555   6.727
29597WAT      O89032   1.439   1.371   3.031
29597WAT     H189033   1.466   1.363   2.935
29597WAT     H289034   1.363   1.435   3.039
29598WAT      O89035   1.990   2.125   5.103
29598WAT     H189036   1.947   2.197   5.049
29598WAT     H289037   1.946   2.037   5.083
29599WAT      O89038   1.251   9.083   8.373
29599WAT     H189039   1.300   9.168   8.386
29599WAT     H289040   1.229   9.071   8.276
29600WAT      O89041   8.679   0.102   5.763
29600WAT     H189042   8.615   0.040   5.718
29600WAT     H289043   8.633   0.150   5.838
29601WAT      O89044   0.783   8.109   5.424
29601WAT     H189045   0.790   8.083   5.328
29601WAT     H289046   0.801   8.207   5.433
29602WAT      O89047   6.700   3.115   4.885
29602WAT     H189048   6.611   3.137   4.924
29602WAT     H289049   6.706   3.016   4.868
29603WAT      O89050   5.669   1.252   2.201
29603WAT     H189051   5.595   1.186   2.185
29603WAT     H289052   5.672   1.276   2.298
29604WAT      O89053   0.133   5.443   7.311
29604WAT     H189054   0.175   5.534   7.313
29604WAT     H289055   0.151   5.396   7.397
29605WAT      O89056   0.245   7.319   8.764
29605WAT     H189057   0.193   7.275   8.838
29605WAT     H289058   0.183   7.372   8.706
29606WAT      O89059   4.665   4.791   3.331
29606WAT     H189060   4.583   4.847   3.345
29606WAT     H289061   4.741   4.850   3.303
29607WAT      O89062   4.206   5.487   9.167
29607WAT     H189063   4.200   5.586   9.183
29607WAT     H289064   4.301   5.458   9.178
29608WAT      O89065   3.698   5.329   5.884
29608WAT     H189066   3.606   5.298   5.860
29608WAT     H289067   3.734   5.386   5.810
29609WAT      O89068   2.081   7.068   2.013
29609WAT     H189069   2.181   7.075   2.016
29609WAT     H289070   2.041   7.159   2.009
29610WAT      O89071   2.295   2.491   3.830
29610WAT     H189072   2.393   2.476   3.847
29610WAT     H289073   2.271   2.457   3.739
29611WAT      O89074   1.578   7.861   0.015
29611WAT     H189075   1.638   7.799  -0.035
29611WAT     H289076   1.625   7.896   0.096
29612WAT      O89077   4.903   3.984   2.376
29612WAT     H189078   4.960   4.024   2.448
29612WAT     H289079   4.810   3.974   2.409
29613WAT      O89080   0.185   2.649   6.227
29613WAT     H189081   0.280   2.678   6.235
29613WAT     H289082   0.172   2.562   6.274
29614WAT      O89083   4.624   2.258   8.411
29614WAT     H189084   4.655   2.190   8.477
29614WAT     H289085   4.593   2.340   8.461
29615WAT      O89086   8.668   8.825   6.365
29615WAT     H189087   8.657   8.732   6.401
29615WAT     H289088   8.739   8.825   6.295
29616WAT      O89089   4.161   8.165   7.674
29616WAT     H189090   4.115   8.233   7.731
29616WAT     H289091   4.205   8.210   7.597
29617WAT      O89092   6.772   7.628   1.786
29617WAT     H189093   6.719   7.647   1.703
29617WAT     H289094   6.865   7.663   1.776
29618WAT      O89095   6.968   9.779   9.540
29618WAT     H189096   6.935   9.828   9.459
29618WAT     H289097   6.893   9.770   9.606
29619WAT      O89098   6.748   2.614   8.544
29619WAT     H189099   6.812   2.630   8.470
29619WAT     H289100   6.798   2.590   8.628
29620WAT      O89101   8.655   1.510   5.418
29620WAT     H189102   8.726   1.504   5.488
29620WAT     H289103   8.570   1.543   5.460
29621WAT      O89104   1.643   8.836   0.768
29621WAT     H189105   1.683   8.744   0.769
29621WAT     H289106   1.554   8.834   0.723
29622WAT      O89107   5.392   1.845   3.676
29622WAT     H189108   5.308   1.826   3.625
29622WAT     H289109   5.378   1.928   3.732
29623WAT      O89110   1.192   7.799   7.874
29623WAT     H189111   1.199   7.860   7.953
29623WAT     H289112   1.228   7.709   7.899
29624WAT      O89113   0.657   1.800   0.975
29624WAT     H189114   0.706   1.884   0.997
29624WAT     H289115   0.720   1.723   0.976
29625WAT      O89116   0.781   8.072   4.109
29625WAT     H189117   0.827   7.989   4.078
29625WAT     H289118   0.844   8.127   4.163
29626WAT      O89119   5.519   0.588   3.592
29626WAT     H189120   5.556   0.566   3.683
29626WAT     H289121   5.542   0.515   3.528
29627WAT      O89122   7.971   0.455   4.012
29627WAT     H189123   8.039   0.492   4.075
29627WAT     H289124   7.890   0.426   4.064
29628WAT      O89125   1.704   1.809   6.034
29628WAT     H189126   1.762   1.841   5.959
29628WAT     H289127   1.752   1.736   6.084
29629WAT      O89128   8.322   8.627   2.206
29629WAT     H189129   8.395   8.693   2.224
29629WAT     H289130   8.284   8.596   2.293
29630WAT      O89131   5.596   9.634   5.028
29630WAT     H189132   5.691   9.636   5.057
29630WAT     H289133   5.585   9.689   4.945
29631WAT      O89134   9.347   9.009   0.810
29631WAT     H189135   9.356   8.985   0.906
29631WAT     H289136   9.266   8.965   0.771
29632WAT      O89137   3.394   2.337   3.321
29632WAT     H189138   3.350   2.333   3.231
29632WAT     H289139   3.426   2.430   3.338
29633WAT      O89140   1.220   2.757   7.914
29633WAT     H189141   1.238   2.703   7.997
29633WAT     H289142   1.233   2.699   7.833
29634WAT      O89143   5.389   2.039   4.541
29634WAT     H189144   5.418   2.030   4.637
29634WAT     H289145   5.439   1.974   4.485
29635WAT      O89146   4.335   4.227   7.294
29635WAT     H189147   4.345   4.152   7.359
29635WAT     H289148   4.295   4.192   7.209
29636WAT      O89149   7.558   7.563   6.456
29636WAT     H189150   7.566   7.495   6.529
29636WAT     H289151   7.646   7.607   6.441
29637WAT      O89152   7.208   2.169   0.452
29637WAT     H189153   7.240   2.200   0.542
29637WAT     H289154   7.160   2.082   0.462
29638WAT      O89155   1.736   2.978   2.875
29638WAT     H189156   1.753   3.045   2.947
29638WAT     H289157   1.668   3.014   2.812
29639WAT      O89158   3.475   1.746   4.905
29639WAT     H189159   3.442   1.652   4.910
29639WAT     H289160   3.430   1.802   4.974
29640WAT      O89161   1.596   1.602   2.770
29640WAT     H189162   1.659   1.659   2.717
29640WAT     H289163   1.611   1.505   2.748
29641WAT      O89164   6.907   5.054   6.013
29641WAT     H189165   6.992   5.077   6.060
29641WAT     H289166   6.829   5.080   6.070
29642WAT      O89167   8.809   3.928   5.906
29642WAT     H189168   8.809   3.928   5.806
29642WAT     H289169   8.738   3.866   5.940
29643WAT      O89170   6.872   0.462   9.581
29643WAT     H189171   6.790   0.519   9.582
29643WAT     H289172   6.939   0.497   9.646
29644WAT      O89173   0.178   7.877   6.444
29644WAT     H189174   0.222   7.953   6.491
29644WAT     H289175   0.154   7.806   6.510
29645WAT      O89176   4.891   1.044   3.436
29645WAT     H189177   4.807   1.040   3.380
29645WAT     H289178   4.928   0.952   3.446
29646WAT      O89179   8.100   7.985   1.186
29646WAT     H189180   8.000   7.977   1.178
29646WAT     H289181   8.124   8.072   1.228
29647WAT      O89182   0.156   4.879   0.859
29647WAT     H189183   0.216   4.941   0.910
29647WAT     H289184   0.211   4.816   0.805
29648WAT      O89185   9.302   3.608   6.228
29648WAT     H189186   9.297   3.514   6.263
29648WAT     H289187   9.262   3.670   6.294
29649WAT      O89188   9.319   0.176   0.555
29649WAT     H189189   9.326   0.210   0.649
29649WAT     H289190   9.410   0.152   0.521
29650WAT      O89191   0.132   0.688   5.945
29650WAT     H189192   0.178   0.605   5.978
29650WAT     H289193   0.197   0.742   5.892
29651WAT      O89194   1.994   2.236   9.127
29651WAT     H189195   2.018   2.268   9.035
29651WAT     H289196   1.901   2.201   9.127
29652WAT      O89197   2.699   2.536   1.306
29652WAT     H189198   2.605   2.524   1.339
29652WAT     H289199   2.738   2.618   1.347
29653WAT      O89200   6.487   3.286   3.486
29653WAT     H189201   6.459   3.340   3.407
29653WAT     H289202   6.437   3.199   3.487
29654WAT      O89203   4.924   5.119   2.896
29654WAT     H189204   5.018   5.155   2.893
29654WAT     H289205   4.924   5.031   2.943
29655WAT      O89206   5.243   3.755   8.793
29655WAT     H189207   5.207   3.823   8.729
29655WAT     H289208   5.223   3.784   8.887
29656WAT      O89209   3.197   6.484   1.491
29656WAT     H189210   3.151   6.529   1.415
29656WAT     H289211   3.294   6.509   1.490
29657WAT      O89212   9.374   3.401   6.386
29657WAT     H189213   9.437   3.325   6.370
29657WAT     H289214   9.389   3.437   6.479
29658WAT      O89215   1.568   3.854   2.061
29658WAT     H189216   1.612   3.820   1.978
29658WAT     H289217   1.580   3.788   2.136
29659WAT      O89218   5.279   3.969   6.527
29659WAT     H189219   5.278   3.957   6.428
29659WAT     H289220   5.211   3.908   6.568
29660WAT      O89221   9.279   4.825   7.424
29660WAT     H189222   9.223   4.898   7.463
29660WAT     H289223   9.245   4.801   7.334
29661WAT      O89224   4.684   9.619   3.725
29661WAT     H189225   4.753   9.672   3.678
29661WAT     H289226   4.701   9.621   3.824
29662WAT      O89227   3.769   8.260   0.323
29662WAT     H189228   3.845   8.273   0.386
29662WAT     H289229   3.757   8.163   0.304
29663WAT      O89230   8.128   5.771   9.012
29663WAT     H189231   8.088   5.856   8.976
29663WAT     H289232   8.056   5.716   9.054
29664WAT      O89233   0.808   7.369   0.488
29664WAT     H189234   0.882   7.397   0.428
29664WAT     H289235   0.777   7.447   0.542
29665WAT      O89236   8.512   8.056   1.800
29665WAT     H189237   8.483   8.107   1.881
29665WAT     H289238   8.432   8.018   1.754
29666WAT      O89239   4.790   5.483   0.922
29666WAT     H189240   4.830   5.441   0.840
29666WAT     H289241   4.842   5.456   1.003
29667WAT      O89242   5.803   0.570   4.086
29667WAT     H189243   5.831   0.618   4.169
29667WAT     H289244   5.705   0.552   4.089
29668WAT      O89245   0.149   4.321   7.051
29668WAT     H189246   0.143   4.301   6.953
29668WAT     H289247   0.245   4.331   7.077
29669WAT      O89248   6.396   9.316   7.929
29669WAT     H189249   6.393   9.407   7.889
29669WAT     H289250   6.308   9.296   7.972
29670WAT      O89251   9.201   7.141   2.537
29670WAT     H189252   9.235   7.058   2.581
29670WAT     H289253   9.128   7.117   2.473
29671WAT      O89254   1.862   7.491   8.010
29671WAT     H189255   1.934   7.436   8.054
29671WAT     H289256   1.902   7.573   7.971
29672WAT      O89257   7.058   2.748   4.151
29672WAT     H189258   7.129   2.686   4.118
29672WAT     H289259   7.021   2.714   4.237
29673WAT      O89260   8.026   9.698   6.416
29673WAT     H189261   8.018   9.797   6.416
29673WAT     H289262   7.969   9.660   6.343
29674WAT      O89263   2.911   6.680   7.854
29674WAT     H189264   2.922   6.584   7.828
29674WAT     H289265   2.906   6.737   7.772
29675WAT      O89266   3.821   2.105   8.789
29675WAT     H189267   3.906   2.135   8.832
29675WAT     H289268   3.746   2.163   8.820
29676WAT      O89269   5.258   9.151   5.253
29676WAT     H189270   5.211   9.218   5.310
29676WAT     H289271   5.219   9.061   5.269
29677WAT      O89272   5.441   9.349   3.259
29677WAT     H189273   5.366   9.283   3.265
29677WAT     H289274   5.528   9.301   3.256
29678WAT      O89275   0.532   1.823   5.305
29678WAT     H189276   0.519   1.882   5.384
29678WAT     H289277   0.496   1.732   5.324
29679WAT      O89278   0.249   1.533   4.911
29679WAT     H189279   0.344   1.503   4.918
29679WAT     H289280   0.188   1.458   4.937
29680WAT      O89281   3.568   5.865   4.574
29680WAT     H189282   3.545   5.779   4.528
29680WAT     H289283   3.638   5.913   4.522
29681WAT      O89284   8.462   3.285   8.836
29681WAT     H189285   8.540   3.337   8.803
29681WAT     H289286   8.461   3.284   8.936
29682WAT      O89287   6.145   0.649   5.488
29682WAT     H189288   6.084   0.644   5.410
29682WAT     H289289   6.116   0.583   5.558
29683WAT      O89290   0.495   5.429   8.798
29683WAT     H189291   0.428   5.356   8.806
29683WAT     H289292   0.546   5.420   8.713
29684WAT      O89293   7.278   7.826   0.433
29684WAT     H189294   7.246   7.914   0.398
29684WAT     H289295   7.332   7.779   0.363
29685WAT      O89296   3.092   0.487   0.377
29685WAT     H189297   2.995   0.490   0.401
29685WAT     H289298   3.132   0.402   0.411
29686WAT      O89299   7.612   8.704   4.367
29686WAT     H189300   7.599   8.631   4.299
29686WAT     H289301   7.661   8.780   4.325
29687WAT      O89302   9.772   7.489   3.315
29687WAT     H189303   9.863   7.455   3.337
29687WAT     H289304   9.778   7.561   3.245
29688WAT      O89305   2.486   9.260   0.736
29688WAT     H189306   2.508   9.234   0.642
29688WAT     H289307   2.519   9.353   0.752
29689WAT      O89308   6.416   6.419   4.993
29689WAT     H189309   6.477   6.355   5.039
29689WAT     H289310   6.342   6.444   5.055
29690WAT      O89311   2.163   6.737   0.814
29690WAT     H189312   2.121   6.717   0.903
29690WAT     H289313   2.135   6.668   0.747
29691WAT      O89314   2.292   0.418   7.249
29691WAT     H189315   2.314   0.322   7.267
29691WAT     H289316   2.366   0.476   7.283
29692WAT      O89317   2.236   9.620   6.657
29692WAT     H189318   2.170   9.629   6.583
29692WAT     H289319   2.307   9.554   6.630
29693WAT      O89320   8.097   5.756   4.862
29693WAT     H189321   8.019   5.734   4.804
29693WAT     H289322   8.145   5.836   4.824
29694WAT      O89323   9.189   2.491   9.196
29694WAT     H189324   9.097   2.529   9.210
29694WAT     H289325   9.225   2.525   9.109
29695WAT      O89326   8.689   1.141   1.756
29695WAT     H189327   8.773   1.195   1.757
29695WAT     H289328   8.702   1.060   1.699
29696WAT      O89329   3.635   4.185   4.888
29696WAT     H189330   3.549   4.205   4.935
29696WAT     H289331   3.653   4.257   4.821
29697WAT      O89332   3.656   5.896   8.403
29697WAT     H189333   3.557   5.901   8.388
29697WAT     H289334   3.677   5.923   8.497
29698WAT      O89335   9.081   7.686   3.263
29698WAT     H189336   9.105   7.757   3.197
29698WAT     H289337   8.992   7.647   3.238
29699WAT      O89338   6.613   8.442   1.450
29699WAT     H189339   6.684   8.471   1.514
29699WAT     H289340   6.536   8.403   1.499
29700WAT      O89341   7.277   9.061   2.563
29700WAT     H189342   7.239   9.151   2.541
29700WAT     H289343   7.268   9.044   2.661
29701WAT      O89344   6.464   5.957   0.928
29701WAT     H189345   6.516   5.948   1.013
29701WAT     H289346   6.486   5.881   0.867
29702WAT      O89347   2.138   0.520   0.362
29702WAT     H189348   2.153   0.444   0.425
29702WAT     H289349   2.085   0.592   0.408
29703WAT      O89350   9.864   1.891   1.354
29703WAT     H189351   9.869   1.885   1.454
29703WAT     H289352   9.769   1.883   1.325
29704WAT      O89353   7.965   3.625   3.534
29704WAT     H189354   7.951   3.711   3.486
29704WAT     H289355   8.026   3.566   3.481
29705WAT      O89356   3.406   7.014   2.929
29705WAT     H189357   3.464   7.089   2.962
29705WAT     H289358   3.416   7.006   2.830
29706WAT      O89359   0.683   2.574   6.180
29706WAT     H189360   0.734   2.560   6.265
29706WAT     H289361   0.590   2.603   6.201
29707WAT      O89362   9.647   4.385   0.797
29707WAT     H189363   9.581   4.318   0.830
29707WAT     H289364   9.702   4.417   0.875
29708WAT      O89365   9.776   2.144   3.829
29708WAT     H189366   9.830   2.181   3.904
29708WAT     H289367   9.835   2.088   3.770
29709WAT      O89368   9.196   0.993   2.619
29709WAT     H189369   9.255   0.989   2.699
29709WAT     H289370   9.231   1.062   2.555
29710WAT      O89371   6.316   1.999   0.421
29710WAT     H189372   6.408   2.034   0.408
29710WAT     H289373   6.310   1.906   0.386
29711WAT      O89374   8.641   2.398   8.727
29711WAT     H189375   8.678   2.368   8.639
29711WAT     H289376   8.714   2.401   8.794
29712WAT      O89377   2.768   7.562   9.661
29712WAT     H189378   2.845   7.595   9.606
29712WAT     H289379   2.688   7.548   9.602
29713WAT      O89380   6.365   2.060   3.924
29713WAT     H189381   6.325   2.131   3.866
29713WAT     H289382   6.456   2.089   3.953
29714WAT      O89383   0.046   1.956   3.669
29714WAT     H189384   0.104   1.910   3.737
29714WAT     H289385   0.100   2.024   3.620
29715WAT      O89386   0.750   9.028   9.412
29715WAT     H189387   0.807   9.056   9.490
29715WAT     H289388   0.709   8.939   9.431
29716WAT      O89389   9.836   8.202   5.420
29716WAT     H189390   9.929   8.164   5.414
29716WAT     H289391   9.791   8.193   5.332
29717WAT      O89392   9.603   5.605   8.814
29717WAT     H189393   9.540   5.527   8.807
29717WAT     H289394   9.583   5.656   8.897
29718WAT      O89395   4.593   7.827   2.130
29718WAT     H189396   4.571   7.780   2.215
29718WAT     H289397   4.599   7.926   2.147
29719WAT      O89398   2.901   0.171   1.972
29719WAT     H189399   2.887   0.176   1.873
29719WAT     H289400   2.997   0.149   1.991
29720WAT      O89401   8.723   5.029   5.882
29720WAT     H189402   8.625   5.050   5.889
29720WAT     H289403   8.740   4.938   5.922
29721WAT      O89404   4.384   1.234   1.532
29721WAT     H189405   4.481   1.249   1.549
29721WAT     H289406   4.348   1.168   1.598
29722WAT      O89407   1.460   0.744   7.445
29722WAT     H189408   1.409   0.658   7.437
29722WAT     H289409   1.527   0.750   7.372
29723WAT      O89410   8.971   0.293   0.363
29723WAT     H189411   8.979   0.391   0.344
29723WAT     H289412   8.969   0.278   0.462
29724WAT      O89413   0.219   7.082   6.483
29724WAT     H189414   0.237   7.077   6.581
29724WAT     H289415   0.289   7.031   6.434
29725WAT      O89416   5.613   2.891   9.124
29725WAT     H189417   5.702   2.910   9.166
29725WAT     H289418   5.540   2.910   9.190
29726WAT      O89419   3.417   5.178   4.222
29726WAT     H189420   3.442   5.265   4.265
29726WAT     H289421   3.498   5.120   4.214
29727WAT      O89422   2.503   0.584   4.433
29727WAT     H189423   2.538   0.495   4.463
29727WAT     H289424   2.485   0.641   4.513
29728WAT      O89425   1.518   1.496   4.718
29728WAT     H189426   1.487   1.430   4.650
29728WAT     H289427   1.515   1.455   4.809
29729WAT      O89428   0.758   1.344   4.019
29729WAT     H189429   0.818   1.396   4.080
29729WAT     H289430   0.800   1.256   3.998
29730WAT      O89431   2.529   0.984   1.676
29730WAT     H189432   2.536   1.017   1.770
29730WAT     H289433   2.471   1.047   1.624
29731WAT      O89434   6.795   5.719   0.915
29731WAT     H189435   6.815   5.815   0.933
29731WAT     H289436   6.715   5.691   0.969
29732WAT      O89437   6.945   7.166   7.081
29732WAT     H189438   6.938   7.170   6.981
29732WAT     H289439   7.033   7.203   7.110
29733WAT      O89440   3.341   5.950   6.548
29733WAT     H189441   3.342   5.958   6.448
29733WAT     H289442   3.434   5.952   6.583
29734WAT      O89443   3.360   7.171   7.116
29734WAT     H189444   3.306   7.228   7.178
29734WAT     H289445   3.378   7.083   7.159
29735WAT      O89446   9.779   6.256   7.624
29735WAT     H189447   9.782   6.351   7.654
29735WAT     H289448   9.692   6.237   7.579
29736WAT      O89449   6.880   9.134   9.680
29736WAT     H189450   6.823   9.066   9.726
29736WAT     H289451   6.975   9.106   9.683
29737WAT      O89452   1.984   5.016   9.787
29737WAT     H189453   1.972   4.967   9.874
29737WAT     H289454   1.916   5.089   9.780
29738WAT      O89455   0.068   1.745   0.904
29738WAT     H189456   0.084   1.735   1.002
29738WAT     H289457   0.091   1.660   0.857
29739WAT      O89458   5.314   2.671   7.755
29739WAT     H189459   5.291   2.753   7.808
29739WAT     H289460   5.382   2.695   7.686
29740WAT      O89461   1.084   1.173   0.750
29740WAT     H189462   1.098   1.272   0.743
29740WAT     H289463   0.991   1.150   0.723
29741WAT      O89464   7.939   7.455   6.664
29741WAT     H189465   7.992   7.404   6.596
29741WAT     H289466   7.925   7.398   6.745
29742WAT      O89467   4.814   3.917   0.733
29742WAT     H189468   4.767   3.888   0.649
29742WAT     H289469   4.898   3.965   0.709
29743WAT      O89470   7.292   2.417   1.032
29743WAT     H189471   7.347   2.468   0.966
29743WAT     H289472   7.352   2.367   1.094
29744WAT      O89473   5.846   9.469   1.044
29744WAT     H189474   5.932   9.485   0.994
29744WAT     H289475   5.867   9.454   1.141
29745WAT      O89476   7.054   2.859   3.310
29745WAT     H189477   7.117   2.936   3.309
29745WAT     H289478   7.097   2.781   3.356
29746WAT      O89479   8.584   2.815   5.284
29746WAT     H189480   8.623   2.795   5.374
29746WAT     H289481   8.657   2.840   5.221
29747WAT      O89482   8.874   6.485   1.050
29747WAT     H189483   8.889   6.493   0.951
29747WAT     H289484   8.954   6.520   1.098
29748WAT      O89485   5.373   0.920   2.564
29748WAT     H189486   5.299   0.900   2.628
29748WAT     H289487   5.334   0.953   2.478
29749WAT      O89488   3.665   1.596   5.934
29749WAT     H189489   3.743   1.588   5.996
29749WAT     H289490   3.677   1.676   5.875
29750WAT      O89491   7.351   3.156   8.466
29750WAT     H189492   7.362   3.078   8.405
29750WAT     H289493   7.424   3.156   8.535
29751WAT      O89494   3.678   9.313   3.302
29751WAT     H189495   3.735   9.392   3.322
29751WAT     H289496   3.644   9.320   3.208
29752WAT      O89497   7.032   2.344   1.089
29752WAT     H189498   7.123   2.372   1.059
29752WAT     H289499   7.023   2.245   1.082
29753WAT      O89500   9.063   2.117   2.814
29753WAT     H189501   8.993   2.131   2.744
29753WAT     H289502   9.153   2.110   2.771
29754WAT      O89503   8.928   2.702   6.319
29754WAT     H189504   9.028   2.697   6.321
29754WAT     H289505   8.893   2.712   6.412
29755WAT      O89506   3.097   4.154   6.276
29755WAT     H189507   3.078   4.189   6.368
29755WAT     H289508   3.196   4.141   6.266
29756WAT      O89509   8.885   6.681   8.614
29756WAT     H189510   8.906   6.583   8.619
29756WAT     H289511   8.970   6.732   8.601
29757WAT      O89512   5.802   1.381   4.963
29757WAT     H189513   5.857   1.421   5.036
29757WAT     H289514   5.828   1.421   4.876
29758WAT      O89515   9.042   8.069   0.159
29758WAT     H189516   9.116   8.013   0.121
29758WAT     H289517   8.965   8.068   0.096
29759WAT      O89518   8.155   7.887   6.898
29759WAT     H189519   8.115   7.977   6.882
29759WAT     H289520   8.210   7.860   6.818
29760WAT      O89521   4.142   4.553   5.770
29760WAT     H189522   4.240   4.548   5.792
29760WAT     H289523   4.090   4.509   5.843
29761WAT      O89524   6.036   6.395   2.875
29761WAT     H189525   6.070   6.315   2.825
29761WAT     H289526   5.937   6.388   2.886
29762WAT      O89527   5.104   2.341   5.059
29762WAT     H189528   5.148   2.363   5.146
29762WAT     H289529   5.157   2.382   4.984
29763WAT      O89530   3.313   7.535   9.543
29763WAT     H189531   3.229   7.515   9.594
29763WAT     H289532   3.392   7.502   9.596
29764WAT      O89533   0.930   3.323   1.552
29764WAT     H189534   0.909   3.376   1.470
29764WAT     H289535   1.029   3.320   1.566
29765WAT      O89536   0.742   0.345   0.579
29765WAT     H189537   0.768   0.326   0.484
29765WAT     H289538   0.644   0.366   0.583
29766WAT      O89539   6.259   7.425   2.989
29766WAT     H189540   6.209   7.425   2.903
29766WAT     H289541   6.349   7.467   2.975
29767WAT      O89542   1.024   2.041   6.180
29767WAT     H189543   1.061   2.022   6.271
29767WAT     H289544   1.021   1.956   6.127
29768WAT      O89545   5.623   1.655   1.578
29768WAT     H189546   5.646   1.558   1.575
29768WAT     H289547   5.535   1.666   1.625
29769WAT      O89548   6.619   6.757   4.947
29769WAT     H189549   6.689   6.828   4.947
29769WAT     H289550   6.622   6.707   4.860
29770WAT      O89551   8.966   7.081   2.424
29770WAT     H189552   8.933   7.122   2.510
29770WAT     H289553   8.921   6.994   2.409
29771WAT      O89554   5.832   4.854   1.122
29771WAT     H189555   5.890   4.932   1.143
29771WAT     H289556   5.793   4.817   1.206
29772WAT      O89557   4.860   9.833   5.050
29772WAT     H189558   4.929   9.777   5.005
29772WAT     H289559   4.769   9.803   5.021
29773WAT      O89560   8.506   6.646   4.432
29773WAT     H189561   8.527   6.733   4.387
29773WAT     H289562   8.528   6.653   4.529
29774WAT      O89563   8.727   8.212   1.437
29774WAT     H189564   8.692   8.186   1.346
29774WAT     H289565   8.798   8.147   1.464
29775WAT      O89566   4.540   2.106   1.794
29775WAT     H189567   4.555   2.063   1.883
29775WAT     H289568   4.463   2.062   1.748
29776WAT      O89569   9.195   8.800   1.229
29776WAT     H189570   9.239   8.760   1.149
29776WAT     H289571   9.156   8.727   1.286
29777WAT      O89572   9.852   9.243   3.172
29777WAT     H189573   9.888   9.337   3.172
29777WAT     H289574   9.881   9.196   3.255
29778WAT      O89575   0.289   1.171   8.847
29778WAT     H189576   0.373   1.135   8.806
29778WAT     H289577   0.215   1.166   8.781
29779WAT      O89578   4.433   2.338   0.548
29779WAT     H189579   4.411   2.313   0.643
29779WAT     H289580   4.358   2.392   0.510
29780WAT      O89581   8.227   8.186   9.864
29780WAT     H189582   8.275   8.175   9.951
29780WAT     H289583   8.279   8.247   9.804
29781WAT      O89584   3.214   8.104   7.711
29781WAT     H189585   3.253   8.026   7.662
29781WAT     H289586   3.153   8.155   7.650
29782WAT      O89587   6.178   0.519   0.787
29782WAT     H189588   6.173   0.616   0.812
29782WAT     H289589   6.108   0.499   0.719
29783WAT      O89590   1.351   3.004   0.284
29783WAT     H189591   1.334   2.932   0.218
29783WAT     H289592   1.382   3.087   0.236
29784WAT      O89593   0.639   9.331   8.555
29784WAT     H189594   0.631   9.288   8.645
29784WAT     H289595   0.688   9.417   8.563
29785WAT      O89596   1.816   1.556   1.621
29785WAT     H189597   1.750   1.596   1.685
29785WAT     H289598   1.841   1.624   1.552
29786WAT      O89599   6.557   3.589   8.168
29786WAT     H189600   6.548   3.662   8.236
29786WAT     H289601   6.560   3.629   8.077
29787WAT      O89602   2.381   5.292   6.055
29787WAT     H189603   2.436   5.300   5.972
29787WAT     H289604   2.290   5.329   6.039
29788WAT      O89605   3.215   8.705   6.261
29788WAT     H189606   3.235   8.609   6.280
29788WAT     H289607   3.175   8.713   6.170
29789WAT      O89608   9.754   5.801   1.321
29789WAT     H189609   9.835   5.766   1.273
29789WAT     H289610   9.714   5.876   1.268
29790WAT      O89611   0.444   2.634   4.268
29790WAT     H189612   0.452   2.730   4.293
29790WAT     H289613   0.348   2.611   4.254
29791WAT      O89614   6.520   2.807   4.337
29791WAT     H189615   6.540   2.892   4.385
29791WAT     H289616   6.423   2.783   4.350
29792WAT      O89617   6.798   7.944   2.745
29792WAT     H189618   6.783   8.026   2.691
29792WAT     H289619   6.848   7.967   2.829
29793WAT      O89620   1.261   3.085   5.272
29793WAT     H189621   1.352   3.064   5.309
29793WAT     H289622   1.268   3.093   5.172
29794WAT      O89623   4.902   9.442   8.511
29794WAT     H189624   4.900   9.468   8.414
29794WAT     H289625   4.920   9.524   8.566
29795WAT      O89626   8.135   5.902   7.324
29795WAT     H189627   8.139   5.890   7.423
29795WAT     H289628   8.154   5.997   7.300
29796WAT      O89629   8.445   6.541   2.157
29796WAT     H189630   8.351   6.507   2.165
29796WAT     H289631   8.499   6.509   2.235
29797WAT      O89632   0.875   8.333   4.166
29797WAT     H189633   0.922   8.364   4.084
29797WAT     H289634   0.846   8.412   4.220
29798WAT      O89635   6.660   3.455   5.701
29798WAT     H189636   6.636   3.548   5.674
29798WAT     H289637   6.590   3.391   5.668
29799WAT      O89638   2.259   6.209   4.212
29799WAT     H189639   2.159   6.210   4.214
29799WAT     H289640   2.295   6.233   4.302
29800WAT      O89641   5.901   5.128   2.100
29800WAT     H189642   5.833   5.193   2.133
29800WAT     H289643   5.884   5.038   2.141
29801WAT      O89644   7.458   7.356   2.689
29801WAT     H189645   7.418   7.444   2.666
29801WAT     H289646   7.395   7.283   2.664
29802WAT      O89647   7.311   4.617   6.469
29802WAT     H189648   7.319   4.527   6.511
29802WAT     H289649   7.400   4.662   6.469
29803WAT      O89650   5.076   8.243   8.230
29803WAT     H189651   5.097   8.150   8.261
29803WAT     H289652   5.045   8.240   8.134
29804WAT      O89653   6.786   3.710   8.864
29804WAT     H189654   6.815   3.787   8.807
29804WAT     H289655   6.814   3.624   8.822
29805WAT      O89656   6.869   9.574   2.456
29805WAT     H189657   6.876   9.506   2.383
29805WAT     H289658   6.960   9.604   2.484
29806WAT      O89659   9.029   7.238   6.540
29806WAT     H189660   9.015   7.219   6.637
29806WAT     H289661   8.958   7.300   6.508
29807WAT      O89662   8.639   4.456   2.802
29807WAT     H189663   8.550   4.414   2.788
29807WAT     H289664   8.702   4.425   2.731
29808WAT      O89665   0.059   6.004   2.388
29808WAT     H189666   0.084   5.923   2.335
29808WAT     H289667  -0.014   6.053   2.341
29809WAT      O89668   7.449   7.194   6.212
29809WAT     H189669   7.369   7.175   6.269
29809WAT     H289670   7.460   7.293   6.203
29810WAT      O89671   8.009   1.841   2.158
29810WAT     H189672   7.978   1.851   2.064
29810WAT     H289673   8.060   1.755   2.167
29811WAT      O89674   2.607   6.552   3.094
29811WAT     H189675   2.638   6.565   3.000
29811WAT     H289676   2.510   6.530   3.094
29812WAT      O89677   3.672   8.151   4.416
29812WAT     H189678   3.659   8.179   4.511
29812WAT     H289679   3.735   8.214   4.371
29813WAT      O89680   0.922   6.265   0.039
29813WAT     H189681   0.937   6.168   0.059
29813WAT     H289682   0.859   6.303   0.106
29814WAT      O89683   4.389   7.420   2.641
29814WAT     H189684   4.451   7.382   2.710
29814WAT     H289685   4.374   7.517   2.659
29815WAT      O89686   9.152   3.177   3.399
29815WAT     H189687   9.056   3.151   3.388
29815WAT     H289688   9.176   3.245   3.331
29816WAT      O89689   2.818   7.321   9.345
29816WAT     H189690   2.736   7.264   9.344
29816WAT     H289691   2.794   7.415   9.321
29817WAT      O89692   6.596   7.212   0.968
29817WAT     H189693   6.650   7.128   0.968
29817WAT     H289694   6.617   7.264   1.051
29818WAT      O89695   1.581   1.060   9.732
29818WAT     H189696   1.601   1.154   9.761
29818WAT     H289697   1.666   1.009   9.723
29819WAT      O89698   3.703   5.919   6.880
29819WAT     H189699   3.758   5.855   6.934
29819WAT     H289700   3.672   5.994   6.939
29820WAT      O89701   4.142   1.018   1.882
29820WAT     H189702   4.173   1.097   1.934
29820WAT     H289703   4.052   0.990   1.916
29821WAT      O89704   0.689   6.273   2.613
29821WAT     H189705   0.689   6.372   2.606
29821WAT     H289706   0.773   6.236   2.575
29822WAT      O89707   6.495   9.764   8.347
29822WAT     H189708   6.459   9.697   8.282
29822WAT     H289709   6.545   9.716   8.419
29823WAT      O89710   6.443   5.201   5.161
29823WAT     H189711   6.386   5.263   5.215
29823WAT     H289712   6.397   5.182   5.074
29824WAT      O89713   3.199   1.946   9.459
29824WAT     H189714   3.123   1.901   9.413
29824WAT     H289715   3.285   1.902   9.433
29825WAT      O89716   9.375   0.424   3.569
29825WAT     H189717   9.391   0.352   3.637
29825WAT     H289718   9.388   0.514   3.613
29826WAT      O89719   9.145   8.105   9.259
29826WAT     H189720   9.176   8.200   9.260
29826WAT     H289721   9.071   8.094   9.325
29827WAT      O89722   8.564   7.575   4.816
29827WAT     H189723   8.549   7.493   4.761
29827WAT     H289724   8.661   7.582   4.840
29828WAT      O89725   3.916   4.824   1.337
29828WAT     H189726   4.015   4.820   1.320
29828WAT     H289727   3.899   4.824   1.435
29829WAT      O89728   7.087   2.585   1.432
29829WAT     H189729   7.079   2.531   1.516
29829WAT     H289730   7.170   2.558   1.383
29830WAT      O89731   1.183   6.035   4.582
29830WAT     H189732   1.127   6.055   4.662
29830WAT     H289733   1.278   6.019   4.611
29831WAT      O89734   8.306   4.695   3.714
29831WAT     H189735   8.219   4.729   3.749
29831WAT     H289736   8.382   4.738   3.764
29832WAT      O89737   0.237   0.462   5.367
29832WAT     H189738   0.276   0.426   5.283
29832WAT     H289739   0.305   0.518   5.414
29833WAT      O89740   5.294   6.596   2.475
29833WAT     H189741   5.285   6.521   2.409
29833WAT     H289742   5.334   6.561   2.560
29834WAT      O89743   2.341   7.488   0.390
29834WAT     H189744   2.288   7.493   0.474
29834WAT     H289745   2.388   7.400   0.385
29835WAT      O89746   7.795   4.915   5.667
29835WAT     H189747   7.772   4.909   5.570
29835WAT     H289748   7.751   4.839   5.716
29836WAT      O89749   2.735   3.802   4.606
29836WAT     H189750   2.782   3.739   4.544
29836WAT     H289751   2.637   3.798   4.590
29837WAT      O89752   5.621   3.664   7.545
29837WAT     H189753   5.701   3.662   7.484
29837WAT     H289754   5.623   3.582   7.604
29838WAT      O89755   9.613   4.423   0.362
29838WAT     H189756   9.618   4.469   0.274
29838WAT     H289757   9.597   4.491   0.434
29839WAT      O89758   0.850   9.063   7.754
29839WAT     H189759   0.846   9.037   7.850
29839WAT     H289760   0.757   9.066   7.716
29840WAT      O89761   5.876   1.971   4.809
29840WAT     H189762   5.951   1.958   4.744
29840WAT     H289763   5.910   1.956   4.902
29841WAT      O89764   2.035   4.855   6.588
29841WAT     H189765   2.126   4.865   6.628
29841WAT     H289766   2.003   4.944   6.555
29842WAT      O89767   8.799   7.042   7.852
29842WAT     H189768   8.875   6.977   7.857
29842WAT     H289769   8.752   7.045   7.940
29843WAT      O89770   3.493   8.607   2.706
29843WAT     H189771   3.412   8.552   2.726
29843WAT     H289772   3.522   8.656   2.788
29844WAT      O89773   6.540   1.258   6.994
29844WAT     H189774   6.639   1.248   7.001
29844WAT     H289775   6.496   1.171   7.017
29845WAT      O89776   1.091   9.608   1.656
29845WAT     H189777   1.113   9.589   1.752
29845WAT     H289778   1.063   9.703   1.647
29846WAT      O89779   7.282   8.138   5.659
29846WAT     H189780   7.319   8.117   5.749
29846WAT     H289781   7.357   8.149   5.593
29847WAT      O89782   3.231   1.119   4.548
29847WAT     H189783   3.304   1.088   4.609
29847WAT     H289784   3.143   1.109   4.593
29848WAT      O89785   6.933   7.867   0.723
29848WAT     H189786   6.854   7.814   0.693
29848WAT     H289787   6.908   7.963   0.732
29849WAT      O89788   5.116   2.388   0.592
29849WAT     H189789   5.197   2.440   0.563
29849WAT     H289790   5.124   2.366   0.689
29850WAT      O89791   1.433   9.151   3.446
29850WAT     H189792   1.416   9.170   3.542
29850WAT     H289793   1.443   9.238   3.396
29851WAT      O89794   5.656   4.680   0.804
29851WAT     H189795   5.654   4.689   0.705
29851WAT     H289796   5.750   4.665   0.835
29852WAT      O89797   9.694   6.846   4.184
29852WAT     H189798   9.671   6.808   4.094
29852WAT     H289799   9.782   6.892   4.179
29853WAT      O89800   5.621   8.033   0.321
29853WAT     H189801   5.644   8.020   0.225
29853WAT     H289802   5.703   8.018   0.377
29854WAT      O89803   7.195   6.158   7.755
29854WAT     H189804   7.187   6.186   7.851
29854WAT     H289805   7.243   6.228   7.703
29855WAT      O89806   3.966   3.029   4.363
29855WAT     H189807   4.032   3.039   4.437
29855WAT     H289808   3.879   2.997   4.400
29856WAT      O89809   1.467   1.416   6.303
29856WAT     H189810   1.468   1.497   6.360
29856WAT     H289811   1.447   1.441   6.208
29857WAT      O89812   0.625   8.573   4.361
29857WAT     H189813   0.615   8.475   4.380
29857WAT     H289814   0.547   8.623   4.399
29858WAT      O89815   5.970   5.234   7.943
29858WAT     H189816   5.979   5.162   8.012
29858WAT     H289817   5.983   5.323   7.987
29859WAT      O89818   6.842   1.332   7.668
29859WAT     H189819   6.901   1.257   7.699
29859WAT     H289820   6.810   1.313   7.575
29860WAT      O89821   5.847   7.108   5.944
29860WAT     H189822   5.823   7.197   5.906
29860WAT     H289823   5.843   7.039   5.872
29861WAT      O89824   7.346   5.810   5.941
29861WAT     H189825   7.434   5.799   5.987
29861WAT     H289826   7.290   5.877   5.990
29862WAT      O89827   7.556   2.423   1.783
29862WAT     H189828   7.608   2.380   1.709
29862WAT     H289829   7.491   2.489   1.744
29863WAT      O89830   6.136   3.317   3.053
29863WAT     H189831   6.044   3.281   3.069
29863WAT     H289832   6.142   3.356   2.962
29864WAT      O89833   2.378   8.270   1.955
29864WAT     H189834   2.445   8.262   2.029
29864WAT     H289835   2.395   8.199   1.887
29865WAT      O89836   0.399   8.872   2.161
29865WAT     H189837   0.366   8.901   2.071
29865WAT     H289838   0.346   8.918   2.232
29866WAT      O89839   7.647   0.176   5.565
29866WAT     H189840   7.747   0.174   5.557
29866WAT     H289841   7.607   0.177   5.473
29867WAT      O89842   2.149   2.294   3.006
29867WAT     H189843   2.093   2.235   3.064
29867WAT     H289844   2.239   2.305   3.047
29868WAT      O89845   8.184   6.310   7.447
29868WAT     H189846   8.277   6.333   7.476
29868WAT     H289847   8.122   6.323   7.524
29869WAT      O89848   9.576   4.299   9.423
29869WAT     H189849   9.539   4.236   9.355
29869WAT     H289850   9.654   4.255   9.469
29870WAT      O89851   6.643   6.622   1.985
29870WAT     H189852   6.578   6.580   1.921
29870WAT     H289853   6.593   6.660   2.062
29871WAT      O89854   6.822   5.581   1.279
29871WAT     H189855   6.912   5.549   1.307
29871WAT     H289856   6.754   5.557   1.348
29872WAT      O89857   9.145   8.158   5.824
29872WAT     H189858   9.149   8.113   5.913
29872WAT     H289859   9.174   8.095   5.752
29873WAT      O89860   9.009   1.162   6.137
29873WAT     H189861   9.089   1.107   6.113
29873WAT     H289862   8.932   1.134   6.079
29874WAT      O89863   5.311   2.337   5.977
29874WAT     H189864   5.334   2.343   6.074
29874WAT     H289865   5.381   2.284   5.929
29875WAT      O89866   1.465   7.203   4.196
29875WAT     H189867   1.495   7.279   4.138
29875WAT     H289868   1.430   7.240   4.283
29876WAT      O89869   3.297   1.225   0.187
29876WAT     H189870   3.221   1.252   0.129
29876WAT     H289871   3.368   1.181   0.132
29877WAT      O89872   0.062   3.509   8.853
29877WAT     H189873   0.157   3.538   8.855
29877WAT     H289874   0.003   3.586   8.880
29878WAT      O89875   8.431   1.184   2.427
29878WAT     H189876   8.400   1.197   2.521
29878WAT     H289877   8.495   1.257   2.403
29879WAT      O89878   9.834   5.423   1.650
29879WAT     H189879   9.908   5.451   1.711
29879WAT     H289880   9.756   5.484   1.661
29880WAT      O89881   7.718   3.921   7.420
29880WAT     H189882   7.652   3.860   7.465
29880WAT     H289883   7.690   3.936   7.325
29881WAT      O89884   6.221   3.619   8.612
29881WAT     H189885   6.132   3.664   8.612
29881WAT     H289886   6.230   3.564   8.695
29882WAT      O89887   6.841   7.388   2.391
29882WAT     H189888   6.759   7.443   2.407
29882WAT     H289889   6.861   7.388   2.293
29883WAT      O89890   3.915   8.545   1.548
29883WAT     H189891   3.867   8.572   1.632
29883WAT     H289892   3.935   8.447   1.552
29884WAT      O89893   4.759   5.363   6.377
29884WAT     H189894   4.794   5.271   6.362
29884WAT     H289895   4.833   5.423   6.409
29885WAT      O89896   0.971   6.316   2.275
29885WAT     H189897   0.908   6.267   2.214
29885WAT     H289898   0.964   6.414   2.259
29886WAT      O89899   3.846   0.873   7.727
29886WAT     H189900   3.860   0.806   7.653
29886WAT     H289901   3.931   0.886   7.777
29887WAT      O89902   7.373   0.634   9.261
29887WAT     H189903   7.410   0.724   9.236
29887WAT     H289904   7.274   0.640   9.272
29888WAT      O89905   5.608   4.301   2.597
29888WAT     H189906   5.622   4.322   2.693
29888WAT     H289907   5.512   4.278   2.581
29889WAT      O89908   4.530   0.757   9.229
29889WAT     H189909   4.506   0.828   9.163
29889WAT     H289910   4.453   0.695   9.242
29890WAT      O89911   2.531   9.237   1.269
29890WAT     H189912   2.439   9.205   1.250
29890WAT     H289913   2.544   9.247   1.368
29891WAT      O89914   0.606   2.867   5.759
29891WAT     H189915   0.576   2.907   5.845
29891WAT     H289916   0.599   2.935   5.686
29892WAT      O89917   9.028   2.605   0.035
29892WAT     H189918   9.017   2.573  -0.058
29892WAT     H289919   9.061   2.700   0.034
29893WAT      O89920   3.905   0.714   8.320
29893WAT     H189921   3.854   0.784   8.369
29893WAT     H289922   3.841   0.646   8.283
29894WAT      O89923   4.784   3.883   1.622
29894WAT     H189924   4.768   3.943   1.545
29894WAT     H289925   4.776   3.935   1.707
29895WAT      O89926   8.769   5.164   8.956
29895WAT     H189927   8.862   5.192   8.976
29895WAT     H289928   8.720   5.239   8.911
29896WAT      O89929   1.105   1.857   8.678
29896WAT     H189930   1.191   1.874   8.629
29896WAT     H289931   1.117   1.878   8.775
29897WAT      O89932   4.211   4.419   9.397
29897WAT     H189933   4.310   4.426   9.382
29897WAT     H289934   4.185   4.323   9.401
29898WAT      O89935   9.535   1.878   9.151
29898WAT     H189936   9.590   1.939   9.095
29898WAT     H289937   9.554   1.894   9.248
29899WAT      O89938   9.885   7.223   6.513
29899WAT     H189939   9.965   7.162   6.513
29899WAT     H289940   9.839   7.216   6.425
29900WAT      O89941   7.056   3.765   8.818
29900WAT     H189942   7.104   3.751   8.731
29900WAT     H289943   6.997   3.845   8.811
29901WAT      O89944   8.647   7.855   0.268
29901WAT     H189945   8.700   7.841   0.185
29901WAT     H289946   8.549   7.856   0.246
29902WAT      O89947   8.021   6.130   5.468
29902WAT     H189948   7.924   6.150   5.482
29902WAT     H289949   8.056   6.185   5.392
29903WAT      O89950   5.104   3.214   3.499
29903WAT     H189951   5.106   3.262   3.412
29903WAT     H289952   5.024   3.244   3.552
29904WAT      O89953   5.675   4.517   9.698
29904WAT     H189954   5.725   4.557   9.621
29904WAT     H289955   5.616   4.444   9.665
29905WAT      O89956   5.942   8.163   1.779
29905WAT     H189957   5.942   8.073   1.822
29905WAT     H289958   5.900   8.157   1.689
29906WAT      O89959   1.644   2.826   9.367
29906WAT     H189960   1.574   2.758   9.346
29906WAT     H289961   1.727   2.807   9.315
29907WAT      O89962   9.220   7.547   2.130
29907WAT     H189963   9.287   7.521   2.059
29907WAT     H289964   9.196   7.644   2.118
29908WAT      O89965   2.771   0.472   2.760
29908WAT     H189966   2.772   0.565   2.725
29908WAT     H289967   2.698   0.420   2.715
29909WAT      O89968   2.045   1.495   6.807
29909WAT     H189969   2.026   1.536   6.896
29909WAT     H289970   2.075   1.566   6.743
29910WAT      O89971   0.550   6.760   2.183
29910WAT     H189972   0.519   6.667   2.203
29910WAT     H289973   0.514   6.823   2.253
29911WAT      O89974   3.373   2.196   9.654
29911WAT     H189975   3.402   2.111   9.697
29911WAT     H289976   3.448   2.262   9.654
29912WAT      O89977   1.639   2.014   2.417
29912WAT     H189978   1.606   1.951   2.487
29912WAT     H289979   1.594   2.102   2.427
29913WAT      O89980   1.873   0.127   0.409
29913WAT     H189981   1.875   0.204   0.473
29913WAT     H289982   1.873   0.041   0.460
29914WAT      O89983   3.134   8.805   3.821
29914WAT     H189984   3.075   8.834   3.897
29914WAT     H289985   3.146   8.882   3.758
29915WAT      O89986   7.936   0.302   1.080
29915WAT     H189987   7.861   0.293   1.146
29915WAT     H289988   7.903   0.344   0.996
29916WAT      O89989   5.960   8.358   0.724
29916WAT     H189990   5.983   8.426   0.793
29916WAT     H289991   6.040   8.301   0.704
29917WAT      O89992   0.910   0.293   8.077
29917WAT     H189993   0.993   0.347   8.069
29917WAT     H289994   0.918   0.231   8.155
29918WAT      O89995   9.677   8.208   2.271
29918WAT     H189996   9.609   8.228   2.342
29918WAT     H289997   9.764   8.186   2.315
29919WAT      O89998   9.148   7.478   1.810
29919WAT     H189999   9.117   7.573   1.806
29919WAT     H290000   9.242   7.472   1.775
29920WAT      O90001   2.979   8.866   4.047
29920WAT     H190002   2.963   8.767   4.044
29920WAT     H290003   3.040   8.888   4.122
29921WAT      O90004   9.638   8.263   3.059
29921WAT     H190005   9.619   8.308   2.973
29921WAT     H290006   9.569   8.193   3.076
29922WAT      O90007   5.365   1.083   0.307
29922WAT     H190008   5.358   1.021   0.228
29922WAT     H290009   5.337   1.175   0.279
29923WAT      O90010   5.372   3.272   7.648
29923WAT     H190011   5.417   3.287   7.560
29923WAT     H290012   5.419   3.326   7.718
29924WAT      O90013   4.320   9.270   0.197
29924WAT     H190014   4.372   9.199   0.151
29924WAT     H290015   4.381   9.344   0.225
29925WAT      O90016   1.001   9.749   0.755
29925WAT     H190017   1.055   9.673   0.720
29925WAT     H290018   0.958   9.797   0.678
29926WAT      O90019   0.703   5.657   0.335
29926WAT     H190020   0.760   5.623   0.261
29926WAT     H290021   0.747   5.736   0.378
29927WAT      O90022   9.885   9.069   6.375
29927WAT     H190023   9.911   9.160   6.409
29927WAT     H290024   9.794   9.074   6.334
29928WAT      O90025   7.651   1.778   8.190
29928WAT     H190026   7.626   1.845   8.260
29928WAT     H290027   7.582   1.706   8.187
29929WAT      O90028   8.705   1.204   8.830
29929WAT     H190029   8.650   1.133   8.874
29929WAT     H290030   8.664   1.293   8.848
29930WAT      O90031   7.086   6.855   3.323
29930WAT     H190032   7.080   6.781   3.256
29930WAT     H290033   7.171   6.905   3.310
29931WAT      O90034   3.400   1.263   1.251
29931WAT     H190035   3.368   1.352   1.285
29931WAT     H290036   3.498   1.254   1.266
29932WAT      O90037   8.158   7.689   5.864
29932WAT     H190038   8.247   7.655   5.895
29932WAT     H290039   8.160   7.703   5.765
29933WAT      O90040   9.287   9.268   0.794
29933WAT     H190041   9.224   9.298   0.866
29933WAT     H290042   9.297   9.168   0.799
29934WAT      O90043   6.864   1.098   5.121
29934WAT     H190044   6.879   1.040   5.201
29934WAT     H290045   6.934   1.078   5.051
29935WAT      O90046   0.443   2.445   0.417
29935WAT     H190047   0.490   2.419   0.501
29935WAT     H290048   0.444   2.544   0.407
29936WAT      O90049   4.531   5.872   9.855
29936WAT     H190050   4.483   5.834   9.776
29936WAT     H290051   4.626   5.892   9.830
29937WAT      O90052   5.575   7.478   9.377
29937WAT     H190053   5.634   7.546   9.334
29937WAT     H290054   5.631   7.411   9.426
29938WAT      O90055   6.419   4.896   0.216
29938WAT     H190056   6.365   4.831   0.163
29938WAT     H290057   6.359   4.963   0.259
29939WAT      O90058   8.030   3.073   1.901
29939WAT     H190059   7.966   3.080   1.825
29939WAT     H290060   7.983   3.092   1.987
29940WAT      O90061   8.997   2.263   6.762
29940WAT     H190062   8.908   2.216   6.760
29940WAT     H290063   9.061   2.211   6.819
29941WAT      O90064   1.601   4.157   0.128
29941WAT     H190065   1.554   4.243   0.149
29941WAT     H290066   1.697   4.164   0.156
29942WAT      O90067   3.554   4.984   2.757
29942WAT     H190068   3.636   4.927   2.767
29942WAT     H290069   3.490   4.939   2.695
29943WAT      O90070   9.307   7.104   7.551
29943WAT     H190071   9.324   7.066   7.460
29943WAT     H290072   9.237   7.175   7.545
29944WAT      O90073   7.881   0.329   5.604
29944WAT     H190074   7.962   0.291   5.650
29944WAT     H290075   7.809   0.345   5.671
29945WAT      O90076   9.026   3.736   4.639
29945WAT     H190077   9.047   3.834   4.641
29945WAT     H290078   9.105   3.686   4.601
29946WAT      O90079   4.124   4.497   6.507
29946WAT     H190080   4.213   4.493   6.462
29946WAT     H290081   4.069   4.570   6.466
29947WAT      O90082   5.474   8.456   6.205
29947WAT     H190083   5.407   8.384   6.219
29947WAT     H290084   5.532   8.464   6.287
29948WAT      O90085   8.236   2.746   2.945
29948WAT     H190086   8.182   2.739   3.029
29948WAT     H290087   8.330   2.719   2.963
29949WAT      O90088   6.133   3.128   4.763
29949WAT     H190089   6.149   3.156   4.668
29949WAT     H290090   6.196   3.179   4.823
29950WAT      O90091   2.994   2.971   5.306
29950WAT     H190092   2.919   2.911   5.334
29950WAT     H290093   3.005   2.966   5.206
29951WAT      O90094   1.562   0.572   1.104
29951WAT     H190095   1.616   0.607   1.180
29951WAT     H290096   1.618   0.568   1.022
29952WAT      O90097   8.546   5.883   1.199
29952WAT     H190098   8.631   5.858   1.154
29952WAT     H290099   8.483   5.805   1.198
29953WAT      O90100   7.755   3.929   0.111
29953WAT     H190101   7.662   3.937   0.076
29953WAT     H290102   7.785   4.017   0.149
29954WAT      O90103   0.506   8.130   7.853
29954WAT     H190104   0.575   8.058   7.853
29954WAT     H290105   0.551   8.219   7.855
29955WAT      O90106   9.049   5.204   4.732
29955WAT     H190107   8.963   5.195   4.681
29955WAT     H290108   9.102   5.120   4.723
29956WAT      O90109   0.094   3.810   6.175
29956WAT     H190110   0.089   3.910   6.175
29956WAT     H290111   0.001   3.772   6.174
29957WAT      O90112   4.610   9.574   7.437
29957WAT     H190113   4.591   9.482   7.471
29957WAT     H290114   4.663   9.568   7.352
29958WAT      O90115   8.065   1.240   7.268
29958WAT     H190116   8.049   1.302   7.345
29958WAT     H290117   8.096   1.293   7.189
29959WAT      O90118   7.639   0.498   0.472
29959WAT     H190119   7.580   0.473   0.395
29959WAT     H290120   7.592   0.562   0.532
29960WAT      O90121   3.128   9.517   6.613
29960WAT     H190122   3.125   9.574   6.530
29960WAT     H290123   3.117   9.575   6.694
29961WAT      O90124   5.079   7.161   2.156
29961WAT     H190125   5.117   7.220   2.085
29961WAT     H290126   5.153   7.124   2.212
29962WAT      O90127   9.195   0.151   0.265
29962WAT     H190128   9.106   0.189   0.289
29962WAT     H290129   9.215   0.073   0.324
29963WAT      O90130   3.521   6.243   7.745
29963WAT     H190131   3.546   6.165   7.686
29963WAT     H290132   3.589   6.315   7.734
29964WAT      O90133   6.722   0.744   4.453
29964WAT     H190134   6.737   0.692   4.370
29964WAT     H290135   6.632   0.720   4.492
29965WAT      O90136   8.965   8.551   4.460
29965WAT     H190137   9.065   8.551   4.453
29965WAT     H290138   8.929   8.635   4.418
29966WAT      O90139   5.693   3.869   1.202
29966WAT     H190140   5.789   3.842   1.212
29966WAT     H290141   5.678   3.956   1.249
29967WAT      O90142   5.621   9.576   7.821
29967WAT     H190143   5.554   9.647   7.799
29967WAT     H290144   5.713   9.609   7.799
29968WAT      O90145   2.181   9.809   3.421
29968WAT     H190146   2.250   9.765   3.479
29968WAT     H290147   2.216   9.815   3.327
29969WAT      O90148   3.420   3.574   0.319
29969WAT     H190149   3.501   3.517   0.306
29969WAT     H290150   3.395   3.617   0.231
29970WAT      O90151   6.806   2.668   4.516
29970WAT     H190152   6.759   2.672   4.428
29970WAT     H290153   6.864   2.749   4.526
29971WAT      O90154   7.706   9.540   3.832
29971WAT     H190155   7.666   9.592   3.908
29971WAT     H290156   7.710   9.443   3.857
29972WAT      O90157   1.811   7.329   4.386
29972WAT     H190158   1.802   7.344   4.484
29972WAT     H290159   1.730   7.281   4.352
29973WAT      O90160   5.363   2.046   3.874
29973WAT     H190161   5.345   2.140   3.845
29973WAT     H290162   5.283   2.010   3.921
29974WAT      O90163   5.725   4.679   9.418
29974WAT     H190164   5.662   4.704   9.344
29974WAT     H290165   5.771   4.593   9.395
29975WAT      O90166   8.014   3.313   4.920
29975WAT     H190167   8.088   3.360   4.967
29975WAT     H290168   7.931   3.318   4.975
29976WAT      O90169   7.489   9.674   8.552
29976WAT     H190170   7.437   9.730   8.488
29976WAT     H290171   7.537   9.732   8.617
29977WAT      O90172   1.963   5.878   6.730
29977WAT     H190173   1.914   5.907   6.648
29977WAT     H290174   1.910   5.902   6.811
29978WAT      O90175   0.545   1.070   4.941
29978WAT     H190176   0.573   1.103   4.851
29978WAT     H290177   0.485   0.990   4.930
29979WAT      O90178   4.873   5.800   9.479
29979WAT     H190179   4.879   5.705   9.450
29979WAT     H290180   4.965   5.835   9.497
29980WAT      O90181   1.623   5.907   5.986
29980WAT     H190182   1.566   5.988   5.976
29980WAT     H290183   1.656   5.878   5.896
29981WAT      O90184   0.388   4.961   4.019
29981WAT     H190185   0.307   5.001   3.976
29981WAT     H290186   0.465   5.024   4.010
29982WAT      O90187   1.718   3.210   9.578
29982WAT     H190188   1.655   3.165   9.515
29982WAT     H290189   1.677   3.296   9.611
29983WAT      O90190   7.143   4.953   4.153
29983WAT     H190191   7.053   4.994   4.163
29983WAT     H290192   7.179   4.927   4.243
29984WAT      O90193   5.861   3.415   7.838
29984WAT     H190194   5.826   3.416   7.931
29984WAT     H290195   5.905   3.327   7.819
29985WAT      O90196  -0.003   8.372   4.080
29985WAT     H190197   0.051   8.292   4.105
29985WAT     H290198   0.038   8.454   4.119
29986WAT      O90199   2.860   8.770   2.269
29986WAT     H190200   2.843   8.680   2.310
29986WAT     H290201   2.896   8.832   2.338
29987WAT      O90202   7.356   3.946   6.517
29987WAT     H190203   7.421   3.938   6.441
29987WAT     H290204   7.343   3.857   6.559
29988WAT      O90205   0.535   3.636   6.126
29988WAT     H190206   0.441   3.660   6.102
29988WAT     H290207   0.552   3.540   6.103
29989WAT      O90208   5.185   9.469   5.103
29989WAT     H190209   5.135   9.395   5.060
29989WAT     H290210   5.163   9.556   5.058
29990WAT      O90211   8.971   9.547   0.638
29990WAT     H190212   8.927   9.614   0.578
29990WAT     H290213   8.977   9.583   0.731
29991WAT      O90214   3.527   3.347   5.196
29991WAT     H190215   3.538   3.426   5.256
29991WAT     H290216   3.437   3.305   5.212
29992WAT      O90217   7.222   6.646   5.002
29992WAT     H190218   7.284   6.657   5.080
29992WAT     H290219   7.251   6.568   4.947
29993WAT      O90220   7.922   8.501   4.793
29993WAT     H190221   7.888   8.595   4.782
29993WAT     H290222   7.909   8.451   4.708
29994WAT      O90223   8.066   7.231   4.232
29994WAT     H190224   8.069   7.144   4.280
29994WAT     H290225   7.975   7.244   4.192
29995WAT      O90226   8.885   0.510   8.206
29995WAT     H190227   8.826   0.478   8.280
29995WAT     H290228   8.872   0.609   8.194
29996WAT      O90229   1.099   6.880   7.279
29996WAT     H190230   1.101   6.802   7.342
29996WAT     H290231   1.181   6.935   7.290
29997WAT      O90232   5.847   2.223   1.065
29997WAT     H190233   5.779   2.269   1.121
29997WAT     H290234   5.938   2.250   1.094
29998WAT      O90235   4.550   0.230   9.833
29998WAT     H190236   4.584   0.153   9.779
29998WAT     H290237   4.477   0.276   9.783
29999WAT      O90238   7.303   2.564   1.707
29999WAT     H190239   7.228   2.509   1.742
29999WAT     H290240   7.327   2.533   1.615
30000WAT      O90241   2.379   8.138   1.094
30000WAT     H190242   2.360   8.153   0.997
30000WAT     H290243   2.406   8.225   1.137
30001WAT      O90244   1.299   0.840   7.072
30001WAT     H190245   1.302   0.935   7.041
30001WAT     H290246   1.378   0.791   7.035
30002WAT      O90247   3.385   3.627   2.069
30002WAT     H190248   3.377   3.684   2.151
30002WAT     H290249   3.361   3.682   1.989
30003WAT      O90250   0.524   8.508   5.302
30003WAT     H190251   0.529   8.568   5.382
30003WAT     H290252   0.478   8.423   5.327
30004WAT      O90253   5.454   3.825   4.542
30004WAT     H190254   5.373   3.800   4.489
30004WAT     H290255   5.429   3.840   4.637
30005WAT      O90256   7.033   5.112   8.850
30005WAT     H190257   6.939   5.089   8.826
30005WAT     H290258   7.035   5.199   8.901
30006WAT      O90259   6.368   4.885   1.098
30006WAT     H190260   6.361   4.807   1.159
30006WAT     H290261   6.316   4.868   1.014
30007WAT      O90262   7.645   7.172   7.012
30007WAT     H190263   7.580   7.139   6.943
30007WAT     H290264   7.680   7.094   7.064
30008WAT      O90265   1.043   7.369   2.112
30008WAT     H190266   1.054   7.466   2.135
30008WAT     H290267   0.968   7.359   2.047
30009WAT      O90268   3.889   1.076   8.194
30009WAT     H190269   3.812   1.015   8.179
30009WAT     H290270   3.857   1.170   8.203
30010WAT      O90271   2.981   9.142   5.620
30010WAT     H190272   3.004   9.158   5.716
30010WAT     H290273   3.009   9.050   5.593
30011WAT      O90274   9.567   1.782   7.839
30011WAT     H190275   9.515   1.860   7.805
30011WAT     H290276   9.537   1.759   7.931
30012WAT      O90277   4.618   3.599   6.059
30012WAT     H190278   4.590   3.666   6.128
30012WAT     H290279   4.711   3.567   6.079
30013WAT      O90280   6.689   9.208   8.225
30013WAT     H190281   6.670   9.305   8.235
30013WAT     H290282   6.756   9.179   8.292
30014WAT      O90283   5.198   2.060   3.541
30014WAT     H190284   5.164   2.130   3.603
30014WAT     H290285   5.126   2.036   3.476
30015WAT      O90286   5.476   1.741   4.145
30015WAT     H190287   5.481   1.823   4.088
30015WAT     H290288   5.507   1.762   4.237
30016WAT      O90289   9.063   6.467   3.795
30016WAT     H190290   9.135   6.509   3.740
30016WAT     H290291   9.049   6.373   3.765
30017WAT      O90292   8.551   4.274   8.092
30017WAT     H190293   8.572   4.203   8.026
30017WAT     H290294   8.462   4.314   8.071
30018WAT      O90295   0.053   6.379   6.929
30018WAT     H190296   0.071   6.463   6.877
30018WAT     H290297   0.085   6.391   7.023
30019WAT      O90298   0.842   4.755   9.202
30019WAT     H190299   0.928   4.718   9.165
30019WAT     H290300   0.789   4.681   9.242
30020WAT      O90301   0.095   3.057   6.205
30020WAT     H190302   0.047   3.102   6.281
30020WAT     H290303   0.193   3.069   6.216
30021WAT      O90304   6.782   7.074   1.928
30021WAT     H190305   6.685   7.053   1.924
30021WAT     H290306   6.835   6.989   1.934
30022WAT      O90307   3.903   2.905   0.313
30022WAT     H190308   3.982   2.848   0.292
30022WAT     H290309   3.820   2.851   0.306
30023WAT      O90310   8.781   7.958   9.204
30023WAT     H190311   8.729   7.890   9.256
30023WAT     H290312   8.786   8.043   9.256
30024WAT      O90313   6.780   6.079   9.521
30024WAT     H190314   6.721   6.042   9.449
30024WAT     H290315   6.736   6.158   9.563
30025WAT      O90316   2.438   0.060   0.309
30025WAT     H190317   2.350   0.024   0.278
30025WAT     H290318   2.499  -0.016   0.330
30026WAT      O90319   3.540   4.060   7.581
30026WAT     H190320   3.477   4.027   7.651
30026WAT     H290321   3.546   4.160   7.587
30027WAT      O90322   9.861   5.620   6.088
30027WAT     H190323   9.960   5.613   6.086
30027WAT     H290324   9.820   5.534   6.057
30028WAT      O90325   4.697   2.949   6.538
30028WAT     H190326   4.600   2.960   6.514
30028WAT     H290327   4.706   2.923   6.634
30029WAT      O90328   6.953   7.163   9.733
30029WAT     H190329   7.006   7.135   9.813
30029WAT     H290330   7.009   7.152   9.651
30030WAT      O90331   1.533   8.524   1.990
30030WAT     H190332   1.445   8.546   2.031
30030WAT     H290333   1.606   8.546   2.054
30031WAT      O90334   0.138   9.776   3.643
30031WAT     H190335   0.084   9.847   3.598
30031WAT     H290336   0.221   9.816   3.682
30032WAT      O90337   2.862   1.561   8.649
30032WAT     H190338   2.929   1.490   8.667
30032WAT     H290339   2.855   1.622   8.728
30033WAT      O90340   2.074   7.337   4.579
30033WAT     H190341   1.976   7.336   4.600
30033WAT     H290342   2.110   7.244   4.587
30034WAT      O90343   7.133   6.520   8.510
30034WAT     H190344   7.064   6.475   8.566
30034WAT     H290345   7.141   6.616   8.537
30035WAT      O90346   8.787   6.499   7.321
30035WAT     H190347   8.875   6.453   7.327
30035WAT     H290348   8.713   6.432   7.333
30036WAT      O90349   5.413   3.042   7.337
30036WAT     H190350   5.377   2.963   7.385
30036WAT     H290351   5.500   3.069   7.378
30037WAT      O90352   9.540   1.294   2.470
30037WAT     H190353   9.444   1.267   2.466
30037WAT     H290354   9.595   1.228   2.418
30038WAT      O90355   0.462   5.476   2.774
30038WAT     H190356   0.419   5.558   2.734
30038WAT     H290357   0.438   5.396   2.719
30039WAT      O90358   9.847   8.240   1.616
30039WAT     H190359   9.851   8.340   1.615
30039WAT     H290360   9.888   8.206   1.701
30040WAT      O90361   9.865   7.728   1.207
30040WAT     H190362   9.930   7.656   1.230
30040WAT     H290363   9.796   7.735   1.279
30041WAT      O90364   0.511   3.956   9.441
30041WAT     H190365   0.579   4.024   9.471
30041WAT     H290366   0.450   3.935   9.518
30042WAT      O90367   6.275   8.529   8.313
30042WAT     H190368   6.214   8.608   8.319
30042WAT     H290369   6.244   8.468   8.241
30043WAT      O90370   5.605   0.711   4.474
30043WAT     H190371   5.678   0.779   4.481
30043WAT     H290372   5.602   0.657   4.559
30044WAT      O90373   7.486   6.179   0.335
30044WAT     H190374   7.514   6.231   0.416
30044WAT     H290375   7.386   6.182   0.327
30045WAT      O90376   3.384   3.009   8.250
30045WAT     H190377   3.482   2.986   8.250
30045WAT     H290378   3.331   2.930   8.281
30046WAT      O90379   2.580   1.346   7.790
30046WAT     H190380   2.530   1.278   7.843
30046WAT     H290381   2.517   1.414   7.753
30047WAT      O90382   0.644   9.556   6.225
30047WAT     H190383   0.566   9.563   6.287
30047WAT     H290384   0.728   9.543   6.278
30048WAT      O90385   0.377   7.464   2.883
30048WAT     H190386   0.445   7.482   2.953
30048WAT     H290387   0.286   7.457   2.925
30049WAT      O90388   9.143   1.253   7.959
30049WAT     H190389   9.175   1.234   7.866
30049WAT     H290390   9.192   1.332   7.996
30050WAT      O90391   4.402   1.541   3.735
30050WAT     H190392   4.306   1.565   3.752
30050WAT     H290393   4.418   1.536   3.636
30051WAT      O90394   2.911   8.666   0.701
30051WAT     H190395   2.936   8.748   0.648
30051WAT     H290396   2.908   8.587   0.639
30052WAT      O90397   1.885   7.685   7.652
30052WAT     H190398   1.931   7.689   7.740
30052WAT     H290399   1.851   7.775   7.627
30053WAT      O90400   5.435   1.129   6.168
30053WAT     H190401   5.342   1.124   6.204
30053WAT     H290402   5.436   1.102   6.072
30054WAT      O90403   8.248   1.129   5.968
30054WAT     H190404   8.266   1.042   6.014
30054WAT     H290405   8.149   1.147   5.968
30055WAT      O90406   2.993   8.821   7.836
30055WAT     H190407   3.015   8.723   7.837
30055WAT     H290408   3.023   8.860   7.749
30056WAT      O90409   5.398   8.174   8.191
30056WAT     H190410   5.469   8.124   8.242
30056WAT     H290411   5.356   8.242   8.251
30057WAT      O90412   9.299   1.100   7.748
30057WAT     H190413   9.272   1.012   7.785
30057WAT     H290414   9.285   1.100   7.649
30058WAT      O90415   5.620   0.423   3.424
30058WAT     H190416   5.612   0.332   3.383
30058WAT     H290417   5.709   0.462   3.401
30059WAT      O90418   2.217   0.559   5.900
30059WAT     H190419   2.139   0.539   5.959
30059WAT     H290420   2.265   0.474   5.878
30060WAT      O90421   0.703   2.076   4.553
30060WAT     H190422   0.787   2.075   4.606
30060WAT     H290423   0.629   2.113   4.609
30061WAT      O90424   2.347   4.426   9.157
30061WAT     H190425   2.369   4.468   9.069
30061WAT     H290426   2.401   4.342   9.169
30062WAT      O90427   9.004   7.622   4.717
30062WAT     H190428   8.993   7.530   4.680
30062WAT     H290429   8.952   7.686   4.661
30063WAT      O90430   2.336   9.824   9.636
30063WAT     H190431   2.278   9.904   9.651
30063WAT     H290432   2.432   9.850   9.649
30064WAT      O90433   6.715   5.027   4.360
30064WAT     H190434   6.633   4.970   4.352
30064WAT     H290435   6.695   5.119   4.327
30065WAT      O90436   6.979   9.625   1.797
30065WAT     H190437   6.882   9.604   1.815
30065WAT     H290438   7.034   9.544   1.815
30066WAT      O90439   1.796   2.511   0.462
30066WAT     H190440   1.774   2.492   0.366
30066WAT     H290441   1.737   2.586   0.494
30067WAT      O90442   4.930   0.700   3.717
30067WAT     H190443   4.934   0.789   3.763
30067WAT     H290444   4.906   0.714   3.621
30068WAT      O90445   6.263   6.406   5.587
30068WAT     H190446   6.239   6.310   5.570
30068WAT     H290447   6.191   6.449   5.641
30069WAT      O90448   9.707   8.760   9.330
30069WAT     H190449   9.736   8.842   9.281
30069WAT     H290450   9.779   8.729   9.391
30070WAT      O90451   6.470   3.416   9.012
30070WAT     H190452   6.510   3.324   9.004
30070WAT     H290453   6.495   3.470   8.932
30071WAT      O90454   1.065   3.660   4.998
30071WAT     H190455   0.987   3.630   5.053
30071WAT     H290456   1.114   3.733   5.046
30072WAT      O90457   7.831   3.889   6.062
30072WAT     H190458   7.840   3.857   5.967
30072WAT     H290459   7.794   3.982   6.062
30073WAT      O90460   1.923   0.764   4.828
30073WAT     H190461   1.895   0.669   4.815
30073WAT     H290462   2.011   0.767   4.875
30074WAT      O90463   0.468   3.490   6.809
30074WAT     H190464   0.510   3.464   6.896
30074WAT     H290465   0.383   3.440   6.797
30075WAT      O90466   4.399   9.097   2.817
30075WAT     H190467   4.406   9.115   2.915
30075WAT     H290468   4.316   9.139   2.781
30076WAT      O90469   1.214   0.536   7.080
30076WAT     H190470   1.203   0.466   7.151
30076WAT     H290471   1.288   0.598   7.107
30077WAT      O90472   7.249   6.990   7.438
30077WAT     H190473   7.149   6.999   7.444
30077WAT     H290474   7.290   7.079   7.420
30078WAT      O90475   7.847   4.634   3.854
30078WAT     H190476   7.913   4.566   3.887
30078WAT     H290477   7.756   4.593   3.850
30079WAT      O90478   3.181   3.153   1.568
30079WAT     H190479   3.201   3.206   1.486
30079WAT     H290480   3.094   3.105   1.557
30080WAT      O90481   5.769   0.473   8.863
30080WAT     H190482   5.816   0.497   8.948
30080WAT     H290483   5.676   0.511   8.865
30081WAT      O90484   0.792   4.580   7.829
30081WAT     H190485   0.809   4.485   7.800
30081WAT     H290486   0.876   4.633   7.820
30082WAT      O90487   4.262   8.687   0.085
30082WAT     H190488   4.163   8.681   0.096
30082WAT     H290489   4.307   8.623   0.147
30083WAT      O90490   1.428   5.071   0.356
30083WAT     H190491   1.389   5.153   0.316
30083WAT     H290492   1.517   5.053   0.315
30084WAT      O90493   8.076   8.610   8.436
30084WAT     H190494   8.164   8.587   8.478
30084WAT     H290495   8.021   8.527   8.426
30085WAT      O90496   2.318   4.470   2.915
30085WAT     H190497   2.347   4.400   2.980
30085WAT     H290498   2.221   4.490   2.929
30086WAT      O90499   4.566   8.827   3.642
30086WAT     H190500   4.607   8.787   3.724
30086WAT     H290501   4.550   8.925   3.656
30087WAT      O90502   6.445   9.313   2.924
30087WAT     H190503   6.540   9.284   2.907
30087WAT     H290504   6.418   9.379   2.854
30088WAT      O90505   8.029   2.189   6.749
30088WAT     H190506   7.940   2.200   6.792
30088WAT     H290507   8.078   2.276   6.751
30089WAT      O90508   1.038   4.298   1.860
30089WAT     H190509   1.055   4.270   1.766
30089WAT     H290510   1.119   4.282   1.916
30090WAT      O90511   7.231   8.152   7.175
30090WAT     H190512   7.314   8.098   7.190
30090WAT     H290513   7.245   8.244   7.210
30091WAT      O90514   0.996   5.160   5.513
30091WAT     H190515   0.951   5.133   5.428
30091WAT     H290516   0.927   5.196   5.577
30092WAT      O90517   5.166   7.583   1.876
30092WAT     H190518   5.127   7.597   1.785
30092WAT     H290519   5.095   7.548   1.937
30093WAT      O90520   4.482   1.233   3.207
30093WAT     H190521   4.431   1.309   3.247
30093WAT     H290522   4.498   1.250   3.110
30094WAT      O90523   0.241   1.447   7.192
30094WAT     H190524   0.289   1.534   7.189
30094WAT     H290525   0.235   1.416   7.287
30095WAT      O90526   7.847   8.558   2.548
30095WAT     H190527   7.936   8.524   2.578
30095WAT     H290528   7.836   8.653   2.578
30096WAT      O90529   2.533   4.812   1.007
30096WAT     H190530   2.451   4.811   0.950
30096WAT     H290531   2.531   4.893   1.065
30097WAT      O90532   8.747   8.069   8.584
30097WAT     H190533   8.824   8.046   8.643
30097WAT     H290534   8.768   8.043   8.490
30098WAT      O90535   7.440   9.061   2.327
30098WAT     H190536   7.534   9.082   2.358
30098WAT     H290537   7.384   9.038   2.406
30099WAT      O90538   2.762   9.219   4.481
30099WAT     H190539   2.730   9.290   4.418
30099WAT     H290540   2.843   9.252   4.529
30100WAT      O90541   3.046   1.132   5.383
30100WAT     H190542   2.999   1.110   5.298
30100WAT     H290543   3.035   1.229   5.404
30101WAT      O90544   2.451   3.817   4.558
30101WAT     H190545   2.370   3.776   4.600
30101WAT     H290546   2.434   3.913   4.538
30102WAT      O90547   8.505   2.835   2.747
30102WAT     H190548   8.485   2.931   2.766
30102WAT     H290549   8.500   2.820   2.648
30103WAT      O90550   5.172   9.440   6.780
30103WAT     H190551   5.098   9.463   6.716
30103WAT     H290552   5.136   9.381   6.852
30104WAT      O90553   2.590   0.840   8.835
30104WAT     H190554   2.659   0.799   8.775
30104WAT     H290555   2.523   0.771   8.862
30105WAT      O90556   6.077   8.910   8.001
30105WAT     H190557   6.154   8.914   7.938
30105WAT     H290558   6.001   8.862   7.958
30106WAT      O90559   4.294   0.065   6.278
30106WAT     H190560   4.195   0.075   6.292
30106WAT     H290561   4.323  -0.027   6.304
30107WAT      O90562   7.348   0.580   3.514
30107WAT     H190563   7.364   0.662   3.569
30107WAT     H290564   7.337   0.501   3.574
30108WAT      O90565   5.286   6.365   7.215
30108WAT     H190566   5.337   6.284   7.185
30108WAT     H290567   5.236   6.404   7.138
30109WAT      O90568   2.969   5.439   0.504
30109WAT     H190569   3.048   5.392   0.465
30109WAT     H290570   2.932   5.503   0.437
30110WAT      O90571   3.948   3.033   2.616
30110WAT     H190572   3.889   3.063   2.541
30110WAT     H290573   3.995   3.113   2.654
30111WAT      O90574   2.648   3.214   5.858
30111WAT     H190575   2.667   3.301   5.902
30111WAT     H290576   2.732   3.177   5.817
30112WAT      O90577   0.453   6.764   4.045
30112WAT     H190578   0.354   6.774   4.055
30112WAT     H290579   0.481   6.801   3.956
30113WAT      O90580   9.411   9.497   6.675
30113WAT     H190581   9.453   9.410   6.697
30113WAT     H290582   9.342   9.520   6.744
30114WAT      O90583   0.848   6.507   7.826
30114WAT     H190584   0.774   6.513   7.759
30114WAT     H290585   0.896   6.595   7.832
30115WAT      O90586   5.723   3.339   9.511
30115WAT     H190587   5.777   3.311   9.432
30115WAT     H290588   5.732   3.271   9.584
30116WAT      O90589   0.370   2.540   5.957
30116WAT     H190590   0.320   2.625   5.974
30116WAT     H290591   0.356   2.478   6.034
30117WAT      O90592   6.917   2.751   3.091
30117WAT     H190593   6.991   2.796   3.142
30117WAT     H290594   6.844   2.817   3.072
30118WAT      O90595   9.855   8.794   4.919
30118WAT     H190596   9.789   8.724   4.889
30118WAT     H290597   9.870   8.785   5.018
30119WAT      O90598   2.011   9.520   5.363
30119WAT     H190599   2.042   9.582   5.291
30119WAT     H290600   2.064   9.538   5.446
30120WAT      O90601   6.209   5.627   7.850
30120WAT     H190602   6.210   5.660   7.945
30120WAT     H290603   6.252   5.537   7.846
30121WAT      O90604   8.876   8.340   8.214
30121WAT     H190605   8.975   8.328   8.221
30121WAT     H290606   8.848   8.334   8.118
30122WAT      O90607   3.809   3.585   6.828
30122WAT     H190608   3.723   3.610   6.785
30122WAT     H290609   3.858   3.520   6.769
30123WAT      O90610   5.195   6.293   9.277
30123WAT     H190611   5.243   6.373   9.313
30123WAT     H290612   5.134   6.321   9.203
30124WAT      O90613   0.732   5.772   7.750
30124WAT     H190614   0.685   5.742   7.667
30124WAT     H290615   0.811   5.712   7.767
30125WAT      O90616   4.338   4.615   6.775
30125WAT     H190617   4.251   4.663   6.789
30125WAT     H290618   4.379   4.645   6.689
30126WAT      O90619   3.236   5.138   5.080
30126WAT     H190620   3.287   5.053   5.071
30126WAT     H290621   3.150   5.131   5.029
30127WAT      O90622   1.212   6.499   3.027
30127WAT     H190623   1.295   6.475   2.977
30127WAT     H290624   1.132   6.480   2.970
30128WAT      O90625   2.822   3.790   1.780
30128WAT     H190626   2.750   3.728   1.750
30128WAT     H290627   2.794   3.836   1.865
30129WAT      O90628   8.569   2.944   6.305
30129WAT     H190629   8.630   2.982   6.235
30129WAT     H290630   8.615   2.947   6.394
30130WAT      O90631   1.657   4.547   5.792
30130WAT     H190632   1.708   4.566   5.708
30130WAT     H290633   1.718   4.558   5.871
30131WAT      O90634   2.639   6.113   5.488
30131WAT     H190635   2.587   6.066   5.417
30131WAT     H290636   2.708   6.050   5.525
30132WAT      O90637   6.143   9.243   7.737
30132WAT     H190638   6.212   9.195   7.792
30132WAT     H290639   6.073   9.178   7.707
30133WAT      O90640   1.320   9.623   9.774
30133WAT     H190641   1.342   9.669   9.860
30133WAT     H290642   1.389   9.647   9.705
30134WAT      O90643   3.157   0.688   6.541
30134WAT     H190644   3.222   0.724   6.608
30134WAT     H290645   3.066   0.684   6.582
30135WAT      O90646   4.674   1.698   7.210
30135WAT     H190647   4.767   1.670   7.232
30135WAT     H290648   4.667   1.716   7.112
30136WAT      O90649   2.068   6.300   8.472
30136WAT     H190650   2.028   6.368   8.410
30136WAT     H290651   1.999   6.270   8.538
30137WAT      O90652   0.082   9.454   1.417
30137WAT     H190653   0.143   9.524   1.379
30137WAT     H290654   0.062   9.475   1.513
30138WAT      O90655   4.679   2.548   3.552
30138WAT     H190656   4.701   2.645   3.554
30138WAT     H290657   4.685   2.515   3.458
30139WAT      O90658   4.768   4.077   4.028
30139WAT     H190659   4.865   4.058   4.015
30139WAT     H290660   4.757   4.151   4.094
30140WAT      O90661   5.514   4.656   8.230
30140WAT     H190662   5.603   4.610   8.222
30140WAT     H290663   5.497   4.679   8.325
30141WAT      O90664   6.312   8.975   7.179
30141WAT     H190665   6.411   8.984   7.172
30141WAT     H290666   6.289   8.892   7.229
30142WAT      O90667   5.637   8.919   4.510
30142WAT     H190668   5.667   8.893   4.601
30142WAT     H290669   5.594   9.010   4.513
30143WAT      O90670   9.806   6.732   6.448
30143WAT     H190671   9.862   6.798   6.399
30143WAT     H290672   9.716   6.770   6.465
30144WAT      O90673   7.158   0.317   5.960
30144WAT     H190674   7.199   0.230   5.989
30144WAT     H290675   7.115   0.306   5.871
30145WAT      O90676   4.237   6.318   4.508
30145WAT     H190677   4.200   6.411   4.506
30145WAT     H290678   4.219   6.274   4.420
30146WAT      O90679   8.348   1.504   1.523
30146WAT     H190680   8.286   1.580   1.505
30146WAT     H290681   8.390   1.516   1.613
30147WAT      O90682   8.195   8.183   3.180
30147WAT     H190683   8.137   8.104   3.167
30147WAT     H290684   8.248   8.172   3.265
30148WAT      O90685   3.403   4.222   9.824
30148WAT     H190686   3.350   4.277   9.889
30148WAT     H290687   3.489   4.269   9.804
30149WAT      O90688   8.498   9.028   0.405
30149WAT     H190689   8.531   8.934   0.408
30149WAT     H290690   8.511   9.071   0.495
30150WAT      O90691   6.960   3.270   6.271
30150WAT     H190692   6.982   3.326   6.351
30150WAT     H290693   7.000   3.179   6.282
30151WAT      O90694   5.155   3.576   7.505
30151WAT     H190695   5.204   3.580   7.592
30151WAT     H290696   5.066   3.622   7.514
30152WAT      O90697   5.256   1.335   7.421
30152WAT     H190698   5.353   1.310   7.424
30152WAT     H290699   5.225   1.337   7.326
30153WAT      O90700   5.723   0.469   5.430
30153WAT     H190701   5.720   0.540   5.359
30153WAT     H290702   5.689   0.507   5.516
30154WAT      O90703   3.197   2.844   4.046
30154WAT     H190704   3.134   2.809   3.976
30154WAT     H290705   3.144   2.890   4.118
30155WAT      O90706   6.368   9.636   4.575
30155WAT     H190707   6.289   9.651   4.515
30155WAT     H290708   6.406   9.724   4.603
30156WAT      O90709   8.661   1.873   9.334
30156WAT     H190710   8.664   1.816   9.252
30156WAT     H290711   8.745   1.860   9.387
30157WAT      O90712   3.610   8.687   6.984
30157WAT     H190713   3.598   8.613   7.050
30157WAT     H290714   3.521   8.714   6.947
30158WAT      O90715   2.822   1.876   8.397
30158WAT     H190716   2.747   1.851   8.335
30158WAT     H290717   2.789   1.869   8.491
30159WAT      O90718   6.024   2.419   1.673
30159WAT     H190719   6.018   2.498   1.733
30159WAT     H290720   6.106   2.366   1.694
30160WAT      O90721   9.417   6.146   9.103
30160WAT     H190722   9.493   6.175   9.044
30160WAT     H290723   9.436   6.054   9.138
30161WAT      O90724   8.204   7.350   1.975
30161WAT     H190725   8.162   7.436   2.003
30161WAT     H290726   8.141   7.275   1.994
30162WAT      O90727   5.471   8.889   6.171
30162WAT     H190728   5.469   8.989   6.166
30162WAT     H290729   5.433   8.859   6.259
30163WAT      O90730   4.650   7.776   3.797
30163WAT     H190731   4.580   7.837   3.760
30163WAT     H290732   4.628   7.756   3.893
30164WAT      O90733   3.042   3.524   5.395
30164WAT     H190734   3.007   3.574   5.317
30164WAT     H290735   2.986   3.442   5.410
30165WAT      O90736   3.303   6.356   7.875
30165WAT     H190737   3.301   6.455   7.858
30165WAT     H290738   3.381   6.315   7.827
30166WAT      O90739   7.444   3.360   1.988
30166WAT     H190740   7.352   3.346   1.951
30166WAT     H290741   7.490   3.432   1.937
30167WAT      O90742   8.393   4.241   4.564
30167WAT     H190743   8.376   4.220   4.468
30167WAT     H290744   8.478   4.294   4.573
30168WAT      O90745   9.731   0.801   1.758
30168WAT     H190746   9.803   0.731   1.760
30168WAT     H290747   9.765   0.885   1.800
30169WAT      O90748   8.658   5.696   2.276
30169WAT     H190749   8.690   5.791   2.281
30169WAT     H290750   8.638   5.672   2.181
30170WAT      O90751   3.111   0.534   8.738
30170WAT     H190752   3.052   0.547   8.658
30170WAT     H290753   3.056   0.538   8.821
30171WAT      O90754   6.150   2.963   6.563
30171WAT     H190755   6.056   2.996   6.549
30171WAT     H290756   6.200   2.968   6.477
30172WAT      O90757   5.046   2.843   5.704
30172WAT     H190758   5.004   2.837   5.795
30172WAT     H290759   5.123   2.907   5.707
30173WAT      O90760   7.654   0.380   8.191
30173WAT     H190761   7.718   0.394   8.267
30173WAT     H290762   7.680   0.297   8.141
30174WAT      O90763   7.031   7.211   9.259
30174WAT     H190764   7.102   7.166   9.205
30174WAT     H290765   7.075   7.276   9.322
30175WAT      O90766   4.477   3.418   3.686
30175WAT     H190767   4.505   3.391   3.594
30175WAT     H290768   4.436   3.340   3.733
30176WAT      O90769   6.680   0.564   5.075
30176WAT     H190770   6.752   0.519   5.022
30176WAT     H290771   6.717   0.645   5.120
30177WAT      O90772   5.696   9.239   3.283
30177WAT     H190773   5.718   9.177   3.359
30177WAT     H290774   5.717   9.333   3.309
30178WAT      O90775   8.605   3.561   9.390
30178WAT     H190776   8.569   3.653   9.380
30178WAT     H290777   8.594   3.531   9.485
30179WAT      O90778   5.365   7.105   4.767
30179WAT     H190779   5.337   7.199   4.786
30179WAT     H290780   5.320   7.074   4.682
30180WAT      O90781   3.879   0.190   7.100
30180WAT     H190782   3.869   0.163   7.005
30180WAT     H290783   3.825   0.128   7.158
30181WAT      O90784   8.500   7.778   6.996
30181WAT     H190785   8.445   7.811   7.073
30181WAT     H290786   8.551   7.696   7.024
30182WAT      O90787   4.112   9.737   1.964
30182WAT     H190788   4.177   9.810   1.984
30182WAT     H290789   4.101   9.679   2.044
30183WAT      O90790   0.514   0.129   0.813
30183WAT     H190791   0.472   0.167   0.730
30183WAT     H290792   0.610   0.156   0.817
30184WAT      O90793   5.922   4.751   8.996
30184WAT     H190794   5.991   4.783   8.931
30184WAT     H290795   5.958   4.758   9.089
30185WAT      O90796   6.011   1.911   5.302
30185WAT     H190797   6.049   1.819   5.294
30185WAT     H290798   5.938   1.911   5.370
30186WAT      O90799   9.791   2.754   8.860
30186WAT     H190800   9.706   2.744   8.912
30186WAT     H290801   9.846   2.829   8.899
30187WAT      O90802   8.286   2.436   1.956
30187WAT     H190803   8.298   2.535   1.947
30187WAT     H290804   8.375   2.391   1.952
30188WAT      O90805   3.120   3.896   5.642
30188WAT     H190806   3.137   3.881   5.739
30188WAT     H290807   3.025   3.873   5.621
30189WAT      O90808   5.944   6.371   6.875
30189WAT     H190809   5.968   6.468   6.878
30189WAT     H290810   5.915   6.347   6.782
30190WAT      O90811   2.687   5.528   6.784
30190WAT     H190812   2.706   5.625   6.769
30190WAT     H290813   2.588   5.515   6.794
30191WAT      O90814   9.473   8.226   1.137
30191WAT     H190815   9.437   8.246   1.228
30191WAT     H290816   9.425   8.282   1.069
30192WAT      O90817   2.314   2.105   3.822
30192WAT     H190818   2.353   2.165   3.892
30192WAT     H290819   2.216   2.095   3.838
30193WAT      O90820   5.909   6.865   1.947
30193WAT     H190821   5.818   6.829   1.926
30193WAT     H290822   5.920   6.871   2.046
30194WAT      O90823   0.714   2.468   6.663
30194WAT     H190824   0.752   2.410   6.734
30194WAT     H290825   0.745   2.562   6.677
30195WAT      O90826   9.647   9.172   2.858
30195WAT     H190827   9.568   9.184   2.797
30195WAT     H290828   9.694   9.259   2.869
30196WAT      O90829   4.942   0.773   5.314
30196WAT     H190830   4.896   0.763   5.226
30196WAT     H290831   4.879   0.748   5.387
30197WAT      O90832   2.098   8.504   4.900
30197WAT     H190833   2.070   8.571   4.832
30197WAT     H290834   2.057   8.527   4.988
30198WAT      O90835   0.038   9.811   8.291
30198WAT     H190836   0.065   9.887   8.232
30198WAT     H290837   0.040   9.839   8.386
30199WAT      O90838   9.554   7.482   7.509
30199WAT     H190839   9.469   7.441   7.542
30199WAT     H290840   9.536   7.527   7.421
30200WAT      O90841   6.165   7.881   5.010
30200WAT     H190842   6.246   7.932   5.040
30200WAT     H290843   6.133   7.823   5.084
30201WAT      O90844   2.811   1.121   6.996
30201WAT     H190845   2.834   1.024   7.008
30201WAT     H290846   2.881   1.166   6.941
30202WAT      O90847   7.291   1.933   7.201
30202WAT     H190848   7.318   1.999   7.270
30202WAT     H290849   7.370   1.876   7.177
30203WAT      O90850   0.595   4.759   6.585
30203WAT     H190851   0.624   4.822   6.657
30203WAT     H290852   0.675   4.718   6.541
30204WAT      O90853   3.614   9.103   1.862
30204WAT     H190854   3.593   9.072   1.955
30204WAT     H290855   3.530   9.106   1.808
30205WAT      O90856   5.671   6.443   8.866
30205WAT     H190857   5.676   6.369   8.798
30205WAT     H290858   5.725   6.418   8.946
30206WAT      O90859   9.321   2.720   7.110
30206WAT     H190860   9.298   2.623   7.107
30206WAT     H290861   9.303   2.761   7.020
30207WAT      O90862   2.037   3.573   1.017
30207WAT     H190863   1.951   3.580   0.967
30207WAT     H290864   2.058   3.477   1.034
30208WAT      O90865   8.245   4.440   7.753
30208WAT     H190866   8.174   4.386   7.707
30208WAT     H290867   8.226   4.537   7.741
30209WAT      O90868   0.591   5.326   3.364
30209WAT     H190869   0.554   5.413   3.329
30209WAT     H290870   0.654   5.287   3.297
30210WAT      O90871   3.553   8.124   7.269
30210WAT     H190872   3.648   8.113   7.298
30210WAT     H290873   3.503   8.177   7.337
30211WAT      O90874   6.226   7.761   2.515
30211WAT     H190875   6.275   7.806   2.590
30211WAT     H290876   6.130   7.748   2.541
30212WAT      O90877   6.585   7.181   2.206
30212WAT     H190878   6.517   7.249   2.178
30212WAT     H290879   6.677   7.218   2.190
30213WAT      O90880   5.727   0.505   2.429
30213WAT     H190881   5.639   0.518   2.384
30213WAT     H290882   5.732   0.414   2.468
30214WAT      O90883   1.176   7.249   4.994
30214WAT     H190884   1.209   7.162   5.031
30214WAT     H290885   1.238   7.323   5.022
30215WAT      O90886   4.198   8.532   3.013
30215WAT     H190887   4.133   8.460   2.988
30215WAT     H290888   4.211   8.593   2.935
30216WAT      O90889   0.605   5.521   0.574
30216WAT     H190890   0.638   5.516   0.480
30216WAT     H290891   0.587   5.617   0.598
30217WAT      O90892   0.327   5.003   9.196
30217WAT     H190893   0.236   4.983   9.160
30217WAT     H290894   0.396   4.965   9.135
30218WAT      O90895   5.223   4.271   5.412
30218WAT     H190896   5.151   4.261   5.481
30218WAT     H290897   5.312   4.274   5.457
30219WAT      O90898   4.895   0.927   8.875
30219WAT     H190899   4.884   0.941   8.974
30219WAT     H290900   4.806   0.932   8.831
30220WAT      O90901   6.221   1.508   1.094
30220WAT     H190902   6.258   1.540   1.007
30220WAT     H290903   6.121   1.515   1.092
30221WAT      O90904   1.167   7.841   9.103
30221WAT     H190905   1.130   7.750   9.088
30221WAT     H290906   1.246   7.835   9.164
30222WAT      O90907   1.204   0.303   2.346
30222WAT     H190908   1.108   0.328   2.344
30222WAT     H290909   1.217   0.226   2.407
30223WAT      O90910   2.223   1.692   7.473
30223WAT     H190911   2.295   1.673   7.406
30223WAT     H290912   2.264   1.736   7.553
30224WAT      O90913   4.655   0.654   9.463
30224WAT     H190914   4.582   0.647   9.531
30224WAT     H290915   4.617   0.689   9.377
30225WAT      O90916   6.423   0.864   8.280
30225WAT     H190917   6.478   0.936   8.237
30225WAT     H290918   6.403   0.890   8.375
30226WAT      O90919   7.148   0.675   3.331
30226WAT     H190920   7.211   0.640   3.401
30226WAT     H290921   7.194   0.747   3.278
30227WAT      O90922   4.208   9.703   4.152
30227WAT     H190923   4.298   9.708   4.109
30227WAT     H290924   4.212   9.746   4.242
30228WAT      O90925   3.714   9.306   8.975
30228WAT     H190926   3.804   9.271   8.951
30228WAT     H290927   3.655   9.230   9.002
30229WAT      O90928   5.133   3.409   9.508
30229WAT     H190929   5.137   3.363   9.597
30229WAT     H290930   5.216   3.387   9.456
30230WAT      O90931   0.644   9.835   7.714
30230WAT     H190932   0.559   9.854   7.667
30230WAT     H290933   0.633   9.753   7.771
30231WAT      O90934   5.886   0.801   1.158
30231WAT     H190935   5.799   0.822   1.113
30231WAT     H290936   5.869   0.749   1.241
30232WAT      O90937   2.499   3.826   8.869
30232WAT     H190938   2.429   3.844   8.939
30232WAT     H290939   2.474   3.743   8.819
30233WAT      O90940   0.373   4.573   9.091
30233WAT     H190941   0.360   4.569   9.190
30233WAT     H290942   0.402   4.665   9.065
30234WAT      O90943   6.712   8.620   6.823
30234WAT     H190944   6.771   8.658   6.895
30234WAT     H290945   6.712   8.682   6.744
30235WAT      O90946   4.050   3.230   5.367
30235WAT     H190947   4.003   3.239   5.279
30235WAT     H290948   4.148   3.216   5.350
30236WAT      O90949   3.771   2.278   5.645
30236WAT     H190950   3.803   2.362   5.688
30236WAT     H290951   3.754   2.294   5.548
30237WAT      O90952   6.513   0.248   8.381
30237WAT     H190953   6.530   0.346   8.378
30237WAT     H290954   6.463   0.220   8.300
30238WAT      O90955   0.545   0.221   7.427
30238WAT     H190956   0.602   0.192   7.350
30238WAT     H290957   0.503   0.141   7.470
30239WAT      O90958   4.915   4.288   9.511
30239WAT     H190959   4.865   4.201   9.513
30239WAT     H290960   4.907   4.332   9.601
30240WAT      O90961   1.057   3.611   3.895
30240WAT     H190962   1.140   3.571   3.935
30240WAT     H290963   1.059   3.711   3.907
30241WAT      O90964   7.754   5.563   2.357
30241WAT     H190965   7.794   5.472   2.366
30241WAT     H290966   7.807   5.616   2.291
30242WAT      O90967   1.256   6.629   7.704
30242WAT     H190968   1.348   6.606   7.672
30242WAT     H290969   1.249   6.610   7.801
30243WAT      O90970   4.778   1.476   5.209
30243WAT     H190971   4.746   1.514   5.296
30243WAT     H290972   4.724   1.395   5.186
30244WAT      O90973   3.737   0.603   6.879
30244WAT     H190974   3.771   0.509   6.884
30244WAT     H290975   3.808   0.663   6.845
30245WAT      O90976   1.660   6.887   2.446
30245WAT     H190977   1.725   6.816   2.419
30245WAT     H290978   1.572   6.870   2.401
30246WAT      O90979   8.356   3.676   8.980
30246WAT     H190980   8.386   3.608   9.046
30246WAT     H290981   8.375   3.644   8.887
30247WAT      O90982   9.355   2.746   6.786
30247WAT     H190983   9.294   2.741   6.707
30247WAT     H290984   9.339   2.831   6.835
30248WAT      O90985   9.679   6.425   9.691
30248WAT     H190986   9.731   6.348   9.653
30248WAT     H290987   9.624   6.393   9.768
30249WAT      O90988   0.797   2.375   5.989
30249WAT     H190989   0.775   2.344   5.896
30249WAT     H290990   0.738   2.451   6.014
30250WAT      O90991   8.813   0.038   2.728
30250WAT     H190992   8.796  -0.061   2.730
30250WAT     H290993   8.874   0.063   2.803
30251WAT      O90994   6.187   1.261   9.272
30251WAT     H190995   6.099   1.291   9.234
30251WAT     H290996   6.195   1.293   9.367
30252WAT      O90997   5.687   8.020   8.745
30252WAT     H190998   5.781   8.042   8.720
30252WAT     H290999   5.628   8.028   8.664
30253WAT      O91000   4.831   5.826   2.213
30253WAT     H191001   4.833   5.847   2.115
30253WAT     H291002   4.863   5.732   2.228
30254WAT      O91003   7.497   9.379   6.826
30254WAT     H191004   7.399   9.392   6.842
30254WAT     H291005   7.549   9.416   6.903
30255WAT      O91006   5.786   0.481   7.507
30255WAT     H191007   5.877   0.445   7.485
30255WAT     H291008   5.740   0.509   7.423
30256WAT      O91009   2.064   7.819   9.318
30256WAT     H191010   2.099   7.876   9.393
30256WAT     H291011   2.081   7.723   9.338
30257WAT      O91012   0.521   2.800   7.678
30257WAT     H191013   0.568   2.737   7.740
30257WAT     H291014   0.467   2.748   7.612
30258WAT      O91015   3.204   0.494   2.930
30258WAT     H191016   3.191   0.402   2.893
30258WAT     H291017   3.294   0.528   2.904
30259WAT      O91018   4.840   2.359   5.769
30259WAT     H191019   4.933   2.322   5.781
30259WAT     H291020   4.774   2.283   5.773
30260WAT      O91021   5.765   2.735   8.955
30260WAT     H191022   5.720   2.648   8.972
30260WAT     H291023   5.710   2.809   8.993
30261WAT      O91024   0.723   8.885   4.639
30261WAT     H191025   0.807   8.894   4.586
30261WAT     H291026   0.725   8.949   4.716
30262WAT      O91027   2.411   8.254   0.828
30262WAT     H191028   2.342   8.315   0.790
30262WAT     H291029   2.497   8.264   0.778
30263WAT      O91030   7.543   3.648   2.137
30263WAT     H191031   7.459   3.641   2.192
30263WAT     H291032   7.519   3.674   2.044
30264WAT      O91033   0.903   7.603   8.176
30264WAT     H191034   0.875   7.646   8.091
30264WAT     H291035   0.894   7.503   8.168
30265WAT      O91036   7.484   4.214   7.627
30265WAT     H191037   7.574   4.251   7.604
30265WAT     H291038   7.420   4.289   7.644
30266WAT      O91039   4.969   2.815   9.793
30266WAT     H191040   4.887   2.761   9.775
30266WAT     H291041   5.018   2.832   9.707
30267WAT      O91042   4.433   7.578   9.127
30267WAT     H191043   4.394   7.512   9.064
30267WAT     H291044   4.379   7.662   9.126
30268WAT      O91045   7.415   7.814   4.937
30268WAT     H191046   7.463   7.868   4.868
30268WAT     H291047   7.354   7.749   4.892
30269WAT      O91048   1.625   9.239   4.381
30269WAT     H191049   1.640   9.209   4.475
30269WAT     H291050   1.559   9.314   4.379
30270WAT      O91051   1.773   0.924   2.241
30270WAT     H191052   1.728   1.003   2.199
30270WAT     H291053   1.844   0.955   2.303
30271WAT      O91054   3.305   6.371   4.780
30271WAT     H191055   3.356   6.289   4.754
30271WAT     H291056   3.309   6.382   4.880
30272WAT      O91057   0.025   4.090   0.408
30272WAT     H191058   0.052   3.999   0.375
30272WAT     H291059  -0.050   4.081   0.473
30273WAT      O91060   7.447   5.990   3.439
30273WAT     H191061   7.430   5.932   3.359
30273WAT     H291062   7.407   5.947   3.520
30274WAT      O91063   1.414   0.099   9.188
30274WAT     H191064   1.436   0.147   9.273
30274WAT     H291065   1.329   0.136   9.151
30275WAT      O91066   4.453   7.719   8.244
30275WAT     H191067   4.430   7.719   8.147
30275WAT     H291068   4.502   7.635   8.267
30276WAT      O91069   1.849   2.853   7.391
30276WAT     H191070   1.878   2.928   7.331
30276WAT     H291071   1.909   2.849   7.470
30277WAT      O91072   8.453   4.372   8.577
30277WAT     H191073   8.503   4.351   8.493
30277WAT     H291074   8.461   4.296   8.642
30278WAT      O91075   0.990   6.412   8.256
30278WAT     H191076   0.941   6.390   8.340
30278WAT     H291077   1.001   6.328   8.201
30279WAT      O91078   1.623   0.670   1.424
30279WAT     H191079   1.627   0.676   1.524
30279WAT     H291080   1.528   0.662   1.394
30280WAT      O91081   6.012   3.059   9.651
30280WAT     H191082   6.063   3.109   9.581
30280WAT     H291083   6.011   2.962   9.628
30281WAT      O91084   2.586   9.569   3.331
30281WAT     H191085   2.667   9.599   3.382
30281WAT     H291086   2.609   9.565   3.233
30282WAT      O91087   2.544   8.217   6.555
30282WAT     H191088   2.474   8.253   6.495
30282WAT     H291089   2.513   8.130   6.594
30283WAT      O91090   3.321   9.162   4.108
30283WAT     H191091   3.418   9.152   4.089
30283WAT     H291092   3.269   9.141   4.025
30284WAT      O91093   5.565   6.654   3.041
30284WAT     H191094   5.664   6.644   3.051
30284WAT     H291095   5.520   6.571   3.074
30285WAT      O91096   1.992   1.101   7.559
30285WAT     H191097   1.979   1.200   7.557
30285WAT     H291098   2.069   1.075   7.500
30286WAT      O91099   7.733   6.633   3.554
30286WAT     H191100   7.682   6.548   3.569
30286WAT     H291101   7.794   6.650   3.631
30287WAT      O91102   8.435   9.674   7.507
30287WAT     H191103   8.400   9.583   7.486
30287WAT     H291104   8.476   9.674   7.598
30288WAT      O91105   3.070   7.866   5.160
30288WAT     H191106   3.155   7.839   5.204
30288WAT     H291107   3.027   7.786   5.118
30289WAT      O91108   2.204   2.432   0.982
30289WAT     H191109   2.150   2.365   1.033
30289WAT     H291110   2.261   2.385   0.916
30290WAT      O91111   9.599   8.060   3.621
30290WAT     H191112   9.659   8.124   3.669
30290WAT     H291113   9.532   8.023   3.685
30291WAT      O91114   1.714   1.378   3.457
30291WAT     H191115   1.695   1.349   3.363
30291WAT     H291116   1.809   1.354   3.480
30292WAT      O91117   3.317   0.256   4.701
30292WAT     H191118   3.269   0.198   4.635
30292WAT     H291119   3.303   0.352   4.675
30293WAT      O91120   0.082   5.677   1.534
30293WAT     H191121  -0.007   5.696   1.575
30293WAT     H291122   0.127   5.604   1.585
30294WAT      O91123   5.763   8.830   4.758
30294WAT     H191124   5.755   8.897   4.832
30294WAT     H291125   5.852   8.784   4.765
30295WAT      O91126   6.326   2.192   6.325
30295WAT     H191127   6.386   2.224   6.252
30295WAT     H291128   6.325   2.259   6.399
30296WAT      O91129   9.573   7.214   2.666
30296WAT     H191130   9.476   7.233   2.680
30296WAT     H291131   9.624   7.299   2.667
30297WAT      O91132   1.625   6.667   1.920
30297WAT     H191133   1.528   6.655   1.941
30297WAT     H291134   1.643   6.634   1.828
30298WAT      O91135   6.397   1.575   9.425
30298WAT     H191136   6.410   1.509   9.351
30298WAT     H291137   6.446   1.660   9.403
30299WAT      O91138   5.876   0.176   6.546
30299WAT     H191139   5.867   0.079   6.567
30299WAT     H291140   5.816   0.199   6.469
30300WAT      O91141   7.121   2.255   8.208
30300WAT     H191142   7.094   2.161   8.228
30300WAT     H291143   7.113   2.273   8.110
30301WAT      O91144   9.054   0.723   2.415
30301WAT     H191145   9.071   0.763   2.505
30301WAT     H291146   8.979   0.657   2.422
30302WAT      O91147   3.584   4.776   8.292
30302WAT     H191148   3.568   4.755   8.196
30302WAT     H291149   3.606   4.874   8.302
30303WAT      O91150   8.873   2.627   4.851
30303WAT     H191151   8.935   2.629   4.773
30303WAT     H291152   8.781   2.602   4.821
30304WAT      O91153   5.423   0.464   5.155
30304WAT     H191154   5.429   0.403   5.234
30304WAT     H291155   5.330   0.499   5.147
30305WAT      O91156   5.482   7.853   1.614
30305WAT     H191157   5.385   7.878   1.608
30305WAT     H291158   5.518   7.880   1.703
30306WAT      O91159   9.593   8.649   4.062
30306WAT     H191160   9.524   8.588   4.102
30306WAT     H291161   9.587   8.645   3.962
30307WAT      O91162   4.536   3.236   7.998
30307WAT     H191163   4.470   3.257   8.070
30307WAT     H291164   4.564   3.320   7.952
30308WAT      O91165   7.568   8.661   5.679
30308WAT     H191166   7.526   8.750   5.662
30308WAT     H291167   7.645   8.672   5.742
30309WAT      O91168   1.757   8.778   9.223
30309WAT     H191169   1.842   8.821   9.252
30309WAT     H291170   1.768   8.678   9.223
30310WAT      O91171   3.448   1.054   4.135
30310WAT     H191172   3.475   1.064   4.231
30310WAT     H291173   3.357   1.014   4.131
30311WAT      O91174   6.012   4.781   2.612
30311WAT     H191175   5.940   4.810   2.550
30311WAT     H291176   6.101   4.801   2.571
30312WAT      O91177   6.615   1.997   6.664
30312WAT     H191178   6.685   2.041   6.721
30312WAT     H291179   6.527   2.001   6.710
30313WAT      O91180   6.434   7.128   9.751
30313WAT     H191181   6.461   7.181   9.831
30313WAT     H291182   6.514   7.080   9.714
30314WAT      O91183   8.367   6.405   1.674
30314WAT     H191184   8.420   6.329   1.635
30314WAT     H291185   8.420   6.489   1.668
30315WAT      O91186   1.379   5.319   1.553
30315WAT     H191187   1.395   5.303   1.650
30315WAT     H291188   1.383   5.417   1.534
30316WAT      O91189   5.872   8.491   4.620
30316WAT     H191190   5.927   8.458   4.543
30316WAT     H291191   5.797   8.428   4.636
30317WAT      O91192   4.605   5.023   0.749
30317WAT     H191193   4.669   5.078   0.696
30317WAT     H291194   4.522   5.007   0.695
30318WAT      O91195   7.619   2.917   7.474
30318WAT     H191196   7.555   2.976   7.525
30318WAT     H291197   7.710   2.924   7.515
30319WAT      O91198   5.217   6.970   7.666
30319WAT     H191199   5.128   6.941   7.701
30319WAT     H291200   5.277   6.993   7.742
30320WAT      O91201   2.766   8.984   1.434
30320WAT     H191202   2.695   8.913   1.426
30320WAT     H291203   2.723   9.074   1.426
30321WAT      O91204   9.404   3.811   8.033
30321WAT     H191205   9.342   3.805   7.955
30321WAT     H291206   9.498   3.809   8.002
30322WAT      O91207   2.272   1.458   3.993
30322WAT     H191208   2.289   1.441   3.896
30322WAT     H291209   2.173   1.452   4.010
30323WAT      O91210   0.509   3.774   7.114
30323WAT     H191211   0.594   3.825   7.102
30323WAT     H291212   0.434   3.824   7.072
30324WAT      O91213   9.863   7.615   7.365
30324WAT     H191214   9.821   7.655   7.446
30324WAT     H291215   9.819   7.652   7.283
30325WAT      O91216   8.068   0.552   4.697
30325WAT     H191217   8.147   0.494   4.679
30325WAT     H291218   8.096   0.632   4.749
30326WAT      O91219   0.683   0.880   3.059
30326WAT     H191220   0.773   0.910   3.028
30326WAT     H291221   0.690   0.787   3.095
30327WAT      O91222   7.103   7.532   0.442
30327WAT     H191223   7.126   7.589   0.521
30327WAT     H291224   7.004   7.521   0.437
30328WAT      O91225   5.624   3.717   2.203
30328WAT     H191226   5.639   3.622   2.231
30328WAT     H291227   5.565   3.762   2.271
30329WAT      O91228   0.840   7.176   7.204
30329WAT     H191229   0.934   7.192   7.177
30329WAT     H291230   0.783   7.253   7.175
30330WAT      O91231   9.369   8.378   6.804
30330WAT     H191232   9.286   8.426   6.832
30330WAT     H291233   9.350   8.322   6.723
30331WAT      O91234   5.677   9.519   5.332
30331WAT     H191235   5.736   9.591   5.295
30331WAT     H291236   5.642   9.548   5.422
30332WAT      O91237   6.254   7.462   1.372
30332WAT     H191238   6.175   7.443   1.430
30332WAT     H291239   6.315   7.382   1.372
30333WAT      O91240   2.933   8.430   2.001
30333WAT     H191241   2.884   8.512   1.971
30333WAT     H291242   2.908   8.353   1.942
30334WAT      O91243   5.289   3.604   4.034
30334WAT     H191244   5.281   3.679   3.967
30334WAT     H291245   5.354   3.631   4.105
30335WAT      O91246   2.358   7.794   9.828
30335WAT     H191247   2.392   7.814   9.736
30335WAT     H291248   2.376   7.872   9.888
30336WAT      O91249   8.976   1.091   0.291
30336WAT     H191250   9.007   1.182   0.266
30336WAT     H291251   9.051   1.041   0.335
30337WAT      O91252   7.360   4.796   0.824
30337WAT     H191253   7.431   4.824   0.888
30337WAT     H291254   7.373   4.842   0.736
30338WAT      O91255   3.260   0.894   2.958
30338WAT     H191256   3.230   0.811   2.911
30338WAT     H291257   3.300   0.957   2.891
30339WAT      O91258   3.816   2.987   9.828
30339WAT     H191259   3.915   2.995   9.821
30339WAT     H291260   3.791   2.892   9.849
30340WAT      O91261   7.959   5.449   9.007
30340WAT     H191262   7.957   5.530   9.065
30340WAT     H291263   8.031   5.388   9.038
30341WAT      O91264   2.293   4.796   4.384
30341WAT     H191265   2.248   4.709   4.363
30341WAT     H291266   2.223   4.864   4.409
30342WAT      O91267   7.337   7.275   7.369
30342WAT     H191268   7.348   7.331   7.451
30342WAT     H291269   7.413   7.291   7.306
30343WAT      O91270   2.491   3.158   1.813
30343WAT     H191271   2.589   3.163   1.832
30343WAT     H291272   2.443   3.223   1.871
30344WAT      O91273   2.127   3.918   3.341
30344WAT     H191274   2.204   3.862   3.372
30344WAT     H291275   2.047   3.860   3.325
30345WAT      O91276   6.731   3.619   9.621
30345WAT     H191277   6.638   3.602   9.653
30345WAT     H291278   6.763   3.708   9.653
30346WAT      O91279   9.685   3.060   1.951
30346WAT     H191280   9.769   3.113   1.940
30346WAT     H291281   9.619   3.112   2.005
30347WAT      O91282   0.866   4.898   0.788
30347WAT     H191283   0.895   4.987   0.824
30347WAT     H291284   0.872   4.830   0.861
30348WAT      O91285   5.295   2.466   6.759
30348WAT     H191286   5.202   2.429   6.765
30348WAT     H291287   5.312   2.497   6.665
30349WAT      O91288   9.010   6.220   9.450
30349WAT     H191289   8.985   6.156   9.377
30349WAT     H291290   9.070   6.174   9.516
30350WAT      O91291   8.909   7.239   1.056
30350WAT     H191292   8.959   7.278   1.133
30350WAT     H291293   8.832   7.298   1.033
30351WAT      O91294   6.816   2.345   0.942
30351WAT     H191295   6.862   2.295   0.868
30351WAT     H291296   6.884   2.371   1.011
30352WAT      O91297   2.262   7.952   8.014
30352WAT     H191298   2.217   7.863   8.014
30352WAT     H291299   2.211   8.015   8.074
30353WAT      O91300   0.133   9.795   6.498
30353WAT     H191301   0.152   9.759   6.407
30353WAT     H291302   0.175   9.736   6.567
30354WAT      O91303   9.459   0.896   4.055
30354WAT     H191304   9.370   0.940   4.042
30354WAT     H291305   9.450   0.798   4.039
30355WAT      O91306   2.661   2.119   3.040
30355WAT     H191307   2.735   2.052   3.034
30355WAT     H291308   2.577   2.080   3.003
30356WAT      O91309   6.085   6.834   6.748
30356WAT     H191310   6.109   6.859   6.654
30356WAT     H291311   6.031   6.749   6.746
30357WAT      O91312   0.754   9.299   3.720
30357WAT     H191313   0.669   9.351   3.724
30357WAT     H291314   0.753   9.239   3.639
30358WAT      O91315   7.141   3.398   9.516
30358WAT     H191316   7.110   3.446   9.434
30358WAT     H291317   7.075   3.412   9.591
30359WAT      O91318   6.410   8.425   2.224
30359WAT     H191319   6.476   8.444   2.151
30359WAT     H291320   6.389   8.510   2.272
30360WAT      O91321   8.730   3.614   6.280
30360WAT     H191322   8.636   3.628   6.249
30360WAT     H291323   8.791   3.674   6.228
30361WAT      O91324   7.048   4.155   5.754
30361WAT     H191325   6.954   4.178   5.728
30361WAT     H291326   7.077   4.215   5.828
30362WAT      O91327   7.885   4.003   3.681
30362WAT     H191328   7.840   3.970   3.764
30362WAT     H291329   7.980   4.027   3.703
30363WAT      O91330   3.003   0.506   9.620
30363WAT     H191331   3.045   0.542   9.703
30363WAT     H291332   3.049   0.422   9.593
30364WAT      O91333   6.001   7.666   6.425
30364WAT     H191334   5.975   7.611   6.346
30364WAT     H291335   5.922   7.681   6.483
30365WAT      O91336   1.426   4.544   7.798
30365WAT     H191337   1.497   4.532   7.728
30365WAT     H291338   1.461   4.600   7.873
30366WAT      O91339   4.113   9.321   4.015
30366WAT     H191340   4.207   9.314   4.048
30366WAT     H291341   4.098   9.411   3.974
30367WAT      O91342   8.457   3.813   9.641
30367WAT     H191343   8.402   3.758   9.579
30367WAT     H291344   8.423   3.803   9.734
30368WAT      O91345   1.816   2.348   2.431
30368WAT     H191346   1.905   2.343   2.476
30368WAT     H291347   1.817   2.292   2.348
30369WAT      O91348   2.966   3.577   0.969
30369WAT     H191349   2.947   3.624   1.056
30369WAT     H291350   2.881   3.543   0.930
30370WAT      O91351   8.387   5.638   7.456
30370WAT     H191352   8.417   5.724   7.498
30370WAT     H291353   8.461   5.571   7.462
30371WAT      O91354   7.649   6.927   8.804
30371WAT     H191355   7.719   6.856   8.803
30371WAT     H291356   7.692   7.015   8.827
30372WAT      O91357   6.841   9.142   7.489
30372WAT     H191358   6.776   9.116   7.560
30372WAT     H291359   6.885   9.060   7.452
30373WAT      O91360   2.685   1.801   5.984
30373WAT     H191361   2.675   1.723   6.045
30373WAT     H291362   2.595   1.843   5.968
30374WAT      O91363   0.093   6.590   0.906
30374WAT     H191364   0.157   6.520   0.874
30374WAT     H291365   0.040   6.625   0.829
30375WAT      O91366   6.686   8.735   8.267
30375WAT     H191367   6.627   8.667   8.310
30375WAT     H291368   6.725   8.794   8.337
30376WAT      O91369   0.726   0.534   1.497
30376WAT     H191370   0.797   0.516   1.428
30376WAT     H291371   0.703   0.631   1.496
30377WAT      O91372   7.308   8.769   6.583
30377WAT     H191373   7.230   8.821   6.618
30377WAT     H291374   7.278   8.705   6.512
30378WAT      O91375   2.148   9.699   3.865
30378WAT     H191376   2.238   9.700   3.908
30378WAT     H291377   2.158   9.682   3.767
30379WAT      O91378   4.720   2.783   0.339
30379WAT     H191379   4.713   2.684   0.347
30379WAT     H291380   4.635   2.820   0.302
30380WAT      O91381   2.522   4.132   0.601
30380WAT     H191382   2.565   4.090   0.680
30380WAT     H291383   2.427   4.101   0.594
30381WAT      O91384   3.369   2.748   3.525
30381WAT     H191385   3.368   2.692   3.442
30381WAT     H291386   3.282   2.738   3.573
30382WAT      O91387   8.538   8.537   3.809
30382WAT     H191388   8.588   8.458   3.775
30382WAT     H291389   8.600   8.615   3.821
30383WAT      O91390   2.132   1.947   1.346
30383WAT     H191391   2.047   1.984   1.308
30383WAT     H291392   2.210   1.983   1.294
30384WAT      O91393   3.839   2.000   5.661
30384WAT     H191394   3.925   2.045   5.684
30384WAT     H291395   3.775   2.067   5.624
30385WAT      O91396   5.743   7.282   2.958
30385WAT     H191397   5.761   7.272   2.860
30385WAT     H291398   5.808   7.226   3.010
30386WAT      O91399   0.768   8.744   9.113
30386WAT     H191400   0.784   8.679   9.039
30386WAT     H291401   0.774   8.838   9.077
30387WAT      O91402   1.193   3.134   5.573
30387WAT     H191403   1.219   3.112   5.479
30387WAT     H291404   1.093   3.133   5.581
30388WAT      O91405   7.176   0.577   4.779
30388WAT     H191406   7.221   0.488   4.769
30388WAT     H291407   7.244   0.650   4.771
30389WAT      O91408   0.971   6.046   1.954
30389WAT     H191409   0.962   5.983   2.031
30389WAT     H291410   0.922   6.009   1.875
30390WAT      O91411   0.258   3.293   0.466
30390WAT     H191412   0.246   3.299   0.367
30390WAT     H291413   0.355   3.307   0.488
30391WAT      O91414   7.665   9.169   5.170
30391WAT     H191415   7.654   9.268   5.171
30391WAT     H291416   7.673   9.137   5.076
30392WAT      O91417   0.152   0.307   6.437
30392WAT     H191418   0.202   0.259   6.366
30392WAT     H291419   0.055   0.281   6.434
30393WAT      O91420   3.265   1.872   6.679
30393WAT     H191421   3.255   1.773   6.668
30393WAT     H291422   3.192   1.918   6.629
30394WAT      O91423   6.999   9.612   2.787
30394WAT     H191424   7.036   9.573   2.872
30394WAT     H291425   6.906   9.643   2.802
30395WAT      O91426   1.264   0.726   0.642
30395WAT     H191427   1.309   0.744   0.729
30395WAT     H291428   1.176   0.773   0.639
30396WAT      O91429   5.265   6.242   3.282
30396WAT     H191430   5.180   6.200   3.312
30396WAT     H291431   5.323   6.261   3.362
30397WAT      O91432   5.905   0.579   9.061
30397WAT     H191433   6.004   0.564   9.061
30397WAT     H291434   5.867   0.554   9.151
30398WAT      O91435   7.064   9.081   7.010
30398WAT     H191436   7.035   9.135   7.089
30398WAT     H291437   7.039   9.129   6.926
30399WAT      O91438   7.108   0.428   9.037
30399WAT     H191439   7.146   0.356   9.096
30399WAT     H291440   7.021   0.398   8.999
30400WAT      O91441   7.165   9.659   6.432
30400WAT     H191442   7.079   9.705   6.411
30400WAT     H291443   7.236   9.727   6.447
30401WAT      O91444   8.694   5.217   2.960
30401WAT     H191445   8.684   5.191   3.056
30401WAT     H291446   8.647   5.304   2.944
30402WAT      O91447   8.765   8.148   6.465
30402WAT     H191448   8.757   8.114   6.371
30402WAT     H291449   8.813   8.079   6.520
30403WAT      O91450   2.778   8.252   8.268
30403WAT     H191451   2.866   8.207   8.282
30403WAT     H291452   2.776   8.294   8.177
30404WAT      O91453   7.962   1.643   2.547
30404WAT     H191454   7.938   1.605   2.458
30404WAT     H291455   7.881   1.684   2.588
30405WAT      O91456   8.185   1.857   9.435
30405WAT     H191457   8.219   1.784   9.377
30405WAT     H291458   8.129   1.819   9.508
30406WAT      O91459   6.187   3.908   2.735
30406WAT     H191460   6.089   3.914   2.715
30406WAT     H291461   6.232   3.855   2.664
30407WAT      O91462   2.238   7.204   7.266
30407WAT     H191463   2.180   7.175   7.342
30407WAT     H291464   2.326   7.234   7.301
30408WAT      O91465   6.296   0.252   2.723
30408WAT     H191466   6.219   0.316   2.723
30408WAT     H291467   6.265   0.162   2.694
30409WAT      O91468   1.978   5.480   0.924
30409WAT     H191469   1.972   5.579   0.910
30409WAT     H291470   1.920   5.454   1.001
30410WAT      O91471   2.445   4.026   1.037
30410WAT     H191472   2.436   4.027   1.137
30410WAT     H291473   2.363   4.066   0.996
30411WAT      O91474   7.901   8.855   6.730
30411WAT     H191475   7.929   8.814   6.816
30411WAT     H291476   7.904   8.955   6.738
30412WAT      O91477   9.849   5.525   0.372
30412WAT     H191478   9.802   5.439   0.388
30412WAT     H291479   9.897   5.553   0.456
30413WAT      O91480   1.417   5.459   4.644
30413WAT     H191481   1.516   5.459   4.637
30413WAT     H291482   1.381   5.546   4.610
30414WAT      O91483   4.730   6.583   7.087
30414WAT     H191484   4.675   6.666   7.078
30414WAT     H291485   4.824   6.607   7.109
30415WAT      O91486   2.897   7.505   4.286
30415WAT     H191487   2.941   7.456   4.361
30415WAT     H291488   2.816   7.455   4.255
30416WAT      O91489   9.211   8.060   9.716
30416WAT     H191490   9.137   8.016   9.664
30416WAT     H291491   9.202   8.159   9.709
30417WAT      O91492   8.744   7.826   0.017
30417WAT     H191493   8.799   7.892  -0.034
30417WAT     H291494   8.755   7.735  -0.023
30418WAT      O91495   2.838   4.979   1.548
30418WAT     H191496   2.886   4.911   1.492
30418WAT     H291497   2.884   4.987   1.636
30419WAT      O91498   4.377   5.673   6.368
30419WAT     H191499   4.386   5.667   6.467
30419WAT     H291500   4.466   5.662   6.325
30420WAT      O91501   4.119   7.643   4.230
30420WAT     H191502   4.039   7.679   4.278
30420WAT     H291503   4.106   7.545   4.213
30421WAT      O91504   5.731   6.000   2.542
30421WAT     H191505   5.660   6.049   2.592
30421WAT     H291506   5.807   6.062   2.522
30422WAT      O91507   8.776   5.390   4.911
30422WAT     H191508   8.734   5.371   5.000
30422WAT     H291509   8.830   5.474   4.917
30423WAT      O91510   3.487   4.286   9.298
30423WAT     H191511   3.558   4.222   9.271
30423WAT     H291512   3.443   4.323   9.216
30424WAT      O91513   5.938   8.122   6.552
30424WAT     H191514   6.025   8.107   6.504
30424WAT     H291515   5.940   8.074   6.640
30425WAT      O91516   7.094   7.123   8.755
30425WAT     H191517   7.076   7.218   8.781
30425WAT     H291518   7.103   7.067   8.837
30426WAT      O91519   7.458   4.736   4.620
30426WAT     H191520   7.531   4.728   4.552
30426WAT     H291521   7.466   4.823   4.668
30427WAT      O91522   2.563   1.994   9.041
30427WAT     H191523   2.591   2.020   9.133
30427WAT     H291524   2.636   1.941   8.997
30428WAT      O91525   5.367   3.313   3.098
30428WAT     H191526   5.389   3.403   3.060
30428WAT     H291527   5.436   3.247   3.067
30429WAT      O91528   1.059   7.594   6.401
30429WAT     H191529   1.090   7.638   6.485
30429WAT     H291530   0.960   7.579   6.407
30430WAT      O91531   9.228   5.655   4.550
30430WAT     H191532   9.217   5.656   4.451
30430WAT     H291533   9.162   5.591   4.590
30431WAT      O91534   4.468   3.937   5.729
30431WAT     H191535   4.459   3.859   5.792
30431WAT     H291536   4.556   3.932   5.683
30432WAT      O91537   2.894   4.772   4.914
30432WAT     H191538   2.862   4.683   4.882
30432WAT     H291539   2.994   4.776   4.907
30433WAT      O91540   8.997   4.174   4.429
30433WAT     H191541   8.975   4.084   4.392
30433WAT     H291542   9.047   4.227   4.360
30434WAT      O91543   0.973   9.144   4.200
30434WAT     H191544   0.897   9.147   4.265
30434WAT     H291545   0.943   9.103   4.114
30435WAT      O91546   1.744   4.315   3.311
30435WAT     H191547   1.767   4.259   3.391
30435WAT     H291548   1.645   4.316   3.299
30436WAT      O91549   8.325   7.341   2.446
30436WAT     H191550   8.395   7.405   2.415
30436WAT     H291551   8.272   7.310   2.367
30437WAT      O91552   0.203   6.651   5.978
30437WAT     H191553   0.113   6.664   6.020
30437WAT     H291554   0.249   6.574   6.022
30438WAT      O91555   4.831   4.500   2.720
30438WAT     H191556   4.735   4.497   2.692
30438WAT     H291557   4.840   4.552   2.804
30439WAT      O91558   3.807   9.494   2.261
30439WAT     H191559   3.885   9.455   2.310
30439WAT     H291560   3.745   9.420   2.234
30440WAT      O91561   7.614   1.272   9.444
30440WAT     H191562   7.632   1.177   9.420
30440WAT     H291563   7.590   1.278   9.541
30441WAT      O91564   0.109   8.549   0.833
30441WAT     H191565   0.133   8.490   0.756
30441WAT     H291566   0.168   8.630   0.833
30442WAT      O91567   1.726   1.004   4.279
30442WAT     H191568   1.707   0.966   4.188
30442WAT     H291569   1.730   0.931   4.346
30443WAT      O91570   3.072   8.407   5.983
30443WAT     H191571   3.086   8.505   5.997
30443WAT     H291572   2.974   8.387   5.981
30444WAT      O91573   4.251   4.123   5.236
30444WAT     H191574   4.201   4.191   5.182
30444WAT     H291575   4.187   4.074   5.295
30445WAT      O91576   3.757   4.781   2.630
30445WAT     H191577   3.709   4.806   2.547
30445WAT     H291578   3.710   4.704   2.674
30446WAT      O91579   0.271   8.522   2.996
30446WAT     H191580   0.349   8.462   3.013
30446WAT     H291581   0.303   8.604   2.948
30447WAT      O91582   8.020   8.722   6.945
30447WAT     H191583   8.051   8.773   7.024
30447WAT     H291584   7.949   8.657   6.972
30448WAT      O91585   3.335   7.172   1.839
30448WAT     H191586   3.258   7.112   1.815
30448WAT     H291587   3.360   7.227   1.759
30449WAT      O91588   4.163   2.663   3.982
30449WAT     H191589   4.172   2.756   4.018
30449WAT     H291590   4.086   2.618   4.027
30450WAT      O91591   9.700   2.222   3.428
30450WAT     H191592   9.626   2.168   3.388
30450WAT     H291593   9.784   2.206   3.377
30451WAT      O91594   9.548   8.943   0.644
30451WAT     H191595   9.539   8.846   0.620
30451WAT     H291596   9.492   8.963   0.725
30452WAT      O91597   4.984   4.458   2.018
30452WAT     H191598   5.038   4.435   2.099
30452WAT     H291599   4.931   4.379   1.990
30453WAT      O91600   6.669   0.427   1.111
30453WAT     H191601   6.762   0.396   1.093
30453WAT     H291602   6.671   0.502   1.178
30454WAT      O91603   1.105   5.821   5.272
30454WAT     H191604   1.109   5.722   5.262
30454WAT     H291605   1.177   5.863   5.216
30455WAT      O91606   6.374   8.954   8.258
30455WAT     H191607   6.428   9.004   8.190
30455WAT     H291608   6.351   8.864   8.222
30456WAT      O91609   5.294   0.867   2.816
30456WAT     H191610   5.348   0.910   2.888
30456WAT     H291611   5.309   0.768   2.817
30457WAT      O91612   5.178   9.291   1.829
30457WAT     H191613   5.172   9.330   1.921
30457WAT     H291614   5.269   9.255   1.814
30458WAT      O91615   8.913   7.466   8.285
30458WAT     H191616   8.917   7.406   8.205
30458WAT     H291617   8.818   7.480   8.312
30459WAT      O91618   1.528   4.965   8.473
30459WAT     H191619   1.570   4.924   8.392
30459WAT     H291620   1.500   4.892   8.535
30460WAT      O91621   1.604   4.151   9.334
30460WAT     H191622   1.649   4.161   9.423
30460WAT     H291623   1.672   4.154   9.261
30461WAT      O91624   8.292   0.284   1.678
30461WAT     H191625   8.380   0.309   1.719
30461WAT     H291626   8.220   0.288   1.747
30462WAT      O91627   6.630   8.950   2.557
30462WAT     H191628   6.626   9.033   2.501
30462WAT     H291629   6.684   8.968   2.639
30463WAT      O91630   9.288   6.952   3.728
30463WAT     H191631   9.271   6.992   3.638
30463WAT     H291632   9.238   7.004   3.797
30464WAT      O91633   1.677   4.560   1.763
30464WAT     H191634   1.656   4.650   1.803
30464WAT     H291635   1.605   4.495   1.789
30465WAT      O91636   6.196   2.391   9.048
30465WAT     H191637   6.146   2.472   9.077
30465WAT     H291638   6.285   2.417   9.011
30466WAT      O91639   2.258   8.912   7.581
30466WAT     H191640   2.224   8.841   7.519
30466WAT     H291641   2.207   8.997   7.566
30467WAT      O91642   5.559   3.605   6.990
30467WAT     H191643   5.463   3.632   6.995
30467WAT     H291644   5.565   3.505   6.986
30468WAT      O91645   2.526   5.488   8.514
30468WAT     H191646   2.512   5.495   8.612
30468WAT     H291647   2.608   5.434   8.495
30469WAT      O91648   3.727   2.744   0.037
30469WAT     H191649   3.721   2.735   0.137
30469WAT     H291650   3.779   2.667  -0.000
30470WAT      O91651   1.592   1.406   3.692
30470WAT     H191652   1.624   1.337   3.756
30470WAT     H291653   1.636   1.392   3.603
30471WAT      O91654   8.586   5.360   5.989
30471WAT     H191655   8.678   5.386   5.960
30471WAT     H291656   8.523   5.436   5.969
30472WAT      O91657   7.186   5.342   0.610
30472WAT     H191658   7.100   5.291   0.610
30472WAT     H291659   7.235   5.328   0.696
30473WAT      O91660   6.691   5.114   3.844
30473WAT     H191661   6.637   5.184   3.891
30473WAT     H291662   6.764   5.158   3.792
30474WAT      O91663   6.419   8.796   5.649
30474WAT     H191664   6.460   8.837   5.567
30474WAT     H291665   6.319   8.797   5.641
30475WAT      O91666   2.871   0.979   5.524
30475WAT     H191667   2.937   1.025   5.465
30475WAT     H291668   2.884   0.880   5.518
30476WAT      O91669   5.625   4.328   7.481
30476WAT     H191670   5.690   4.351   7.408
30476WAT     H291671   5.540   4.294   7.440
30477WAT      O91672   9.581   3.978   7.686
30477WAT     H191673   9.518   3.902   7.702
30477WAT     H291674   9.593   4.030   7.771
30478WAT      O91675   2.776   4.849   0.122
30478WAT     H191676   2.773   4.777   0.053
30478WAT     H291677   2.723   4.822   0.202
30479WAT      O91678   6.450   3.996   8.775
30479WAT     H191679   6.537   3.995   8.825
30479WAT     H291680   6.395   3.918   8.803
30480WAT      O91681   6.400   1.393   1.552
30480WAT     H191682   6.492   1.358   1.538
30480WAT     H291683   6.340   1.361   1.478
30481WAT      O91684   6.209   5.199   1.004
30481WAT     H191685   6.235   5.161   1.093
30481WAT     H291686   6.274   5.170   0.935
30482WAT      O91687   3.411   9.786   1.411
30482WAT     H191688   3.440   9.693   1.434
30482WAT     H291689   3.459   9.852   1.469
30483WAT      O91690   6.568   1.631   9.751
30483WAT     H191691   6.661   1.631   9.712
30483WAT     H291692   6.510   1.690   9.696
30484WAT      O91693   1.850   1.212   4.918
30484WAT     H191694   1.795   1.134   4.946
30484WAT     H291695   1.928   1.181   4.865
30485WAT      O91696   6.711   7.073   5.305
30485WAT     H191697   6.631   7.133   5.315
30485WAT     H291698   6.681   6.984   5.272
30486WAT      O91699   4.498   1.284   5.903
30486WAT     H191700   4.441   1.218   5.854
30486WAT     H291701   4.448   1.369   5.916
30487WAT      O91702   1.503   7.960   6.671
30487WAT     H191703   1.444   8.041   6.682
30487WAT     H291704   1.568   7.956   6.746
30488WAT      O91705   4.846   0.081   0.120
30488WAT     H191706   4.840   0.092   0.021
30488WAT     H291707   4.792   0.152   0.165
30489WAT      O91708   8.158   3.067   5.460
30489WAT     H191709   8.094   3.108   5.524
30489WAT     H291710   8.115   3.060   5.370
30490WAT      O91711   8.682   8.122   1.157
30490WAT     H191712   8.709   8.036   1.114
30490WAT     H291713   8.582   8.126   1.163
30491WAT      O91714   4.013   4.724   8.476
30491WAT     H191715   3.955   4.664   8.531
30491WAT     H291716   3.980   4.818   8.482
30492WAT      O91717   4.810   8.058   3.917
30492WAT     H191718   4.784   8.003   3.997
30492WAT     H291719   4.860   8.000   3.852
30493WAT      O91720   8.719   8.317   5.134
30493WAT     H191721   8.685   8.240   5.079
30493WAT     H291722   8.665   8.398   5.114
30494WAT      O91723   6.304   1.027   5.344
30494WAT     H191724   6.303   1.099   5.274
30494WAT     H291725   6.222   1.033   5.400
30495WAT      O91726   8.153   7.080   8.731
30495WAT     H191727   8.104   7.062   8.816
30495WAT     H291728   8.200   7.168   8.737
30496WAT      O91729   2.604   2.550   1.689
30496WAT     H191730   2.561   2.555   1.599
30496WAT     H291731   2.667   2.627   1.700
30497WAT      O91732   5.784   2.606   0.642
30497WAT     H191733   5.735   2.692   0.656
30497WAT     H291734   5.872   2.609   0.691
30498WAT      O91735   5.550   6.488   7.507
30498WAT     H191736   5.547   6.566   7.571
30498WAT     H291737   5.480   6.422   7.533
30499WAT      O91738   2.977   5.407   0.035
30499WAT     H191739   3.016   5.455  -0.044
30499WAT     H291740   3.048   5.352   0.079
30500WAT      O91741   1.518   2.953   5.906
30500WAT     H191742   1.451   2.952   5.831
30500WAT     H291743   1.549   2.859   5.923
30501WAT      O91744   0.046   3.255   7.163
30501WAT     H191745   0.022   3.209   7.248
30501WAT     H291746   0.138   3.295   7.171
30502WAT      O91747   9.081   2.037   6.435
30502WAT     H191748   9.066   2.136   6.432
30502WAT     H291749   9.177   2.019   6.455
30503WAT      O91750   6.078   1.036   5.491
30503WAT     H191751   6.009   0.982   5.443
30503WAT     H291752   6.048   1.131   5.497
30504WAT      O91753   9.657   2.608   0.256
30504WAT     H191754   9.573   2.554   0.259
30504WAT     H291755   9.709   2.593   0.340
30505WAT      O91756   4.341   2.828   1.472
30505WAT     H191757   4.321   2.911   1.525
30505WAT     H291758   4.427   2.789   1.503
30506WAT      O91759   1.335   5.461   0.811
30506WAT     H191760   1.355   5.526   0.738
30506WAT     H291761   1.420   5.421   0.845
30507WAT      O91762   6.420   0.711   5.493
30507WAT     H191763   6.438   0.752   5.404
30507WAT     H291764   6.327   0.673   5.494
30508WAT      O91765   1.378   0.818   8.139
30508WAT     H191766   1.325   0.903   8.135
30508WAT     H291767   1.331   0.752   8.198
30509WAT      O91768   4.687   2.433   1.564
30509WAT     H191769   4.690   2.353   1.504
30509WAT     H291770   4.681   2.404   1.659
30510WAT      O91771   0.182   1.418   8.588
30510WAT     H191772   0.245   1.447   8.660
30510WAT     H291773   0.090   1.409   8.626
30511WAT      O91774   3.017   0.326   5.329
30511WAT     H191775   2.974   0.394   5.270
30511WAT     H291776   2.947   0.263   5.364
30512WAT      O91777   9.328   7.273   5.405
30512WAT     H191778   9.342   7.175   5.421
30512WAT     H291779   9.336   7.323   5.491
30513WAT      O91780   7.424   9.696   9.086
30513WAT     H191781   7.442   9.786   9.047
30513WAT     H291782   7.456   9.625   9.023
30514WAT      O91783   4.484   8.521   3.042
30514WAT     H191784   4.387   8.541   3.028
30514WAT     H291785   4.536   8.606   3.044
30515WAT      O91786   8.517   9.474   9.611
30515WAT     H191787   8.603   9.476   9.560
30515WAT     H291788   8.537   9.475   9.709
30516WAT      O91789   3.990   0.512   1.948
30516WAT     H191790   3.915   0.495   1.884
30516WAT     H291791   4.058   0.572   1.904
30517WAT      O91792   4.257   2.085   9.737
30517WAT     H191793   4.203   2.001   9.741
30517WAT     H291794   4.303   2.100   9.824
30518WAT      O91795   9.310   3.924   9.379
30518WAT     H191796   9.391   3.967   9.418
30518WAT     H291797   9.245   3.995   9.352
30519WAT      O91798   7.385   4.922   9.754
30519WAT     H191799   7.439   4.972   9.687
30519WAT     H291800   7.289   4.950   9.748
30520WAT      O91801   6.644   4.523   8.122
30520WAT     H191802   6.613   4.430   8.107
30520WAT     H291803   6.671   4.534   8.218
30521WAT      O91804   9.135   9.630   8.774
30521WAT     H191805   9.144   9.561   8.845
30521WAT     H291806   9.144   9.588   8.684
30522WAT      O91807   4.012   0.184   0.520
30522WAT     H191808   3.962   0.270   0.511
30522WAT     H291809   4.007   0.152   0.615
30523WAT      O91810   4.299   3.907   0.163
30523WAT     H191811   4.242   3.839   0.207
30523WAT     H291812   4.356   3.863   0.093
30524WAT      O91813   3.642   6.292   2.674
30524WAT     H191814   3.574   6.309   2.603
30524WAT     H291815   3.725   6.344   2.653
30525WAT      O91816   5.275   0.807   6.023
30525WAT     H191817   5.228   0.889   5.990
30525WAT     H291818   5.276   0.738   5.950
30526WAT      O91819   3.399   5.427   9.771
30526WAT     H191820   3.355   5.515   9.790
30526WAT     H291821   3.483   5.442   9.719
30527WAT      O91822   5.294   2.484   1.718
30527WAT     H191823   5.224   2.464   1.649
30527WAT     H291824   5.273   2.433   1.801
30528WAT      O91825   5.415   0.329   7.581
30528WAT     H191826   5.402   0.420   7.541
30528WAT     H291827   5.506   0.322   7.621
30529WAT      O91828   2.653   2.970   0.690
30529WAT     H191829   2.567   3.021   0.684
30529WAT     H291830   2.720   3.025   0.740
30530WAT      O91831   8.378   3.104   7.341
30530WAT     H191832   8.380   3.004   7.337
30530WAT     H291833   8.450   3.140   7.282
30531WAT      O91834   4.098   1.413   8.081
30531WAT     H191835   4.178   1.428   8.139
30531WAT     H291836   4.091   1.486   8.014
30532WAT      O91837   3.304   9.188   8.263
30532WAT     H191838   3.225   9.226   8.214
30532WAT     H291839   3.278   9.102   8.306
30533WAT      O91840   6.946   5.268   7.894
30533WAT     H191841   7.031   5.291   7.847
30533WAT     H291842   6.904   5.188   7.851
30534WAT      O91843   7.384   0.961   0.045
30534WAT     H191844   7.338   0.915   0.121
30534WAT     H291845   7.452   0.900   0.005
30535WAT      O91846   9.414   6.507   7.862
30535WAT     H191847   9.351   6.550   7.927
30535WAT     H291848   9.471   6.441   7.910
30536WAT      O91849   6.031   2.109   6.525
30536WAT     H191850   6.034   2.190   6.467
30536WAT     H291851   5.937   2.090   6.552
30537WAT      O91852   7.408   0.157   4.211
30537WAT     H191853   7.431   0.083   4.148
30537WAT     H291854   7.343   0.219   4.168
30538WAT      O91855   0.823   7.585   3.113
30538WAT     H191856   0.723   7.582   3.109
30538WAT     H291857   0.858   7.493   3.131
30539WAT      O91858   5.340   1.771   5.313
30539WAT     H191859   5.405   1.839   5.348
30539WAT     H291860   5.374   1.733   5.227
30540WAT      O91861   5.415   1.944   9.462
30540WAT     H191862   5.422   1.993   9.376
30540WAT     H291863   5.379   1.852   9.446
30541WAT      O91864   1.198   8.340   3.808
30541WAT     H191865   1.292   8.367   3.788
30541WAT     H291866   1.172   8.262   3.750
30542WAT      O91867   8.020   0.285   3.382
30542WAT     H191868   8.089   0.238   3.436
30542WAT     H291869   7.940   0.303   3.438
30543WAT      O91870   5.769   0.241   0.408
30543WAT     H191871   5.861   0.203   0.414
30543WAT     H291872   5.731   0.252   0.500
30544WAT      O91873   8.411   3.697   3.342
30544WAT     H191874   8.347   3.772   3.358
30544WAT     H291875   8.499   3.735   3.313
30545WAT      O91876   0.957   8.751   9.299
30545WAT     H191877   0.879   8.764   9.238
30545WAT     H291878   0.978   8.653   9.306
30546WAT      O91879   4.364   7.450   6.917
30546WAT     H191880   4.458   7.461   6.948
30546WAT     H291881   4.306   7.426   6.995
30547WAT      O91882   2.691   9.737   7.145
30547WAT     H191883   2.744   9.735   7.061
30547WAT     H291884   2.720   9.662   7.205
30548WAT      O91885   8.520   1.290   3.086
30548WAT     H191886   8.566   1.260   3.170
30548WAT     H291887   8.422   1.297   3.102
30549WAT      O91888   9.509   7.415   0.692
30549WAT     H191889   9.510   7.443   0.595
30549WAT     H291890   9.503   7.496   0.750
30550WAT      O91891   2.824   6.130   9.170
30550WAT     H191892   2.836   6.038   9.133
30550WAT     H291893   2.880   6.195   9.118
30551WAT      O91894   1.169   3.943   3.497
30551WAT     H191895   1.210   4.012   3.437
30551WAT     H291896   1.106   3.988   3.561
30552WAT      O91897   4.677   4.286   4.171
30552WAT     H191898   4.603   4.250   4.227
30552WAT     H291899   4.763   4.283   4.223
30553WAT      O91900   3.216   2.439   3.848
30553WAT     H191901   3.193   2.524   3.800
30553WAT     H291902   3.225   2.364   3.783
30554WAT      O91903   4.491   1.123   0.254
30554WAT     H191904   4.561   1.060   0.220
30554WAT     H291905   4.536   1.200   0.301
30555WAT      O91906   9.016   6.577   6.868
30555WAT     H191907   8.966   6.522   6.935
30555WAT     H291908   9.019   6.528   6.781
30556WAT      O91909   6.940   5.384   7.531
30556WAT     H191910   6.886   5.451   7.581
30556WAT     H291911   6.992   5.327   7.595
30557WAT      O91912   8.665   1.501   2.958
30557WAT     H191913   8.628   1.482   2.867
30557WAT     H291914   8.623   1.440   3.024
30558WAT      O91915   2.860   4.102   7.810
30558WAT     H191916   2.811   4.167   7.869
30558WAT     H291917   2.872   4.143   7.720
30559WAT      O91918   8.392   3.763   4.655
30559WAT     H191919   8.443   3.749   4.570
30559WAT     H291920   8.417   3.851   4.695
30560WAT      O91921   8.588   9.665   7.288
30560WAT     H191922   8.559   9.587   7.232
30560WAT     H291923   8.514   9.689   7.352
30561WAT      O91924   2.515   5.055   2.298
30561WAT     H191925   2.436   5.039   2.357
30561WAT     H291926   2.579   5.117   2.344
30562WAT      O91927   9.587   5.645   9.620
30562WAT     H191928   9.492   5.654   9.648
30562WAT     H291929   9.609   5.548   9.608
30563WAT      O91930   9.406   8.564   2.530
30563WAT     H191931   9.312   8.536   2.545
30563WAT     H291932   9.407   8.648   2.475
30564WAT      O91933   7.903   3.089   9.083
30564WAT     H191934   7.846   3.048   9.013
30564WAT     H291935   7.882   3.049   9.172
30565WAT      O91936   2.057   0.057   6.105
30565WAT     H191937   2.100   0.010   6.182
30565WAT     H291938   2.079   0.155   6.110
30566WAT      O91939   7.897   7.660   1.370
30566WAT     H191940   7.840   7.596   1.317
30566WAT     H291941   7.993   7.646   1.347
30567WAT      O91942   5.529   2.078   5.771
30567WAT     H191943   5.543   2.176   5.766
30567WAT     H291944   5.590   2.032   5.706
30568WAT      O91945   3.543   8.092   6.605
30568WAT     H191946   3.545   8.174   6.547
30568WAT     H291947   3.624   8.091   6.662
30569WAT      O91948   6.857   0.113   0.836
30569WAT     H191949   6.876   0.052   0.759
30569WAT     H291950   6.944   0.139   0.880
30570WAT      O91951   0.100   3.557   4.706
30570WAT     H191952   0.192   3.553   4.744
30570WAT     H291953   0.068   3.651   4.704
30571WAT      O91954   7.464   0.636   3.280
30571WAT     H191955   7.423   0.723   3.253
30571WAT     H291956   7.424   0.605   3.366
30572WAT      O91957   1.691   9.702   9.451
30572WAT     H191958   1.672   9.613   9.494
30572WAT     H291959   1.647   9.705   9.361
30573WAT      O91960   0.313   4.443   0.370
30573WAT     H191961   0.363   4.407   0.449
30573WAT     H291962   0.215   4.429   0.382
30574WAT      O91963   5.516   7.253   6.230
30574WAT     H191964   5.563   7.165   6.222
30574WAT     H291965   5.562   7.309   6.299
30575WAT      O91966   7.686   5.500   0.611
30575WAT     H191967   7.783   5.476   0.608
30575WAT     H291968   7.632   5.417   0.627
30576WAT      O91969   8.543   4.878   3.383
30576WAT     H191970   8.526   4.780   3.372
30576WAT     H291971   8.594   4.913   3.304
30577WAT      O91972   7.865   2.333   4.323
30577WAT     H191973   7.960   2.344   4.352
30577WAT     H291974   7.820   2.264   4.380
30578WAT      O91975   4.186   2.236   6.973
30578WAT     H191976   4.159   2.143   6.948
30578WAT     H291977   4.253   2.232   7.048
30579WAT      O91978   9.465   2.628   5.183
30579WAT     H191979   9.473   2.707   5.122
30579WAT     H291980   9.469   2.659   5.278
30580WAT      O91981   5.079   0.069   4.812
30580WAT     H191982   4.993   0.083   4.764
30580WAT     H291983   5.151   0.050   4.745
30581WAT      O91984   9.722   8.451   1.347
30581WAT     H191985   9.719   8.353   1.327
30581WAT     H291986   9.751   8.465   1.442
30582WAT      O91987   4.767   5.445   8.948
30582WAT     H191988   4.771   5.358   8.898
30582WAT     H291989   4.751   5.520   8.883
30583WAT      O91990   8.986   9.540   4.039
30583WAT     H191991   8.895   9.580   4.033
30583WAT     H291992   8.993   9.461   3.978
30584WAT      O91993   3.855   2.007   2.518
30584WAT     H191994   3.763   2.043   2.528
30584WAT     H291995   3.904   2.016   2.605
30585WAT      O91996   2.294   2.254   0.779
30585WAT     H191997   2.377   2.217   0.820
30585WAT     H291998   2.244   2.182   0.732
30586WAT      O91999   8.662   7.741   2.145
30586WAT     H192000   8.568   7.717   2.120
30586WAT     H292001   8.661   7.820   2.207
30587WAT      O92002   2.929   5.195   1.933
30587WAT     H192003   2.868   5.155   2.001
30587WAT     H292004   3.010   5.233   1.979
30588WAT      O92005   7.187   2.899   0.442
30588WAT     H192006   7.220   2.977   0.389
30588WAT     H292007   7.248   2.821   0.430
30589WAT      O92008   3.225   0.755   1.911
30589WAT     H192009   3.197   0.843   1.949
30589WAT     H292010   3.201   0.682   1.975
30590WAT      O92011   8.447   6.235   2.916
30590WAT     H192012   8.430   6.320   2.866
30590WAT     H292013   8.467   6.256   3.011
30591WAT      O92014   5.156   0.191   9.887
30591WAT     H192015   5.203   0.257   9.946
30591WAT     H292016   5.075   0.234   9.846
30592WAT      O92017   7.122   6.183   5.235
30592WAT     H192018   7.079   6.255   5.290
30592WAT     H292019   7.213   6.212   5.208
30593WAT      O92020   3.376   5.735   0.455
30593WAT     H192021   3.402   5.695   0.542
30593WAT     H292022   3.279   5.762   0.458
30594WAT      O92023   2.079   6.811   9.817
30594WAT     H192024   2.071   6.718   9.852
30594WAT     H292025   2.041   6.815   9.725
30595WAT      O92026   8.144   2.301   9.121
30595WAT     H192027   8.140   2.285   9.219
30595WAT     H292028   8.093   2.384   9.098
30596WAT      O92029   3.753   4.982   1.214
30596WAT     H192030   3.697   5.042   1.272
30596WAT     H292031   3.809   4.923   1.272
30597WAT      O92032   0.087   0.516   9.734
30597WAT     H192033  -0.008   0.492   9.715
30597WAT     H292034   0.129   0.552   9.650
30598WAT      O92035   5.278   5.477   7.416
30598WAT     H192036   5.222   5.433   7.486
30598WAT     H292037   5.363   5.426   7.405
30599WAT      O92038   7.549   9.450   9.443
30599WAT     H192039   7.641   9.453   9.483
30599WAT     H292040   7.543   9.373   9.380
30600WAT      O92041   0.223   0.687   3.927
30600WAT     H192042   0.152   0.653   3.988
30600WAT     H292043   0.306   0.632   3.939
30601WAT      O92044   6.145   9.691   8.022
30601WAT     H192045   6.131   9.785   8.053
30601WAT     H292046   6.216   9.649   8.078
30602WAT      O92047   8.120   5.305   9.585
30602WAT     H192048   8.081   5.237   9.523
30602WAT     H292049   8.120   5.395   9.540
30603WAT      O92050   0.210   4.987   7.732
30603WAT     H192051   0.246   4.932   7.657
30603WAT     H292052   0.195   5.081   7.700
30604WAT      O92053   0.877   6.017   2.968
30604WAT     H192054   0.796   6.025   3.027
30604WAT     H292055   0.866   5.939   2.907
30605WAT      O92056   7.553   2.054   1.521
30605WAT     H192057   7.516   1.966   1.491
30605WAT     H292058   7.631   2.078   1.464
30606WAT      O92059   2.118   7.339   1.766
30606WAT     H192060   2.186   7.408   1.792
30606WAT     H292061   2.092   7.286   1.847
30607WAT      O92062   5.271   4.556   7.713
30607WAT     H192063   5.331   4.490   7.758
30607WAT     H292064   5.323   4.609   7.647
30608WAT      O92065   8.632   0.150   1.056
30608WAT     H192066   8.694   0.096   1.112
30608WAT     H292067   8.608   0.234   1.104
30609WAT      O92068   9.269   0.381   8.345
30609WAT     H192069   9.184   0.329   8.343
30609WAT     H292070   9.290   0.416   8.254
30610WAT      O92071   8.712   2.637   2.199
30610WAT     H192072   8.668   2.547   2.195
30610WAT     H292073   8.748   2.653   2.290
30611WAT      O92074   3.002   7.606   9.523
30611WAT     H192075   3.025   7.569   9.613
30611WAT     H292076   3.059   7.686   9.505
30612WAT      O92077   3.397   8.344   9.210
30612WAT     H192078   3.337   8.322   9.287
30612WAT     H292079   3.417   8.442   9.210
30613WAT      O92080   8.017   6.872   5.261
30613WAT     H192081   8.046   6.857   5.356
30613WAT     H292082   8.055   6.800   5.203
30614WAT      O92083   3.852   0.224   2.862
30614WAT     H192084   3.847   0.131   2.824
30614WAT     H292085   3.848   0.290   2.787
30615WAT      O92086   2.048   2.439   0.539
30615WAT     H192087   1.952   2.462   0.518
30615WAT     H292088   2.061   2.340   0.533
30616WAT      O92089   4.149   5.034   2.016
30616WAT     H192090   4.151   4.936   2.037
30616WAT     H292091   4.109   5.083   2.093
30617WAT      O92092   4.558   8.547   4.887
30617WAT     H192093   4.527   8.489   4.963
30617WAT     H292094   4.520   8.512   4.801
30618WAT      O92095   0.137   5.985   9.050
30618WAT     H192096   0.233   6.013   9.055
30618WAT     H292097   0.131   5.897   9.003
30619WAT      O92098   6.135   5.436   4.965
30619WAT     H192099   6.093   5.421   4.875
30619WAT     H292100   6.075   5.403   5.037
30620WAT      O92101   3.685   4.825   1.840
30620WAT     H192102   3.701   4.922   1.825
30620WAT     H292103   3.610   4.813   1.905
30621WAT      O92104   2.058   4.315   0.823
30621WAT     H192105   2.078   4.404   0.781
30621WAT     H292106   1.979   4.325   0.884
30622WAT      O92107   1.911   3.549   8.600
30622WAT     H192108   1.980   3.553   8.527
30622WAT     H292109   1.954   3.572   8.687
30623WAT      O92110   9.625   4.879   4.601
30623WAT     H192111   9.571   4.916   4.525
30623WAT     H292112   9.593   4.920   4.687
30624WAT      O92113   6.875   0.334   4.541
30624WAT     H192114   6.907   0.363   4.451
30624WAT     H292115   6.780   0.303   4.534
30625WAT      O92116   3.577   4.270   5.586
30625WAT     H192117   3.630   4.240   5.507
30625WAT     H292118   3.504   4.331   5.557
30626WAT      O92119   3.142   7.087   5.957
30626WAT     H192120   3.135   7.158   5.887
30626WAT     H292121   3.150   6.997   5.914
30627WAT      O92122   3.189   1.704   7.255
30627WAT     H192123   3.235   1.792   7.245
30627WAT     H292124   3.134   1.686   7.174
30628WAT      O92125   6.242   1.735   1.701
30628WAT     H192126   6.240   1.707   1.797
30628WAT     H292127   6.154   1.774   1.676
30629WAT      O92128   4.464   3.942   1.883
30629WAT     H192129   4.435   3.850   1.911
30629WAT     H292130   4.444   4.007   1.956
30630WAT      O92131   1.338   3.423   4.323
30630WAT     H192132   1.432   3.418   4.356
30630WAT     H292133   1.277   3.442   4.399
30631WAT      O92134   4.471   8.548   7.263
30631WAT     H192135   4.544   8.602   7.221
30631WAT     H292136   4.389   8.552   7.207
30632WAT      O92137   3.474   2.542   8.559
30632WAT     H192138   3.544   2.600   8.601
30632WAT     H292139   3.508   2.506   8.472
30633WAT      O92140   3.984   8.297   1.619
30633WAT     H192141   4.034   8.254   1.545
30633WAT     H292142   4.028   8.276   1.706
30634WAT      O92143   6.011   6.052   4.134
30634WAT     H192144   5.931   6.014   4.088
30634WAT     H292145   5.983   6.098   4.218
30635WAT      O92146   2.378   4.541   8.906
30635WAT     H192147   2.375   4.533   8.806
30635WAT     H292148   2.437   4.618   8.931
30636WAT      O92149   0.010   1.286   3.713
30636WAT     H192150  -0.046   1.366   3.694
30636WAT     H292151   0.031   1.238   3.628
30637WAT      O92152   7.259   4.205   0.710
30637WAT     H192153   7.309   4.125   0.744
30637WAT     H292154   7.168   4.206   0.751
30638WAT      O92155   0.950   0.900   2.989
30638WAT     H192156   0.997   0.874   3.073
30638WAT     H292157   0.988   0.849   2.912
30639WAT      O92158   6.652   0.149   0.388
30639WAT     H192159   6.593   0.230   0.382
30639WAT     H292160   6.710   0.156   0.469
30640WAT      O92161   9.811   5.005   7.286
30640WAT     H192162   9.764   5.071   7.228
30640WAT     H292163   9.907   5.031   7.296
30641WAT      O92164   3.353   3.590   5.178
30641WAT     H192165   3.417   3.666   5.187
30641WAT     H292166   3.354   3.535   5.261
30642WAT      O92167   7.811   4.594   4.304
30642WAT     H192168   7.876   4.631   4.371
30642WAT     H292169   7.750   4.529   4.349
30643WAT      O92170   7.613   0.103   7.702
30643WAT     H192171   7.633   0.006   7.692
30643WAT     H292172   7.624   0.130   7.798
30644WAT      O92173   9.146   9.298   6.986
30644WAT     H192174   9.143   9.218   6.926
30644WAT     H292175   9.061   9.304   7.038
30645WAT      O92176   1.571   8.116   3.026
30645WAT     H192177   1.502   8.066   2.974
30645WAT     H292178   1.626   8.052   3.079
30646WAT      O92179   6.867   4.835   5.477
30646WAT     H192180   6.848   4.857   5.381
30646WAT     H292181   6.782   4.812   5.523
30647WAT      O92182   7.798   5.901   2.011
30647WAT     H192183   7.805   5.972   2.082
30647WAT     H292184   7.884   5.896   1.960
30648WAT      O92185   1.454   1.714   2.041
30648WAT     H192186   1.532   1.702   2.102
30648WAT     H292187   1.413   1.625   2.022
30649WAT      O92188   8.420   9.237   7.909
30649WAT     H192189   8.415   9.299   7.831
30649WAT     H292190   8.454   9.287   7.989
30650WAT      O92191   3.540   6.496   5.969
30650WAT     H192192   3.635   6.529   5.967
30650WAT     H292193   3.537   6.400   5.941
30651WAT      O92194   1.610   4.561   2.728
30651WAT     H192195   1.519   4.597   2.707
30651WAT     H292196   1.630   4.484   2.667
30652WAT      O92197   7.175   6.559   3.694
30652WAT     H192198   7.235   6.617   3.638
30652WAT     H292199   7.126   6.495   3.635
30653WAT      O92200   1.655   1.752   4.993
30653WAT     H192201   1.653   1.717   4.899
30653WAT     H292202   1.646   1.676   5.057
30654WAT      O92203   3.893   4.757   0.274
30654WAT     H192204   3.814   4.702   0.302
30654WAT     H292205   3.911   4.742   0.177
30655WAT      O92206   4.654   3.779   5.521
30655WAT     H192207   4.654   3.797   5.423
30655WAT     H292208   4.676   3.864   5.570
30656WAT      O92209   1.336   1.257   8.408
30656WAT     H192210   1.391   1.271   8.490
30656WAT     H292211   1.241   1.277   8.428
30657WAT      O92212   8.598   5.962   5.146
30657WAT     H192213   8.697   5.969   5.139
30657WAT     H292214   8.573   5.874   5.186
30658WAT      O92215   6.728   9.580   7.393
30658WAT     H192216   6.742   9.489   7.433
30658WAT     H292217   6.720   9.572   7.294
30659WAT      O92218   2.229   7.562   8.003
30659WAT     H192219   2.228   7.496   7.927
30659WAT     H292220   2.163   7.635   7.984
30660WAT      O92221   0.684   4.081   2.179
30660WAT     H192222   0.767   4.095   2.125
30660WAT     H292223   0.625   4.015   2.133
30661WAT      O92224   9.671   7.405   8.095
30661WAT     H192225   9.613   7.358   8.028
30661WAT     H292226   9.760   7.360   8.099
30662WAT      O92227   2.390   6.554   8.271
30662WAT     H192228   2.301   6.555   8.226
30662WAT     H292229   2.435   6.643   8.257
30663WAT      O92230   2.911   8.219   5.730
30663WAT     H192231   2.900   8.301   5.673
30663WAT     H292232   2.833   8.157   5.715
30664WAT      O92233   6.499   4.246   9.611
30664WAT     H192234   6.546   4.238   9.523
30664WAT     H292235   6.566   4.243   9.685
30665WAT      O92236   9.706   3.012   8.467
30665WAT     H192237   9.753   2.925   8.483
30665WAT     H292238   9.684   3.054   8.555
30666WAT      O92239   3.509   1.023   2.327
30666WAT     H192240   3.464   0.935   2.312
30666WAT     H292241   3.528   1.066   2.240
30667WAT      O92242   3.851   5.871   8.234
30667WAT     H192243   3.943   5.858   8.270
30667WAT     H292244   3.784   5.838   8.300
30668WAT      O92245   1.267   1.401   7.207
30668WAT     H192246   1.274   1.315   7.258
30668WAT     H292247   1.346   1.458   7.226
30669WAT      O92248   1.852   4.822   5.779
30669WAT     H192249   1.889   4.851   5.868
30669WAT     H292250   1.914   4.756   5.737
30670WAT      O92251   2.670   0.397   4.782
30670WAT     H192252   2.746   0.344   4.820
30670WAT     H292253   2.648   0.362   4.691
30671WAT      O92254   3.415   2.084   6.542
30671WAT     H192255   3.475   2.093   6.462
30671WAT     H292256   3.453   2.137   6.618
30672WAT      O92257   1.763   0.020   4.407
30672WAT     H192258   1.722   0.010   4.498
30672WAT     H292259   1.702  -0.019   4.338
30673WAT      O92260   0.289   1.500   3.076
30673WAT     H192261   0.236   1.483   2.993
30673WAT     H292262   0.264   1.590   3.113
30674WAT      O92263   8.945   3.173   1.985
30674WAT     H192264   8.916   3.078   1.976
30674WAT     H292265   8.887   3.220   2.052
30675WAT      O92266   4.536   9.358   7.064
30675WAT     H192267   4.600   9.368   7.140
30675WAT     H292268   4.466   9.290   7.088
30676WAT      O92269   9.283   0.455   7.323
30676WAT     H192270   9.213   0.384   7.312
30676WAT     H292271   9.267   0.528   7.257
30677WAT      O92272   0.773   0.421   8.905
30677WAT     H192273   0.828   0.403   8.987
30677WAT     H292274   0.834   0.441   8.828
30678WAT      O92275   7.539   4.512   4.904
30678WAT     H192276   7.443   4.511   4.933
30678WAT     H292277   7.597   4.496   4.983
30679WAT      O92278   0.845   5.963   8.197
30679WAT     H192279   0.920   6.028   8.193
30679WAT     H292280   0.827   5.926   8.106
30680WAT      O92281   5.460   0.439   8.632
30680WAT     H192282   5.401   0.358   8.631
30680WAT     H292283   5.450   0.486   8.719
30681WAT      O92284   6.739   6.219   9.203
30681WAT     H192285   6.707   6.146   9.264
30681WAT     H292286   6.706   6.202   9.110
30682WAT      O92287   0.219   1.900   3.884
30682WAT     H192288   0.261   1.988   3.861
30682WAT     H292289   0.208   1.894   3.983
30683WAT      O92290   9.569   8.494   0.798
30683WAT     H192291   9.565   8.576   0.741
30683WAT     H292292   9.664   8.473   0.820
30684WAT      O92293   1.250   5.015   4.201
30684WAT     H192294   1.232   5.011   4.299
30684WAT     H292295   1.167   4.989   4.150
30685WAT      O92296   4.160   7.821   4.529
30685WAT     H192297   4.091   7.873   4.479
30685WAT     H292298   4.162   7.852   4.624
30686WAT      O92299   0.201   4.709   3.167
30686WAT     H192300   0.148   4.652   3.104
30686WAT     H292301   0.174   4.688   3.261
30687WAT      O92302   9.270   7.669   7.631
30687WAT     H192303   9.283   7.570   7.631
30687WAT     H292304   9.359   7.714   7.625
30688WAT      O92305   7.356   1.804   4.064
30688WAT     H192306   7.367   1.895   4.023
30688WAT     H292307   7.277   1.758   4.023
30689WAT      O92308   7.803   8.683   2.017
30689WAT     H192309   7.900   8.659   2.013
30689WAT     H292310   7.772   8.684   2.112
30690WAT      O92311   2.066   7.562   9.024
30690WAT     H192312   2.130   7.490   9.000
30690WAT     H292313   2.080   7.640   8.963
30691WAT      O92314   6.103   9.486   1.346
30691WAT     H192315   6.175   9.494   1.415
30691WAT     H292316   6.101   9.393   1.310
30692WAT      O92317   7.037   4.179   4.846
30692WAT     H192318   7.001   4.086   4.838
30692WAT     H292319   6.966   4.244   4.820
30693WAT      O92320   1.340   5.659   6.596
30693WAT     H192321   1.401   5.591   6.635
30693WAT     H292322   1.388   5.746   6.589
30694WAT      O92323   4.900   7.981   1.260
30694WAT     H192324   4.943   8.025   1.338
30694WAT     H292325   4.962   7.983   1.182
30695WAT      O92326   8.085   0.252   5.782
30695WAT     H192327   8.145   0.284   5.709
30695WAT     H292328   8.129   0.175   5.829
30696WAT      O92329   4.270   4.438   2.010
30696WAT     H192330   4.204   4.489   1.954
30696WAT     H292331   4.226   4.409   2.095
30697WAT      O92332   9.757   1.258   7.144
30697WAT     H192333   9.699   1.338   7.158
30697WAT     H292334   9.853   1.286   7.138
30698WAT      O92335   1.225   9.443   2.099
30698WAT     H192336   1.300   9.401   2.151
30698WAT     H292337   1.154   9.473   2.162
30699WAT      O92338   4.275   5.685   3.318
30699WAT     H192339   4.266   5.705   3.416
30699WAT     H292340   4.296   5.770   3.269
30700WAT      O92341   2.081   0.519   5.687
30700WAT     H192342   2.152   0.539   5.754
30700WAT     H292343   2.008   0.466   5.731
30701WAT      O92344   6.117   6.814   6.417
30701WAT     H192345   6.107   6.839   6.320
30701WAT     H292346   6.151   6.721   6.424
30702WAT      O92347   7.764   7.646   4.165
30702WAT     H192348   7.833   7.675   4.232
30702WAT     H292349   7.765   7.708   4.087
30703WAT      O92350   2.833   4.525   4.813
30703WAT     H192351   2.822   4.483   4.723
30703WAT     H292352   2.755   4.501   4.871
30704WAT      O92353   7.868   0.884   5.473
30704WAT     H192354   7.925   0.895   5.391
30704WAT     H292355   7.795   0.953   5.472
30705WAT      O92356   3.332   6.027   7.034
30705WAT     H192357   3.361   5.953   6.974
30705WAT     H292358   3.275   6.092   6.984
30706WAT      O92359   7.171   1.439   5.130
30706WAT     H192360   7.079   1.449   5.092
30706WAT     H292361   7.187   1.344   5.155
30707WAT      O92362   0.154   6.175   6.580
30707WAT     H192363   0.203   6.111   6.520
30707WAT     H292364   0.075   6.212   6.532
30708WAT      O92365   4.644   8.482   2.447
30708WAT     H192366   4.660   8.385   2.432
30708WAT     H292367   4.602   8.496   2.537
30709WAT      O92368   2.917   9.382   9.865
30709WAT     H192369   2.818   9.399   9.866
30709WAT     H292370   2.942   9.325   9.944
30710WAT      O92371   4.081   3.569   7.754
30710WAT     H192372   4.139   3.510   7.699
30710WAT     H292373   3.988   3.531   7.757
30711WAT      O92374   0.940   5.575   9.348
30711WAT     H192375   0.879   5.612   9.277
30711WAT     H292376   0.973   5.485   9.319
30712WAT      O92377   0.079   7.939   8.072
30712WAT     H192378   0.003   7.965   8.012
30712WAT     H292379   0.162   7.931   8.017
30713WAT      O92380   9.801   2.315   8.455
30713WAT     H192381   9.837   2.359   8.537
30713WAT     H292382   9.846   2.352   8.374
30714WAT      O92383   4.986   4.459   8.614
30714WAT     H192384   4.960   4.377   8.666
30714WAT     H292385   4.971   4.540   8.671
30715WAT      O92386   8.723   2.940   7.189
30715WAT     H192387   8.720   3.040   7.199
30715WAT     H292388   8.804   2.914   7.137
30716WAT      O92389   3.558   0.945   6.803
30716WAT     H192390   3.576   1.004   6.724
30716WAT     H292391   3.644   0.922   6.848
30717WAT      O92392   5.319   9.094   7.983
30717WAT     H192393   5.296   9.046   8.068
30717WAT     H292394   5.413   9.070   7.957
30718WAT      O92395   4.778   5.758   7.478
30718WAT     H192396   4.869   5.783   7.446
30718WAT     H292397   4.747   5.824   7.545
30719WAT      O92398   0.795   4.838   4.025
30719WAT     H192399   0.785   4.761   4.088
30719WAT     H292400   0.801   4.804   3.931
30720WAT      O92401   0.473   0.973   1.978
30720WAT     H192402   0.495   0.881   2.010
30720WAT     H292403   0.547   1.036   2.004
30721WAT      O92404   1.554   6.788   8.261
30721WAT     H192405   1.650   6.813   8.253
30721WAT     H292406   1.503   6.827   8.184
30722WAT      O92407   8.122   3.670   2.026
30722WAT     H192408   8.031   3.630   2.011
30722WAT     H292409   8.120   3.726   2.109
30723WAT      O92410   7.753   2.511   5.319
30723WAT     H192411   7.682   2.552   5.377
30723WAT     H292412   7.843   2.538   5.352
30724WAT      O92413   0.023   7.498   4.528
30724WAT     H192414   0.081   7.440   4.471
30724WAT     H292415  -0.042   7.442   4.579
30725WAT      O92416   0.040   8.428   6.387
30725WAT     H192417  -0.004   8.390   6.468
30725WAT     H292418   0.086   8.355   6.336
30726WAT      O92419   1.569   9.735   4.278
30726WAT     H192420   1.513   9.748   4.359
30726WAT     H292421   1.512   9.735   4.196
30727WAT      O92422   4.232   4.390   2.292
30727WAT     H192423   4.267   4.479   2.263
30727WAT     H292424   4.156   4.404   2.356
30728WAT      O92425   7.475   8.370   5.316
30728WAT     H192426   7.508   8.444   5.257
30728WAT     H292427   7.476   8.401   5.411
30729WAT      O92428   8.413   5.233   4.667
30729WAT     H192429   8.482   5.166   4.696
30729WAT     H292430   8.454   5.324   4.663
30730WAT      O92431   5.975   7.734   2.600
30730WAT     H192432   5.896   7.702   2.548
30730WAT     H292433   5.959   7.829   2.628
30731WAT      O92434   1.608   8.146   8.250
30731WAT     H192435   1.653   8.062   8.282
30731WAT     H292436   1.665   8.190   8.181
30732WAT      O92437   2.978   4.074   6.934
30732WAT     H192438   3.010   4.041   7.023
30732WAT     H292439   2.887   4.115   6.944
30733WAT      O92440   0.786   1.201   5.565
30733WAT     H192441   0.694   1.162   5.571
30733WAT     H292442   0.822   1.188   5.473
30734WAT      O92443   9.546   5.834   0.621
30734WAT     H192444   9.448   5.852   0.611
30734WAT     H292445   9.593   5.854   0.536
30735WAT      O92446   4.754   3.282   6.320
30735WAT     H192447   4.654   3.275   6.324
30735WAT     H292448   4.794   3.226   6.393
30736WAT      O92449   1.061   8.188   9.533
30736WAT     H192450   1.152   8.196   9.492
30736WAT     H292451   1.052   8.099   9.577
30737WAT      O92452   3.058   2.818   1.669
30737WAT     H192453   3.039   2.885   1.598
30737WAT     H292454   3.156   2.797   1.670
30738WAT      O92455   8.195   9.148   0.660
30738WAT     H192456   8.251   9.068   0.684
30738WAT     H292457   8.202   9.166   0.562
30739WAT      O92458   4.481   6.861   1.871
30739WAT     H192459   4.491   6.880   1.774
30739WAT     H292460   4.570   6.868   1.916
30740WAT      O92461   0.069   2.102   7.213
30740WAT     H192462   0.077   2.185   7.157
30740WAT     H292463   0.082   2.021   7.156
30741WAT      O92464   9.549   2.886   0.644
30741WAT     H192465   9.576   2.979   0.668
30741WAT     H292466   9.454   2.872   0.671
30742WAT      O92467   5.822   8.512   9.526
30742WAT     H192468   5.857   8.530   9.434
30742WAT     H292469   5.828   8.596   9.581
30743WAT      O92470   3.357   0.955   8.738
30743WAT     H192471   3.430   0.902   8.694
30743WAT     H292472   3.392   1.046   8.762
30744WAT      O92473   3.273   5.926   2.245
30744WAT     H192474   3.317   5.845   2.206
30744WAT     H292475   3.181   5.935   2.207
30745WAT      O92476   4.271   6.346   5.444
30745WAT     H192477   4.256   6.444   5.456
30745WAT     H292478   4.224   6.296   5.517
30746WAT      O92479   2.132   2.982   6.466
30746WAT     H192480   2.104   3.050   6.534
30746WAT     H292481   2.221   2.944   6.492
30747WAT      O92482   1.893   6.757   4.330
30747WAT     H192483   1.956   6.792   4.260
30747WAT     H292484   1.867   6.832   4.391
30748WAT      O92485   3.381   2.616   8.992
30748WAT     H192486   3.467   2.595   8.945
30748WAT     H292487   3.323   2.534   8.994
30749WAT      O92488   0.185   7.547   1.273
30749WAT     H192489   0.212   7.451   1.266
30749WAT     H292490   0.157   7.567   1.366
30750WAT      O92491   4.689   8.088   2.210
30750WAT     H192492   4.656   8.128   2.124
30750WAT     H292493   4.787   8.106   2.219
30751WAT      O92494   5.983   9.563   6.871
30751WAT     H192495   5.983   9.477   6.820
30751WAT     H292496   5.934   9.550   6.958
30752WAT      O92497   4.320   1.592   9.625
30752WAT     H192498   4.364   1.638   9.703
30752WAT     H292499   4.354   1.498   9.618
30753WAT      O92500   4.220   9.788   4.424
30753WAT     H192501   4.121   9.805   4.428
30753WAT     H292502   4.266   9.868   4.386
30754WAT      O92503   7.598   7.516   1.646
30754WAT     H192504   7.550   7.456   1.583
30754WAT     H292505   7.633   7.463   1.724
30755WAT      O92506   5.271   4.248   4.982
30755WAT     H192507   5.353   4.209   5.024
30755WAT     H292508   5.207   4.174   4.959
30756WAT      O92509   6.541   3.053   4.460
30756WAT     H192510   6.637   3.078   4.469
30756WAT     H292511   6.484   3.127   4.496
30757WAT      O92512   5.370   6.806   4.441
30757WAT     H192513   5.299   6.740   4.416
30757WAT     H292514   5.445   6.801   4.375
30758WAT      O92515   5.818   6.487   7.572
30758WAT     H192516   5.723   6.475   7.544
30758WAT     H292517   5.834   6.583   7.595
30759WAT      O92518   5.530   1.936   1.830
30759WAT     H192519   5.566   2.030   1.828
30759WAT     H292520   5.605   1.872   1.847
30760WAT      O92521   4.801   4.049   9.438
30760WAT     H192522   4.729   4.106   9.478
30760WAT     H292523   4.761   3.979   9.379
30761WAT      O92524   6.950   3.280   3.125
30761WAT     H192525   7.048   3.272   3.111
30761WAT     H292526   6.929   3.262   3.221
30762WAT      O92527   7.373   0.697   2.030
30762WAT     H192528   7.457   0.744   2.002
30762WAT     H292529   7.379   0.671   2.126
30763WAT      O92530   2.154   9.197   3.048
30763WAT     H192531   2.180   9.264   2.978
30763WAT     H292532   2.094   9.241   3.115
30764WAT      O92533   7.297   8.701   2.984
30764WAT     H192534   7.214   8.756   2.977
30764WAT     H292535   7.356   8.721   2.906
30765WAT      O92536   4.538   2.745   5.787
30765WAT     H192537   4.461   2.809   5.787
30765WAT     H292538   4.592   2.757   5.704
30766WAT      O92539   6.984   8.595   8.563
30766WAT     H192540   6.886   8.594   8.542
30766WAT     H292541   7.008   8.684   8.602
30767WAT      O92542   6.213   3.939   4.417
30767WAT     H192543   6.237   3.868   4.484
30767WAT     H292544   6.280   3.938   4.343
30768WAT      O92545   5.988   1.138   8.941
30768WAT     H192546   5.927   1.149   8.862
30768WAT     H292547   6.029   1.046   8.938
30769WAT      O92548   2.130   2.698   2.764
30769WAT     H192549   2.228   2.679   2.766
30769WAT     H292550   2.081   2.621   2.722
30770WAT      O92551   9.508   1.074   2.141
30770WAT     H192552   9.576   1.083   2.068
30770WAT     H292553   9.449   1.155   2.141
30771WAT      O92554   7.146   2.425   0.667
30771WAT     H192555   7.124   2.498   0.731
30771WAT     H292556   7.211   2.458   0.599
30772WAT      O92557   1.857   7.523   5.944
30772WAT     H192558   1.774   7.468   5.931
30772WAT     H292559   1.899   7.498   6.031
30773WAT      O92560   3.294   3.658   2.446
30773WAT     H192561   3.233   3.629   2.518
30773WAT     H292562   3.259   3.741   2.403
30774WAT      O92563   1.214   8.120   5.039
30774WAT     H192564   1.205   8.166   5.128
30774WAT     H292565   1.243   8.025   5.054
30775WAT      O92566   3.050   4.252   6.570
30775WAT     H192567   3.130   4.223   6.623
30775WAT     H292568   3.050   4.351   6.561
30776WAT      O92569   1.245   6.991   6.487
30776WAT     H192570   1.304   6.938   6.426
30776WAT     H292571   1.239   6.946   6.575
30777WAT      O92572   7.510   7.988   4.741
30777WAT     H192573   7.575   8.063   4.741
30777WAT     H292574   7.553   7.906   4.704
30778WAT      O92575   8.369   9.623   2.620
30778WAT     H192576   8.322   9.581   2.697
30778WAT     H292577   8.353   9.721   2.621
30779WAT      O92578   1.113   6.671   7.467
30779WAT     H192579   1.103   6.575   7.443
30779WAT     H292580   1.137   6.679   7.563
30780WAT      O92581   0.636   5.710   6.239
30780WAT     H192582   0.619   5.630   6.182
30780WAT     H292583   0.684   5.682   6.322
30781WAT      O92584   1.977   5.616   3.332
30781WAT     H192585   1.947   5.682   3.400
30781WAT     H292586   2.064   5.645   3.292
30782WAT      O92587   2.003   9.559   1.037
30782WAT     H192588   2.042   9.534   1.126
30782WAT     H292589   2.019   9.656   1.020
30783WAT      O92590   5.795   4.534   3.219
30783WAT     H192591   5.793   4.633   3.205
30783WAT     H292592   5.889   4.501   3.210
30784WAT      O92593   1.425   2.417   3.036
30784WAT     H192594   1.463   2.443   2.947
30784WAT     H292595   1.483   2.348   3.078
30785WAT      O92596   2.672   8.431   5.159
30785WAT     H192597   2.675   8.530   5.144
30785WAT     H292598   2.604   8.390   5.099
30786WAT      O92599   4.657   9.102   6.667
30786WAT     H192600   4.606   9.163   6.605
30786WAT     H292601   4.677   9.151   6.751
30787WAT      O92602   8.660   7.841   7.521
30787WAT     H192603   8.568   7.827   7.557
30787WAT     H292604   8.727   7.798   7.582
30788WAT      O92605   1.185   3.377   4.084
30788WAT     H192606   1.229   3.337   4.165
30788WAT     H292607   1.245   3.446   4.044
30789WAT      O92608   3.228   3.093   8.923
30789WAT     H192609   3.276   3.133   9.001
30789WAT     H292610   3.294   3.053   8.860
30790WAT      O92611   0.498   8.251   9.141
30790WAT     H192612   0.435   8.326   9.157
30790WAT     H292613   0.493   8.223   9.045
30791WAT      O92614   8.367   4.465   2.696
30791WAT     H192615   8.423   4.548   2.690
30791WAT     H292616   8.316   4.464   2.782
30792WAT      O92617   4.916   6.040   8.856
30792WAT     H192618   4.988   5.976   8.884
30792WAT     H292619   4.827   6.005   8.884
30793WAT      O92620   4.418   7.598   3.569
30793WAT     H192621   4.465   7.680   3.538
30793WAT     H292622   4.435   7.585   3.667
30794WAT      O92623   6.863   8.521   6.351
30794WAT     H192624   6.886   8.519   6.448
30794WAT     H292625   6.892   8.435   6.308
30795WAT      O92626   4.514   9.306   2.377
30795WAT     H192627   4.525   9.222   2.324
30795WAT     H292628   4.457   9.371   2.326
30796WAT      O92629   3.854   4.548   6.891
30796WAT     H192630   3.927   4.486   6.863
30796WAT     H292631   3.767   4.518   6.852
30797WAT      O92632   3.350   9.691   0.352
30797WAT     H192633   3.441   9.721   0.323
30797WAT     H292634   3.359   9.617   0.419
30798WAT      O92635   3.920   5.422   1.247
30798WAT     H192636   3.866   5.414   1.164
30798WAT     H292637   3.964   5.335   1.267
30799WAT      O92638   7.422   2.139   0.891
30799WAT     H192639   7.415   2.200   0.811
30799WAT     H292640   7.378   2.182   0.969
30800WAT      O92641   5.047   8.889   3.296
30800WAT     H192642   5.094   8.823   3.355
30800WAT     H292643   5.008   8.842   3.217
30801WAT      O92644   5.294   4.806   7.846
30801WAT     H192645   5.258   4.716   7.822
30801WAT     H292646   5.220   4.872   7.850
30802WAT      O92647   5.094   0.832   6.474
30802WAT     H192648   5.051   0.901   6.532
30802WAT     H292649   5.047   0.828   6.386
30803WAT      O92650   1.066   2.276   6.076
30803WAT     H192651   1.065   2.181   6.107
30803WAT     H292652   0.973   2.305   6.054
30804WAT      O92653   7.839   7.802   8.774
30804WAT     H192654   7.747   7.764   8.769
30804WAT     H292655   7.906   7.730   8.756
30805WAT      O92656   9.730   7.788   3.600
30805WAT     H192657   9.634   7.789   3.629
30805WAT     H292658   9.773   7.875   3.626
30806WAT      O92659   8.796   8.990   9.659
30806WAT     H192660   8.795   8.898   9.698
30806WAT     H292661   8.744   8.991   9.573
30807WAT      O92662   4.864   4.557   7.234
30807WAT     H192663   4.785   4.519   7.186
30807WAT     H292664   4.854   4.656   7.242
30808WAT      O92665   3.978   9.468   0.228
30808WAT     H192666   4.065   9.435   0.192
30808WAT     H292667   3.953   9.553   0.184
30809WAT      O92668   7.350   6.067   2.454
30809WAT     H192669   7.308   5.996   2.510
30809WAT     H292670   7.351   6.039   2.359
30810WAT      O92671   8.921   3.506   0.425
30810WAT     H192672   8.892   3.457   0.343
30810WAT     H292673   8.951   3.598   0.401
30811WAT      O92674   6.253   3.867   6.407
30811WAT     H192675   6.321   3.821   6.349
30811WAT     H292676   6.162   3.832   6.385
30812WAT      O92677   4.458   2.849   3.319
30812WAT     H192678   4.551   2.882   3.307
30812WAT     H292679   4.393   2.920   3.292
30813WAT      O92680   1.021   5.469   0.636
30813WAT     H192681   1.002   5.534   0.562
30813WAT     H292682   1.047   5.519   0.719
30814WAT      O92683   9.307   9.588   6.449
30814WAT     H192684   9.334   9.547   6.536
30814WAT     H292685   9.278   9.683   6.464
30815WAT      O92686   6.261   3.284   1.804
30815WAT     H192687   6.245   3.350   1.730
30815WAT     H292688   6.187   3.290   1.870
30816WAT      O92689   2.904   6.148   3.681
30816WAT     H192690   2.940   6.222   3.738
30816WAT     H292691   2.889   6.067   3.738
30817WAT      O92692   3.478   8.385   5.276
30817WAT     H192693   3.394   8.346   5.239
30817WAT     H292694   3.466   8.406   5.373
30818WAT      O92695   9.219   3.816   7.848
30818WAT     H192696   9.283   3.820   7.772
30818WAT     H292697   9.161   3.735   7.839
30819WAT      O92698   0.193   0.836   2.322
30819WAT     H192699   0.157   0.886   2.401
30819WAT     H292700   0.293   0.838   2.324
30820WAT      O92701   3.683   9.606   6.025
30820WAT     H192702   3.638   9.590   6.113
30820WAT     H292703   3.686   9.521   5.973
30821WAT      O92704   2.918   0.161   1.666
30821WAT     H192705   3.016   0.140   1.663
30821WAT     H292706   2.866   0.075   1.670
30822WAT      O92707   2.220   0.947   3.152
30822WAT     H192708   2.254   0.974   3.243
30822WAT     H292709   2.295   0.954   3.086
30823WAT      O92710   7.045   7.752   2.078
30823WAT     H192711   7.122   7.810   2.105
30823WAT     H292712   6.960   7.804   2.085
30824WAT      O92713   8.043   6.421   3.091
30824WAT     H192714   8.067   6.337   3.044
30824WAT     H292715   7.969   6.467   3.042
30825WAT      O92716   6.155   5.174   1.725
30825WAT     H192717   6.251   5.148   1.722
30825WAT     H292718   6.120   5.162   1.818
30826WAT      O92719   6.302   0.108   7.069
30826WAT     H192720   6.255   0.066   6.992
30826WAT     H292721   6.236   0.126   7.142
30827WAT      O92722   4.435   2.626   8.390
30827WAT     H192723   4.475   2.613   8.300
30827WAT     H292724   4.484   2.570   8.457
30828WAT      O92725   9.488   6.395   0.141
30828WAT     H192726   9.397   6.383   0.181
30828WAT     H292727   9.514   6.312   0.091
30829WAT      O92728   4.174   0.878   5.211
30829WAT     H192729   4.244   0.934   5.255
30829WAT     H292730   4.123   0.934   5.146
30830WAT      O92731   8.911   5.089   2.898
30830WAT     H192732   8.831   5.147   2.912
30830WAT     H292733   8.897   5.001   2.944
30831WAT      O92734   1.890   5.658   1.539
30831WAT     H192735   1.936   5.720   1.603
30831WAT     H292736   1.902   5.692   1.446
30832WAT      O92737   7.426   2.118   2.347
30832WAT     H192738   7.405   2.159   2.435
30832WAT     H292739   7.512   2.156   2.312
30833WAT      O92740   5.494   1.351   6.760
30833WAT     H192741   5.519   1.397   6.675
30833WAT     H292742   5.498   1.415   6.836
30834WAT      O92743   0.886   9.193   5.695
30834WAT     H192744   0.894   9.214   5.793
30834WAT     H292745   0.867   9.096   5.683
30835WAT      O92746   0.984   3.963   2.470
30835WAT     H192747   0.891   3.934   2.446
30835WAT     H292748   1.028   3.892   2.525
30836WAT      O92749   7.564   6.577   8.947
30836WAT     H192750   7.643   6.595   9.005
30836WAT     H292751   7.499   6.519   8.996
30837WAT      O92752   9.716   7.677   7.087
30837WAT     H192753   9.619   7.654   7.077
30837WAT     H292754   9.771   7.602   7.050
30838WAT      O92755   5.453   6.958   9.007
30838WAT     H192756   5.357   6.964   8.981
30838WAT     H292757   5.460   6.939   9.105
30839WAT      O92758   0.720   0.791   5.313
30839WAT     H192759   0.811   0.769   5.348
30839WAT     H292760   0.722   0.883   5.273
30840WAT      O92761   2.471   2.184   8.888
30840WAT     H192762   2.508   2.108   8.941
30840WAT     H292763   2.424   2.247   8.949
30841WAT      O92764   2.230   9.620   0.664
30841WAT     H192765   2.177   9.705   0.662
30841WAT     H292766   2.187   9.554   0.725
30842WAT      O92767   0.679   2.603   7.775
30842WAT     H192768   0.710   2.617   7.681
30842WAT     H292769   0.633   2.515   7.782
30843WAT      O92770   7.164   7.051   1.557
30843WAT     H192771   7.127   7.143   1.567
30843WAT     H292772   7.162   7.005   1.646
30844WAT      O92773   6.784   4.226   5.672
30844WAT     H192774   6.697   4.177   5.670
30844WAT     H292775   6.791   4.279   5.756
30845WAT      O92776   0.415   9.826   9.172
30845WAT     H192777   0.462   9.824   9.084
30845WAT     H292778   0.438   9.911   9.220
30846WAT      O92779   9.665   9.501   2.485
30846WAT     H192780   9.763   9.498   2.463
30846WAT     H292781   9.618   9.556   2.416
30847WAT      O92782   1.393   5.439   9.035
30847WAT     H192783   1.434   5.353   9.003
30847WAT     H292784   1.367   5.430   9.131
30848WAT      O92785   0.135   6.432   2.804
30848WAT     H192786   0.225   6.442   2.845
30848WAT     H292787   0.105   6.519   2.766
30849WAT      O92788   7.902   6.298   6.106
30849WAT     H192789   7.816   6.333   6.143
30849WAT     H292790   7.912   6.202   6.131
30850WAT      O92791   0.681   7.235   9.405
30850WAT     H192792   0.604   7.285   9.443
30850WAT     H292793   0.687   7.253   9.306
30851WAT      O92794   9.639   2.159   3.042
30851WAT     H192795   9.603   2.251   3.059
30851WAT     H292796   9.606   2.096   3.112
30852WAT      O92797   5.823   6.542   6.377
30852WAT     H192798   5.837   6.467   6.313
30852WAT     H292799   5.828   6.629   6.328
30853WAT      O92800   3.024   9.746   7.309
30853WAT     H192801   2.980   9.825   7.266
30853WAT     H292802   3.122   9.762   7.316
30854WAT      O92803   3.802   6.766   5.452
30854WAT     H192804   3.822   6.718   5.538
30854WAT     H292805   3.805   6.865   5.468
30855WAT      O92806   4.119   3.457   8.853
30855WAT     H192807   4.054   3.526   8.885
30855WAT     H292808   4.073   3.393   8.792
30856WAT      O92809   5.683   0.782   2.393
30856WAT     H192810   5.698   0.689   2.425
30856WAT     H292811   5.656   0.840   2.469
30857WAT      O92812   4.367   3.729   4.305
30857WAT     H192813   4.287   3.704   4.250
30857WAT     H292814   4.440   3.760   4.245
30858WAT      O92815   5.120   6.703   1.014
30858WAT     H192816   5.042   6.732   1.069
30858WAT     H292817   5.139   6.606   1.030
30859WAT      O92818   8.554   9.303   9.863
30859WAT     H192819   8.577   9.400   9.870
30859WAT     H292820   8.635   9.252   9.831
30860WAT      O92821   4.787   6.510   7.984
30860WAT     H192822   4.747   6.556   8.063
30860WAT     H292823   4.739   6.425   7.966
30861WAT      O92824   4.296   2.677   5.986
30861WAT     H192825   4.203   2.703   5.962
30861WAT     H292826   4.341   2.635   5.907
30862WAT      O92827   5.380   3.014   7.735
30862WAT     H192828   5.307   2.986   7.796
30862WAT     H292829   5.362   3.106   7.700
30863WAT      O92830   0.648   2.701   1.600
30863WAT     H192831   0.702   2.618   1.616
30863WAT     H292832   0.578   2.682   1.531
30864WAT      O92833   9.026   3.874   7.409
30864WAT     H192834   8.930   3.864   7.434
30864WAT     H292835   9.039   3.959   7.358
30865WAT      O92836   3.540   9.539   0.824
30865WAT     H192837   3.580   9.628   0.847
30865WAT     H292838   3.469   9.516   0.890
30866WAT      O92839   7.727   8.845   3.915
30866WAT     H192840   7.673   8.921   3.878
30866WAT     H292841   7.781   8.877   3.993
30867WAT      O92842   5.080   9.646   2.256
30867WAT     H192843   4.995   9.697   2.239
30867WAT     H292844   5.061   9.570   2.318
30868WAT      O92845   1.874   5.475   9.881
30868WAT     H192846   1.819   5.506   9.804
30868WAT     H292847   1.832   5.504   9.967
30869WAT      O92848   3.793   8.725   7.259
30869WAT     H192849   3.833   8.709   7.350
30869WAT     H292850   3.835   8.662   7.194
30870WAT      O92851   2.658   8.083   9.888
30870WAT     H192852   2.648   8.183   9.881
30870WAT     H292853   2.574   8.044   9.925
30871WAT      O92854   4.594   2.740   2.825
30871WAT     H192855   4.510   2.686   2.834
30871WAT     H292856   4.645   2.710   2.744
30872WAT      O92857   8.079   8.436   6.478
30872WAT     H192858   8.022   8.516   6.462
30872WAT     H292859   8.152   8.433   6.410
30873WAT      O92860   1.011   4.886   6.181
30873WAT     H192861   0.929   4.942   6.189
30873WAT     H292862   1.085   4.941   6.143
30874WAT      O92863   2.196   5.356   2.871
30874WAT     H192864   2.249   5.292   2.816
30874WAT     H292865   2.254   5.395   2.943
30875WAT      O92866   6.502   7.045   1.958
30875WAT     H192867   6.532   7.054   2.052
30875WAT     H292868   6.438   7.119   1.936
30876WAT      O92869   9.122   6.345   0.560
30876WAT     H192870   9.130   6.384   0.652
30876WAT     H292871   9.099   6.417   0.495
30877WAT      O92872   5.149   7.056   6.512
30877WAT     H192873   5.103   7.073   6.599
30877WAT     H292874   5.135   6.960   6.485
30878WAT      O92875   7.217   6.281   8.007
30878WAT     H192876   7.195   6.377   8.026
30878WAT     H292877   7.315   6.271   7.995
30879WAT      O92878   8.764   3.781   0.533
30879WAT     H192879   8.752   3.683   0.550
30879WAT     H292880   8.724   3.804   0.445
30880WAT      O92881   1.162   7.040   1.504
30880WAT     H192882   1.188   6.946   1.484
30880WAT     H292883   1.063   7.046   1.517
30881WAT      O92884   3.809   0.555   2.174
30881WAT     H192885   3.890   0.591   2.127
30881WAT     H292886   3.755   0.631   2.210
30882WAT      O92887   4.648   7.792   6.958
30882WAT     H192888   4.748   7.795   6.950
30882WAT     H292889   4.611   7.883   6.936
30883WAT      O92890   8.750   7.617   9.696
30883WAT     H192891   8.736   7.571   9.784
30883WAT     H292892   8.685   7.582   9.629
30884WAT      O92893   1.424   6.797   2.357
30884WAT     H192894   1.353   6.727   2.353
30884WAT     H292895   1.424   6.851   2.273
30885WAT      O92896   0.306   5.789   7.670
30885WAT     H192897   0.330   5.883   7.643
30885WAT     H292898   0.231   5.757   7.613
30886WAT      O92899   1.621   2.916   7.688
30886WAT     H192900   1.547   2.902   7.622
30886WAT     H292901   1.672   2.831   7.700
30887WAT      O92902   0.655   8.953   1.532
30887WAT     H192903   0.724   9.026   1.536
30887WAT     H292904   0.605   8.950   1.618
30888WAT      O92905   1.148   8.932   2.991
30888WAT     H192906   1.109   9.013   2.948
30888WAT     H292907   1.189   8.957   3.079
30889WAT      O92908   0.718   0.393   4.752
30889WAT     H192909   0.694   0.471   4.811
30889WAT     H292910   0.774   0.329   4.804
30890WAT      O92911   8.297   5.598   8.646
30890WAT     H192912   8.200   5.607   8.669
30890WAT     H292913   8.329   5.507   8.673
30891WAT      O92914   5.533   4.453   1.224
30891WAT     H192915   5.491   4.367   1.254
30891WAT     H292916   5.623   4.464   1.267
30892WAT      O92917   6.719   5.342   4.781
30892WAT     H192918   6.648   5.412   4.789
30892WAT     H292919   6.678   5.254   4.757
30893WAT      O92920   8.328   7.367   7.229
30893WAT     H192921   8.301   7.430   7.157
30893WAT     H292922   8.374   7.417   7.302
30894WAT      O92923   2.067   0.025   0.627
30894WAT     H192924   1.984  -0.031   0.618
30894WAT     H292925   2.042   0.118   0.653
30895WAT      O92926   4.130   2.163   5.632
30895WAT     H192927   4.220   2.139   5.668
30895WAT     H292928   4.104   2.254   5.667
30896WAT      O92929   2.237   4.727   6.312
30896WAT     H192930   2.216   4.686   6.401
30896WAT     H292931   2.336   4.728   6.299
30897WAT      O92932   0.362   9.409   3.126
30897WAT     H192933   0.401   9.500   3.139
30897WAT     H292934   0.263   9.413   3.135
30898WAT      O92935   2.722   2.176   2.337
30898WAT     H192936   2.783   2.175   2.258
30898WAT     H292937   2.697   2.082   2.361
30899WAT      O92938   7.310   2.811   8.847
30899WAT     H192939   7.372   2.760   8.907
30899WAT     H292940   7.279   2.751   8.773
30900WAT      O92941   3.004   9.320   6.244
30900WAT     H192942   2.973   9.409   6.209
30900WAT     H292943   2.932   9.252   6.230
30901WAT      O92944   8.303   9.575   2.894
30901WAT     H192945   8.362   9.495   2.882
30901WAT     H292946   8.243   9.560   2.973
30902WAT      O92947   2.524   5.821   1.653
30902WAT     H192948   2.563   5.780   1.571
30902WAT     H292949   2.596   5.832   1.722
30903WAT      O92950   5.897   2.329   2.212
30903WAT     H192951   5.997   2.325   2.203
30903WAT     H292952   5.873   2.386   2.291
30904WAT      O92953   8.271   3.916   3.789
30904WAT     H192954   8.273   3.872   3.879
30904WAT     H292955   8.208   3.994   3.791
30905WAT      O92956   3.291   8.069   5.106
30905WAT     H192957   3.239   8.144   5.147
30905WAT     H292958   3.354   8.031   5.173
30906WAT      O92959   9.658   8.665   5.405
30906WAT     H192960   9.629   8.617   5.488
30906WAT     H292961   9.733   8.616   5.362
30907WAT      O92962   5.260   9.744   3.063
30907WAT     H192963   5.180   9.785   3.019
30907WAT     H292964   5.323   9.711   2.993
30908WAT      O92965   0.924   7.440   9.188
30908WAT     H192966   1.005   7.385   9.168
30908WAT     H292967   0.941   7.497   9.268
30909WAT      O92968   2.633   1.102   4.409
30909WAT     H192969   2.588   1.170   4.468
30909WAT     H292970   2.669   1.147   4.328
30910WAT      O92971   2.129   8.787   5.282
30910WAT     H192972   2.040   8.832   5.280
30910WAT     H292973   2.117   8.689   5.300
30911WAT      O92974   1.106   2.743   2.942
30911WAT     H192975   1.077   2.651   2.966
30911WAT     H292976   1.069   2.808   3.009
30912WAT      O92977   4.901   9.309   7.487
30912WAT     H192978   4.882   9.326   7.583
30912WAT     H292979   4.818   9.278   7.441
30913WAT      O92980   4.961   9.064   2.302
30913WAT     H192981   5.047   9.014   2.310
30913WAT     H292982   4.912   9.061   2.389
30914WAT      O92983   7.177   8.530   0.684
30914WAT     H192984   7.083   8.525   0.719
30914WAT     H292985   7.237   8.571   0.753
30915WAT      O92986   5.617   5.232   3.733
30915WAT     H192987   5.711   5.257   3.755
30915WAT     H292988   5.587   5.158   3.793
30916WAT      O92989   6.192   4.943   2.837
30916WAT     H192990   6.194   4.988   2.926
30916WAT     H292991   6.106   4.964   2.791
30917WAT      O92992   8.702   8.678   5.434
30917WAT     H192993   8.617   8.724   5.461
30917WAT     H292994   8.738   8.627   5.513
30918WAT      O92995   8.060   2.927   8.192
30918WAT     H192996   8.101   3.015   8.218
30918WAT     H292997   8.130   2.869   8.150
30919WAT      O92998   3.201   6.597   5.709
30919WAT     H192999   3.217   6.507   5.667
30919WAT     H293000   3.104   6.621   5.701
30920WAT      O93001   8.155   2.806   0.503
30920WAT     H193002   8.231   2.865   0.477
30920WAT     H293003   8.096   2.854   0.568
30921WAT      O93004   8.363   4.917   7.757
30921WAT     H193005   8.348   5.001   7.705
30921WAT     H293006   8.456   4.883   7.740
30922WAT      O93007   4.973   7.213   7.841
30922WAT     H193008   4.923   7.182   7.760
30922WAT     H293009   4.917   7.280   7.891
30923WAT      O93010   1.009   2.151   4.033
30923WAT     H193011   0.973   2.219   3.969
30923WAT     H293012   1.037   2.070   3.982
30924WAT      O93013   2.926   9.772   3.738
30924WAT     H193014   2.956   9.855   3.784
30924WAT     H293015   2.835   9.787   3.699
30925WAT      O93016   1.861   8.147   2.684
30925WAT     H193017   1.887   8.051   2.683
30925WAT     H293018   1.767   8.157   2.650
30926WAT      O93019   7.556   5.524   5.591
30926WAT     H193020   7.479   5.577   5.624
30926WAT     H293021   7.605   5.577   5.521
30927WAT      O93022   1.106   5.661   0.845
30927WAT     H193023   1.161   5.725   0.792
30927WAT     H293024   1.164   5.587   0.878
30928WAT      O93025   0.061   9.194   1.552
30928WAT     H193026   0.050   9.258   1.477
30928WAT     H293027  -0.027   9.154   1.576
30929WAT      O93028   5.460   8.046   6.978
30929WAT     H193029   5.392   8.096   6.924
30929WAT     H293030   5.437   7.949   6.980
30930WAT      O93031   0.996   1.639   3.474
30930WAT     H193032   0.978   1.737   3.462
30930WAT     H293033   1.094   1.624   3.485
30931WAT      O93034   1.219   1.899   4.275
30931WAT     H193035   1.122   1.899   4.302
30931WAT     H293036   1.237   1.825   4.212
30932WAT      O93037   8.494   3.410   3.249
30932WAT     H193038   8.430   3.339   3.280
30932WAT     H293039   8.466   3.498   3.287
30933WAT      O93040   4.564   9.341   8.434
30933WAT     H193041   4.568   9.394   8.349
30933WAT     H293042   4.633   9.374   8.498
30934WAT      O93043   3.442   4.135   0.542
30934WAT     H193044   3.397   4.083   0.614
30934WAT     H293045   3.502   4.204   0.583
30935WAT      O93046   6.084   0.385   6.962
30935WAT     H193047   6.043   0.364   6.873
30935WAT     H293048   6.030   0.342   7.034
30936WAT      O93049   4.214   2.818   8.797
30936WAT     H193050   4.244   2.746   8.734
30936WAT     H293051   4.260   2.806   8.885
30937WAT      O93052   2.128   8.245   9.491
30937WAT     H193053   2.064   8.275   9.421
30937WAT     H293054   2.195   8.317   9.508
30938WAT      O93055   4.612   8.788   5.225
30938WAT     H193056   4.693   8.787   5.283
30938WAT     H293057   4.637   8.761   5.132
30939WAT      O93058   6.881   4.669   8.729
30939WAT     H193059   6.951   4.669   8.658
30939WAT     H293060   6.791   4.680   8.687
30940WAT      O93061   7.278   0.049   3.305
30940WAT     H193062   7.317   0.138   3.327
30940WAT     H293063   7.229   0.054   3.218
30941WAT      O93064   0.373   2.345   5.538
30941WAT     H193065   0.370   2.420   5.604
30941WAT     H293066   0.329   2.374   5.453
30942WAT      O93067   1.534   6.198   7.496
30942WAT     H193068   1.577   6.224   7.409
30942WAT     H293069   1.538   6.276   7.559
30943WAT      O93070   5.084   3.692   0.438
30943WAT     H193071   5.053   3.783   0.410
30943WAT     H293072   5.138   3.700   0.522
30944WAT      O93073   8.616   8.246   4.776
30944WAT     H193074   8.562   8.173   4.734
30944WAT     H293075   8.641   8.313   4.707
30945WAT      O93076   3.810   3.196   3.435
30945WAT     H193077   3.756   3.142   3.500
30945WAT     H293078   3.760   3.280   3.413
30946WAT      O93079   0.787   7.346   9.810
30946WAT     H193080   0.820   7.310   9.723
30946WAT     H293081   0.832   7.433   9.829
30947WAT      O93082   8.720   0.472   5.874
30947WAT     H193083   8.676   0.512   5.794
30947WAT     H293084   8.800   0.419   5.846
30948WAT      O93085   6.900   7.588   5.271
30948WAT     H193086   6.871   7.521   5.340
30948WAT     H293087   6.994   7.567   5.243
30949WAT      O93088   0.598   2.536   8.455
30949WAT     H193089   0.665   2.609   8.438
30949WAT     H293090   0.607   2.465   8.386
30950WAT      O93091   8.152   4.784   0.570
30950WAT     H193092   8.173   4.737   0.656
30950WAT     H293093   8.216   4.755   0.500
30951WAT      O93094   0.942   0.843   9.508
30951WAT     H193095   1.015   0.911   9.497
30951WAT     H293096   0.963   0.784   9.586
30952WAT      O93097   0.684   5.681   9.258
30952WAT     H193098   0.635   5.601   9.291
30952WAT     H293099   0.630   5.763   9.276
30953WAT      O93100   8.978   1.086   6.838
30953WAT     H193101   8.933   1.158   6.891
30953WAT     H293102   9.030   1.127   6.763
30954WAT      O93103   4.610   3.113   1.138
30954WAT     H193104   4.676   3.160   1.079
30954WAT     H293105   4.658   3.058   1.206
30955WAT      O93106   2.755   3.925   8.604
30955WAT     H193107   2.686   3.986   8.643
30955WAT     H293108   2.844   3.972   8.606
30956WAT      O93109   9.636   8.495   6.875
30956WAT     H193110   9.662   8.483   6.971
30956WAT     H293111   9.544   8.459   6.861
30957WAT      O93112   1.612   5.750   1.684
30957WAT     H193113   1.680   5.743   1.757
30957WAT     H293114   1.530   5.796   1.719
30958WAT      O93115   5.115   0.820   9.671
30958WAT     H193116   5.137   0.804   9.575
30958WAT     H293117   5.110   0.732   9.719
30959WAT      O93118   7.076   9.499   0.716
30959WAT     H193119   7.097   9.430   0.785
30959WAT     H293120   7.004   9.466   0.656
30960WAT      O93121   7.141   3.744   0.089
30960WAT     H193122   7.215   3.757   0.155
30960WAT     H293123   7.171   3.775  -0.001
30961WAT      O93124   0.760   1.180   8.758
30961WAT     H193125   0.804   1.157   8.671
30961WAT     H293126   0.803   1.129   8.832
30962WAT      O93127   4.242   4.784   1.664
30962WAT     H193128   4.182   4.704   1.671
30962WAT     H293129   4.285   4.784   1.573
30963WAT      O93130   4.546   8.422   0.713
30963WAT     H193131   4.554   8.380   0.804
30963WAT     H293132   4.626   8.398   0.658
30964WAT      O93133   5.286   9.781   4.278
30964WAT     H193134   5.219   9.810   4.209
30964WAT     H293135   5.326   9.694   4.250
30965WAT      O93136   4.463   5.782   7.649
30965WAT     H193137   4.378   5.793   7.700
30965WAT     H293138   4.442   5.766   7.552
30966WAT      O93139   5.207   3.192   2.890
30966WAT     H193140   5.282   3.213   2.827
30966WAT     H293141   5.228   3.229   2.981
30967WAT      O93142   8.084   6.342   3.945
30967WAT     H193143   8.075   6.287   4.029
30967WAT     H293144   8.147   6.296   3.882
30968WAT      O93145   1.372   4.989   5.105
30968WAT     H193146   1.312   5.056   5.149
30968WAT     H293147   1.336   4.966   5.014
30969WAT      O93148   7.670   9.181   1.813
30969WAT     H193149   7.705   9.236   1.888
30969WAT     H293150   7.703   9.087   1.822
30970WAT      O93151   4.017   7.995   1.315
30970WAT     H193152   3.963   8.030   1.238
30970WAT     H293153   3.955   7.957   1.384
30971WAT      O93154   5.277   8.004   9.576
30971WAT     H193155   5.192   7.963   9.608
30971WAT     H293156   5.354   7.964   9.626
30972WAT      O93157   7.564   4.594   8.861
30972WAT     H193158   7.492   4.587   8.791
30972WAT     H293159   7.642   4.643   8.824
30973WAT      O93160   0.529   5.295   5.806
30973WAT     H193161   0.624   5.278   5.777
30973WAT     H293162   0.475   5.212   5.792
30974WAT      O93163   6.372   0.319   2.994
30974WAT     H193164   6.355   0.285   2.902
30974WAT     H293165   6.388   0.418   2.990
30975WAT      O93166   0.762   2.715   3.525
30975WAT     H193167   0.739   2.624   3.488
30975WAT     H293168   0.755   2.783   3.451
30976WAT      O93169   2.316   5.847   0.941
30976WAT     H193170   2.394   5.795   0.904
30976WAT     H293171   2.337   5.875   1.035
30977WAT      O93172   1.428   4.447   8.168
30977WAT     H193173   1.411   4.362   8.117
30977WAT     H293174   1.485   4.508   8.114
30978WAT      O93175   8.505   3.756   7.553
30978WAT     H193176   8.428   3.774   7.492
30978WAT     H293177   8.513   3.657   7.568
30979WAT      O93178   6.003   5.009   6.981
30979WAT     H193179   6.102   5.004   6.990
30979WAT     H293180   5.969   4.924   6.943
30980WAT      O93181   3.324   5.894   4.783
30980WAT     H193182   3.407   5.911   4.837
30980WAT     H293183   3.338   5.813   4.725
30981WAT      O93184   7.956   4.333   9.649
30981WAT     H193185   8.013   4.392   9.592
30981WAT     H293186   8.011   4.293   9.722
30982WAT      O93187   9.151   5.549   1.292
30982WAT     H193188   9.220   5.621   1.289
30982WAT     H293189   9.132   5.524   1.387
30983WAT      O93190   3.820   1.752   3.768
30983WAT     H193191   3.775   1.779   3.683
30983WAT     H293192   3.783   1.665   3.799
30984WAT      O93193   6.369   5.776   7.667
30984WAT     H193194   6.308   5.719   7.724
30984WAT     H293195   6.404   5.720   7.592
30985WAT      O93196   1.664   6.364   1.635
30985WAT     H193197   1.610   6.367   1.719
30985WAT     H293198   1.761   6.372   1.659
30986WAT      O93199   5.388   8.622   7.594
30986WAT     H193200   5.343   8.617   7.683
30986WAT     H293201   5.475   8.574   7.598
30987WAT      O93202   4.185   3.651   6.177
30987WAT     H193203   4.126   3.570   6.170
30987WAT     H293204   4.270   3.626   6.222
30988WAT      O93205   6.071   9.480   9.648
30988WAT     H193206   6.145   9.418   9.623
30988WAT     H293207   6.074   9.561   9.590
30989WAT      O93208   7.023   1.733   7.287
30989WAT     H193209   6.933   1.714   7.326
30989WAT     H293210   7.035   1.831   7.274
30990WAT      O93211   9.844   3.065   5.970
30990WAT     H193212   9.746   3.050   5.984
30990WAT     H293213   9.893   3.044   6.054
30991WAT      O93214   0.621   5.073   8.805
30991WAT     H193215   0.618   4.974   8.819
30991WAT     H293216   0.530   5.105   8.778
30992WAT      O93217   4.133   0.266   7.407
30992WAT     H193218   4.131   0.259   7.307
30992WAT     H293219   4.216   0.313   7.436
30993WAT      O93220   5.943   6.149   8.715
30993WAT     H193221   6.013   6.165   8.783
30993WAT     H293222   5.981   6.164   8.623
30994WAT      O93223   6.635   7.924   9.131
30994WAT     H193224   6.639   7.839   9.182
30994WAT     H293225   6.572   7.915   9.054
30995WAT      O93226   5.941   5.066   7.747
30995WAT     H193227   5.842   5.069   7.734
30995WAT     H293228   5.966   5.129   7.820
30996WAT      O93229   5.267   6.573   3.558
30996WAT     H193230   5.184   6.548   3.609
30996WAT     H293231   5.241   6.613   3.470
30997WAT      O93232   5.101   8.463   7.072
30997WAT     H193233   5.087   8.480   6.975
30997WAT     H293234   5.019   8.490   7.123
30998WAT      O93235   0.460   4.875   8.321
30998WAT     H193236   0.499   4.825   8.244
30998WAT     H293237   0.417   4.959   8.288
30999WAT      O93238   9.315   7.600   3.361
30999WAT     H193239   9.226   7.633   3.329
30999WAT     H293240   9.386   7.666   3.334
31000WAT      O93241   5.435   4.774   5.774
31000WAT     H193242   5.404   4.782   5.869
31000WAT     H293243   5.522   4.725   5.772
31001WAT      O93244   7.974   4.957   4.443
31001WAT     H193245   7.911   4.884   4.468
31001WAT     H293246   7.954   4.988   4.350
31002WAT      O93247   6.613   4.201   0.977
31002WAT     H193248   6.526   4.196   0.928
31002WAT     H293249   6.686   4.221   0.912
31003WAT      O93250   9.267   7.155   0.102
31003WAT     H193251   9.332   7.143   0.176
31003WAT     H293252   9.202   7.079   0.102
31004WAT      O93253   3.725   2.686   9.443
31004WAT     H193254   3.749   2.595   9.476
31004WAT     H293255   3.681   2.738   9.516
31005WAT      O93256   7.457   3.149   4.429
31005WAT     H193257   7.493   3.233   4.470
31005WAT     H293258   7.427   3.087   4.502
31006WAT      O93259   0.728   9.031   0.703
31006WAT     H193260   0.628   9.036   0.704
31006WAT     H293261   0.761   8.989   0.787
31007WAT      O93262   3.610   4.852   5.727
31007WAT     H193263   3.685   4.905   5.687
31007WAT     H293264   3.539   4.914   5.760
31008WAT      O93265   8.187   0.317   6.941
31008WAT     H193266   8.116   0.383   6.964
31008WAT     H293267   8.256   0.314   7.014
31009WAT      O93268   4.622   9.641   1.147
31009WAT     H193269   4.640   9.737   1.166
31009WAT     H293270   4.678   9.612   1.069
31010WAT      O93271   6.983   1.519   0.850
31010WAT     H193272   6.885   1.505   0.865
31010WAT     H293273   7.012   1.604   0.894
31011WAT      O93274   4.294   1.485   5.893
31011WAT     H193275   4.243   1.555   5.943
31011WAT     H293276   4.242   1.457   5.812
31012WAT      O93277   9.624   9.206   8.530
31012WAT     H193278   9.537   9.250   8.509
31012WAT     H293279   9.688   9.219   8.454
31013WAT      O93280   9.703   9.527   3.960
31013WAT     H193281   9.735   9.566   4.046
31013WAT     H293282   9.756   9.567   3.885
31014WAT      O93283   8.661   9.605   1.306
31014WAT     H193284   8.672   9.510   1.276
31014WAT     H293285   8.566   9.621   1.330
31015WAT      O93286   4.308   9.405   6.076
31015WAT     H193287   4.265   9.327   6.122
31015WAT     H293288   4.243   9.481   6.072
31016WAT      O93289   6.382   3.646   5.186
31016WAT     H193290   6.284   3.631   5.203
31016WAT     H293291   6.422   3.694   5.264
31017WAT      O93292   8.301   7.498   1.131
31017WAT     H193293   8.345   7.436   1.196
31017WAT     H293294   8.322   7.469   1.038
31018WAT      O93295   2.246   6.032   9.481
31018WAT     H193296   2.341   6.039   9.450
31018WAT     H293297   2.205   6.123   9.484
31019WAT      O93298   9.413   3.197   8.550
31019WAT     H193299   9.456   3.182   8.639
31019WAT     H293300   9.450   3.131   8.484
31020WAT      O93301   5.639   0.033   5.633
31020WAT     H193302   5.676   0.075   5.550
31020WAT     H293303   5.626   0.104   5.703
31021WAT      O93304   8.260   5.091   2.824
31021WAT     H193305   8.354   5.075   2.793
31021WAT     H293306   8.227   5.178   2.788
31022WAT      O93307   1.067   1.322   5.017
31022WAT     H193308   1.147   1.351   4.965
31022WAT     H293309   1.008   1.265   4.959
31023WAT      O93310   8.286   6.718   2.503
31023WAT     H193311   8.217   6.659   2.543
31023WAT     H293312   8.270   6.813   2.532
31024WAT      O93313   1.744   9.767   3.156
31024WAT     H193314   1.833   9.720   3.160
31024WAT     H293315   1.727   9.812   3.244
31025WAT      O93316   9.057   1.613   8.972
31025WAT     H193317   9.134   1.558   9.004
31025WAT     H293318   9.086   1.708   8.960
31026WAT      O93319   9.673   6.633   2.573
31026WAT     H193320   9.667   6.721   2.620
31026WAT     H293321   9.701   6.647   2.478
31027WAT      O93322   8.669   0.533   2.493
31027WAT     H193323   8.582   0.484   2.496
31027WAT     H293324   8.652   0.630   2.512
31028WAT      O93325   8.388   0.331   4.265
31028WAT     H193326   8.447   0.268   4.216
31028WAT     H293327   8.440   0.378   4.337
31029WAT      O93328   5.337   1.003   6.848
31029WAT     H193329   5.257   1.021   6.905
31029WAT     H293330   5.334   0.908   6.815
31030WAT      O93331   3.367   5.514   0.283
31030WAT     H193332   3.388   5.590   0.345
31030WAT     H293333   3.303   5.546   0.213
31031WAT      O93334   6.465   7.733   5.077
31031WAT     H193335   6.411   7.750   5.159
31031WAT     H293336   6.420   7.664   5.021
31032WAT      O93337   7.555   5.977   0.137
31032WAT     H193338   7.462   5.976   0.099
31032WAT     H293339   7.557   6.033   0.219
31033WAT      O93340   1.786   4.772   1.261
31033WAT     H193341   1.714   4.839   1.245
31033WAT     H293342   1.820   4.781   1.355
31034WAT      O93343   6.462   0.286   6.070
31034WAT     H193344   6.415   0.324   5.990
31034WAT     H293345   6.515   0.206   6.042
31035WAT      O93346   5.793   8.094   2.189
31035WAT     H193347   5.870   8.112   2.250
31035WAT     H293348   5.707   8.113   2.237
31036WAT      O93349   5.419   5.280   5.874
31036WAT     H193350   5.430   5.195   5.823
31036WAT     H293351   5.344   5.270   5.940
31037WAT      O93352   5.938   4.768   9.279
31037WAT     H193353   5.951   4.855   9.326
31037WAT     H293354   5.880   4.708   9.334
31038WAT      O93355   2.322   2.859   1.496
31038WAT     H193356   2.369   2.775   1.471
31038WAT     H293357   2.331   2.926   1.421
31039WAT      O93358   7.995   3.124   5.666
31039WAT     H193359   7.900   3.125   5.695
31039WAT     H293360   8.053   3.090   5.741
31040WAT      O93361   8.405   7.656   2.113
31040WAT     H193362   8.414   7.586   2.042
31040WAT     H293363   8.308   7.678   2.127
31041WAT      O93364   0.355   7.132   3.899
31041WAT     H193365   0.429   7.177   3.849
31041WAT     H293366   0.377   7.035   3.912
31042WAT      O93367   3.271   6.490   6.726
31042WAT     H193368   3.333   6.506   6.802
31042WAT     H293369   3.322   6.448   6.650
31043WAT      O93370   9.318   1.295   7.110
31043WAT     H193371   9.365   1.334   7.189
31043WAT     H293372   9.285   1.369   7.051
31044WAT      O93373   3.933   3.746   3.826
31044WAT     H193374   3.940   3.783   3.918
31044WAT     H293375   3.838   3.718   3.808
31045WAT      O93376   3.388   4.420   6.196
31045WAT     H193377   3.301   4.470   6.191
31045WAT     H293378   3.377   4.339   6.253
31046WAT      O93379   9.550   0.992   3.715
31046WAT     H193380   9.464   1.004   3.765
31046WAT     H293381   9.533   0.942   3.631
31047WAT      O93382   6.096   5.074   6.233
31047WAT     H193383   6.015   5.042   6.282
31047WAT     H293384   6.138   4.998   6.183
31048WAT      O93385   2.423   7.169   3.005
31048WAT     H193386   2.466   7.182   2.916
31048WAT     H293387   2.392   7.074   3.013
31049WAT      O93388   8.227   0.348   3.226
31049WAT     H193389   8.222   0.323   3.130
31049WAT     H293390   8.141   0.323   3.272
31050WAT      O93391   0.880   4.260   0.234
31050WAT     H193392   0.945   4.333   0.254
31050WAT     H293393   0.930   4.173   0.226
31051WAT      O93394   6.765   3.744   0.569
31051WAT     H193395   6.772   3.688   0.652
31051WAT     H293396   6.736   3.836   0.594
31052WAT      O93397   0.413   7.259   9.045
31052WAT     H193398   0.434   7.162   9.034
31052WAT     H293399   0.472   7.298   9.115
31053WAT      O93400   8.504   8.847   2.322
31053WAT     H193401   8.573   8.817   2.388
31053WAT     H293402   8.549   8.870   2.236
31054WAT      O93403   2.945   5.590   2.672
31054WAT     H193404   2.945   5.652   2.750
31054WAT     H293405   2.878   5.621   2.605
31055WAT      O93406   7.570   7.076   4.227
31055WAT     H193407   7.494   7.141   4.233
31055WAT     H293408   7.559   7.005   4.296
31056WAT      O93409   0.388   6.983   0.707
31056WAT     H193410   0.396   6.897   0.657
31056WAT     H293411   0.346   7.052   0.648
31057WAT      O93412   4.512   6.499   7.400
31057WAT     H193413   4.521   6.496   7.300
31057WAT     H293414   4.538   6.589   7.433
31058WAT      O93415   1.172   6.365   0.112
31058WAT     H193416   1.219   6.331   0.030
31058WAT     H293417   1.074   6.369   0.094
31059WAT      O93418   9.031   1.116   5.030
31059WAT     H193419   8.946   1.066   5.017
31059WAT     H293420   9.040   1.143   5.126
31060WAT      O93421   4.411   7.689   3.184
31060WAT     H193422   4.335   7.632   3.152
31060WAT     H293423   4.421   7.768   3.123
31061WAT      O93424   2.360   4.074   6.238
31061WAT     H193425   2.420   4.127   6.178
31061WAT     H293426   2.359   3.979   6.207
31062WAT      O93427   6.738   2.316   0.632
31062WAT     H193428   6.639   2.301   0.635
31062WAT     H293429   6.760   2.403   0.676
31063WAT      O93430   5.699   9.113   2.283
31063WAT     H193431   5.655   9.075   2.201
31063WAT     H293432   5.751   9.195   2.257
31064WAT      O93433   5.019   3.554   2.889
31064WAT     H193434   5.117   3.572   2.883
31064WAT     H293435   4.968   3.637   2.865
31065WAT      O93436   1.943   6.543   8.409
31065WAT     H193437   1.954   6.610   8.335
31065WAT     H293438   1.968   6.585   8.496
31066WAT      O93439   3.626   9.040   4.430
31066WAT     H193440   3.693   9.011   4.499
31066WAT     H293441   3.664   9.024   4.338
31067WAT      O93442   6.412   9.120   3.260
31067WAT     H193443   6.345   9.104   3.188
31067WAT     H293444   6.381   9.075   3.344
31068WAT      O93445   1.238   4.738   7.412
31068WAT     H193446   1.258   4.675   7.487
31068WAT     H293447   1.151   4.713   7.369
31069WAT      O93448   7.378   9.319   7.870
31069WAT     H193449   7.278   9.315   7.877
31069WAT     H293450   7.404   9.400   7.818
31070WAT      O93451   2.188   3.787   9.353
31070WAT     H193452   2.164   3.800   9.450
31070WAT     H293453   2.201   3.690   9.335
31071WAT      O93454   2.352   5.819   5.507
31071WAT     H193455   2.408   5.761   5.566
31071WAT     H293456   2.408   5.855   5.432
31072WAT      O93457   8.871   5.751   3.791
31072WAT     H193458   8.816   5.788   3.866
31072WAT     H293459   8.812   5.698   3.730
31073WAT      O93460   5.243   2.083   4.981
31073WAT     H193461   5.216   2.011   4.917
31073WAT     H293462   5.183   2.162   4.970
31074WAT      O93463   6.629   1.584   0.583
31074WAT     H193464   6.534   1.576   0.553
31074WAT     H293465   6.672   1.494   0.581
31075WAT      O93466   3.351   0.340   9.161
31075WAT     H193467   3.350   0.345   9.261
31075WAT     H293468   3.286   0.406   9.123
31076WAT      O93469   1.080   5.997   8.470
31076WAT     H193470   1.137   5.916   8.480
31076WAT     H293471   1.137   6.079   8.474
31077WAT      O93472   1.596   2.637   3.113
31077WAT     H193473   1.564   2.718   3.161
31077WAT     H293474   1.534   2.561   3.130
31078WAT      O93475   1.504   3.487   2.286
31078WAT     H193476   1.496   3.442   2.375
31078WAT     H293477   1.417   3.480   2.237
31079WAT      O93478   9.473   5.226   9.707
31079WAT     H193479   9.445   5.131   9.694
31079WAT     H293480   9.442   5.258   9.796
31080WAT      O93481   2.918   3.822   7.593
31080WAT     H193482   2.936   3.817   7.495
31080WAT     H293483   2.917   3.918   7.622
31081WAT      O93484   6.111   6.179   0.752
31081WAT     H193485   6.207   6.190   0.777
31081WAT     H293486   6.083   6.085   0.771
31082WAT      O93487   5.302   4.103   4.406
31082WAT     H193488   5.349   4.108   4.494
31082WAT     H293489   5.203   4.100   4.421
31083WAT      O93490   6.186   3.138   5.804
31083WAT     H193491   6.228   3.057   5.762
31083WAT     H293492   6.257   3.194   5.847
31084WAT      O93493   4.431   0.523   8.397
31084WAT     H193494   4.366   0.457   8.359
31084WAT     H293495   4.522   0.481   8.404
31085WAT      O93496   9.848   7.448   0.273
31085WAT     H193497   9.871   7.465   0.368
31085WAT     H293498   9.896   7.513   0.214
31086WAT      O93499   3.187   7.740   2.123
31086WAT     H193500   3.196   7.770   2.028
31086WAT     H293501   3.137   7.654   2.127
31087WAT      O93502   6.170   6.851   3.908
31087WAT     H193503   6.138   6.856   3.813
31087WAT     H293504   6.269   6.862   3.910
31088WAT      O93505   2.693   3.937   1.004
31088WAT     H193506   2.601   3.972   1.022
31088WAT     H293507   2.705   3.849   1.050
31089WAT      O93508   0.422   3.297   3.837
31089WAT     H193509   0.487   3.344   3.897
31089WAT     H293510   0.347   3.359   3.814
31090WAT      O93511   8.369   4.572   5.039
31090WAT     H193512   8.459   4.587   5.079
31090WAT     H293513   8.324   4.660   5.022
31091WAT      O93514   8.373   9.680   0.606
31091WAT     H193515   8.311   9.729   0.667
31091WAT     H293516   8.461   9.728   0.603
31092WAT      O93517   6.349   2.837   8.928
31092WAT     H193518   6.285   2.834   9.005
31092WAT     H293519   6.314   2.779   8.854
31093WAT      O93520   0.457   8.991   0.741
31093WAT     H193521   0.483   8.894   0.740
31093WAT     H293522   0.391   9.008   0.668
31094WAT      O93523   6.949   3.412   1.477
31094WAT     H193524   6.858   3.371   1.470
31094WAT     H293525   7.005   3.384   1.399
31095WAT      O93526   3.782   5.232   7.818
31095WAT     H193527   3.780   5.147   7.871
31095WAT     H293528   3.867   5.281   7.837
31096WAT      O93529   7.965   8.265   3.848
31096WAT     H193530   8.015   8.216   3.776
31096WAT     H293531   7.964   8.210   3.931
31097WAT      O93532   8.479   1.229   4.289
31097WAT     H193533   8.449   1.137   4.264
31097WAT     H293534   8.459   1.291   4.213
31098WAT      O93535   9.228   5.627   5.817
31098WAT     H193536   9.251   5.718   5.783
31098WAT     H293537   9.302   5.563   5.795
31099WAT      O93538   6.562   1.480   7.475
31099WAT     H193539   6.516   1.421   7.541
31099WAT     H293540   6.642   1.432   7.438
31100WAT      O93541   5.628   8.883   2.769
31100WAT     H193542   5.661   8.793   2.799
31100WAT     H293543   5.653   8.952   2.837
31101WAT      O93544   1.063   2.928   1.244
31101WAT     H193545   1.120   2.877   1.180
31101WAT     H293546   0.994   2.868   1.283
31102WAT      O93547   3.342   4.784   5.542
31102WAT     H193548   3.264   4.804   5.483
31102WAT     H293549   3.352   4.858   5.609
31103WAT      O93550   2.073   8.595   1.431
31103WAT     H193551   2.171   8.606   1.448
31103WAT     H293552   2.027   8.569   1.515
31104WAT      O93553   5.110   2.705   2.290
31104WAT     H193554   5.202   2.744   2.290
31104WAT     H293555   5.078   2.695   2.384
31105WAT      O93556   8.898   8.055   3.436
31105WAT     H193557   8.916   7.962   3.467
31105WAT     H293558   8.979   8.090   3.388
31106WAT      O93559   7.310   5.742   9.197
31106WAT     H193560   7.353   5.652   9.203
31106WAT     H293561   7.370   5.810   9.239
31107WAT      O93562   5.333   0.950   0.742
31107WAT     H193563   5.244   0.910   0.723
31107WAT     H293564   5.322   1.031   0.800
31108WAT      O93565   9.458   6.203   2.962
31108WAT     H193566   9.398   6.262   2.908
31108WAT     H293567   9.494   6.130   2.903
31109WAT      O93568   3.812   5.569   8.704
31109WAT     H193569   3.853   5.501   8.765
31109WAT     H293570   3.746   5.624   8.754
31110WAT      O93571   5.117   9.717   4.986
31110WAT     H193572   5.086   9.797   4.934
31110WAT     H293573   5.164   9.747   5.069
31111WAT      O93574   3.569   7.622   9.395
31111WAT     H193575   3.487   7.572   9.422
31111WAT     H293576   3.634   7.560   9.351
31112WAT      O93577   2.275   7.516   9.874
31112WAT     H193578   2.306   7.608   9.851
31112WAT     H293579   2.348   7.467   9.921
31113WAT      O93580   9.234   5.916   4.631
31113WAT     H193581   9.240   5.823   4.596
31113WAT     H293582   9.304   5.930   4.701
31114WAT      O93583   3.657   0.883   8.220
31114WAT     H193584   3.575   0.932   8.189
31114WAT     H293585   3.645   0.785   8.206
31115WAT      O93586   1.792   4.972   2.829
31115WAT     H193587   1.869   5.022   2.869
31115WAT     H293588   1.707   5.021   2.849
31116WAT      O93589   6.510   2.689   0.102
31116WAT     H193590   6.469   2.682   0.193
31116WAT     H293591   6.481   2.611   0.046
31117WAT      O93592   6.416   6.359   1.370
31117WAT     H193593   6.443   6.326   1.280
31117WAT     H293594   6.476   6.318   1.440
31118WAT      O93595   7.336   8.311   3.950
31118WAT     H193596   7.351   8.327   3.852
31118WAT     H293597   7.375   8.387   4.002
31119WAT      O93598   2.972   5.066   8.815
31119WAT     H193599   2.952   5.007   8.893
31119WAT     H293600   2.899   5.134   8.806
31120WAT      O93601   2.268   5.522   3.537
31120WAT     H193602   2.212   5.443   3.561
31120WAT     H293603   2.340   5.533   3.605
31121WAT      O93604   8.701   5.604   3.088
31121WAT     H193605   8.654   5.531   3.038
31121WAT     H293606   8.660   5.692   3.064
31122WAT      O93607   9.204   2.559   2.063
31122WAT     H193608   9.232   2.653   2.044
31122WAT     H293609   9.197   2.546   2.162
31123WAT      O93610   4.308   1.451   9.162
31123WAT     H193611   4.362   1.526   9.201
31123WAT     H293612   4.350   1.364   9.187
31124WAT      O93613   5.747   4.218   5.254
31124WAT     H193614   5.727   4.129   5.294
31124WAT     H293615   5.844   4.222   5.228
31125WAT      O93616   0.108   9.270   0.886
31125WAT     H193617   0.061   9.184   0.905
31125WAT     H293618   0.082   9.303   0.795
31126WAT      O93619   5.954   0.067   0.160
31126WAT     H193620   5.945   0.071   0.259
31126WAT     H293621   5.914  -0.018   0.126
31127WAT      O93622   3.583   1.046   4.901
31127WAT     H193623   3.557   1.019   4.993
31127WAT     H293624   3.632   0.971   4.856
31128WAT      O93625   9.293   5.399   7.911
31128WAT     H193626   9.283   5.489   7.954
31128WAT     H293627   9.379   5.397   7.860
31129WAT      O93628   2.563   4.075   8.722
31129WAT     H193629   2.566   4.107   8.817
31129WAT     H293630   2.468   4.063   8.694
31130WAT      O93631   5.932   0.334   1.068
31130WAT     H193632   5.922   0.367   1.162
31130WAT     H293633   6.029   0.335   1.043
31131WAT      O93634   4.966   4.005   6.942
31131WAT     H193635   4.972   4.016   7.041
31131WAT     H293636   4.980   4.094   6.898
31132WAT      O93637   4.726   7.532   8.519
31132WAT     H193638   4.719   7.630   8.536
31132WAT     H293639   4.670   7.508   8.440
31133WAT      O93640   0.511   5.200   0.093
31133WAT     H193641   0.539   5.255   0.015
31133WAT     H293642   0.419   5.164   0.078
31134WAT      O93643   6.194   2.487   9.448
31134WAT     H193644   6.098   2.511   9.466
31134WAT     H293645   6.247   2.571   9.434
31135WAT      O93646   7.877   7.276   6.925
31135WAT     H193647   7.792   7.235   6.959
31135WAT     H293648   7.898   7.358   6.980
31136WAT      O93649   8.091   5.523   2.078
31136WAT     H193650   8.179   5.544   2.035
31136WAT     H293651   8.104   5.514   2.177
31137WAT      O93652   5.845   5.287   7.296
31137WAT     H193653   5.863   5.321   7.203
31137WAT     H293654   5.840   5.187   7.294
31138WAT      O93655   6.156   6.098   9.441
31138WAT     H193656   6.059   6.107   9.462
31138WAT     H293657   6.183   6.169   9.377
31139WAT      O93658   3.823   3.063   1.789
31139WAT     H193659   3.761   3.047   1.866
31139WAT     H293660   3.831   2.979   1.735
31140WAT      O93661   8.769   4.348   9.013
31140WAT     H193662   8.687   4.399   9.038
31140WAT     H293663   8.785   4.355   8.915
31141WAT      O93664   9.527   7.722   1.936
31141WAT     H193665   9.601   7.697   1.873
31141WAT     H293666   9.479   7.640   1.965
31142WAT      O93667   7.383   5.251   2.485
31142WAT     H193668   7.434   5.289   2.562
31142WAT     H293669   7.422   5.163   2.458
31143WAT      O93670   5.016   8.265   4.811
31143WAT     H193671   4.986   8.361   4.810
31143WAT     H293672   4.986   8.222   4.897
31144WAT      O93673   3.461   8.142   5.876
31144WAT     H193674   3.456   8.228   5.927
31144WAT     H293675   3.513   8.075   5.929
31145WAT      O93676   6.640   2.746   5.681
31145WAT     H193677   6.675   2.771   5.590
31145WAT     H293678   6.541   2.734   5.675
31146WAT      O93679   3.732   2.166   7.147
31146WAT     H193680   3.738   2.111   7.064
31146WAT     H293681   3.646   2.146   7.195
31147WAT      O93682   6.571   6.633   1.376
31147WAT     H193683   6.501   6.685   1.327
31147WAT     H293684   6.551   6.535   1.367
31148WAT      O93685   7.430   2.364   6.630
31148WAT     H193686   7.380   2.323   6.553
31148WAT     H293687   7.528   2.364   6.610
31149WAT      O93688   8.262   5.653   2.519
31149WAT     H193689   8.234   5.644   2.615
31149WAT     H293690   8.205   5.594   2.462
31150WAT      O93691   1.707   1.034   6.008
31150WAT     H193692   1.779   0.969   6.030
31150WAT     H293693   1.688   1.092   6.088
31151WAT      O93694   2.380   0.569   3.406
31151WAT     H193695   2.341   0.479   3.387
31151WAT     H293696   2.453   0.588   3.341
31152WAT      O93697   9.737   3.175   2.906
31152WAT     H193698   9.641   3.198   2.891
31152WAT     H293699   9.791   3.260   2.907
31153WAT      O93700   3.803   0.623   8.558
31153WAT     H193701   3.820   0.616   8.656
31153WAT     H293702   3.881   0.587   8.508
31154WAT      O93703   7.313   7.010   3.294
31154WAT     H193704   7.411   6.992   3.286
31154WAT     H293705   7.293   7.101   3.256
31155WAT      O93706   4.771   5.577   9.848
31155WAT     H193707   4.860   5.531   9.851
31155WAT     H293708   4.782   5.668   9.807
31156WAT      O93709   8.357   9.717   9.802
31156WAT     H193710   8.366   9.738   9.899
31156WAT     H293711   8.286   9.774   9.762
31157WAT      O93712   4.568   4.017   1.068
31157WAT     H193713   4.578   4.037   0.970
31157WAT     H293714   4.658   3.994   1.106
31158WAT      O93715   1.815   7.994   5.161
31158WAT     H193716   1.837   7.966   5.255
31158WAT     H293717   1.854   8.083   5.143
31159WAT      O93718   7.235   4.673   4.780
31159WAT     H193719   7.188   4.760   4.766
31159WAT     H293720   7.324   4.675   4.736
31160WAT      O93721   2.043   3.931   8.410
31160WAT     H193722   2.121   3.974   8.455
31160WAT     H293723   2.010   3.990   8.336
31161WAT      O93724   5.831   7.932   9.388
31161WAT     H193725   5.866   8.000   9.324
31161WAT     H293726   5.752   7.969   9.436
31162WAT      O93727   4.118   8.610   7.777
31162WAT     H193728   4.137   8.644   7.870
31162WAT     H293729   4.205   8.588   7.732
31163WAT      O93730   9.451   0.735   0.867
31163WAT     H193731   9.439   0.730   0.768
31163WAT     H293732   9.412   0.653   0.909
31164WAT      O93733   3.111   2.372   8.952
31164WAT     H193734   3.107   2.452   9.012
31164WAT     H293735   3.055   2.387   8.871
31165WAT      O93736   2.705   4.862   5.107
31165WAT     H193737   2.777   4.909   5.159
31165WAT     H293738   2.745   4.821   5.025
31166WAT      O93739   3.588   1.708   4.171
31166WAT     H193740   3.548   1.799   4.160
31166WAT     H293741   3.665   1.713   4.235
31167WAT      O93742   6.777   6.902   7.312
31167WAT     H193743   6.761   6.824   7.372
31167WAT     H293744   6.709   6.902   7.239
31168WAT      O93745   1.329   4.255   4.861
31168WAT     H193746   1.309   4.318   4.936
31168WAT     H293747   1.243   4.225   4.819
31169WAT      O93748   2.333   6.077   3.501
31169WAT     H193749   2.340   5.985   3.537
31169WAT     H293750   2.382   6.140   3.561
31170WAT      O93751   8.365   6.800   5.014
31170WAT     H193752   8.446   6.757   4.974
31170WAT     H293753   8.318   6.734   5.072
31171WAT      O93754   8.582   8.733   4.943
31171WAT     H193755   8.630   8.682   5.014
31171WAT     H293756   8.485   8.738   4.966
31172WAT      O93757   3.953   1.856   4.717
31172WAT     H193758   4.048   1.862   4.685
31172WAT     H293759   3.892   1.861   4.638
31173WAT      O93760   4.067   1.037   3.498
31173WAT     H193761   4.163   1.059   3.515
31173WAT     H293762   4.044   1.059   3.403
31174WAT      O93763   2.156   9.408   5.899
31174WAT     H193764   2.202   9.492   5.873
31174WAT     H293765   2.087   9.428   5.969
31175WAT      O93766   4.017   1.531   4.429
31175WAT     H193767   3.939   1.582   4.393
31175WAT     H293768   3.985   1.446   4.471
31176WAT      O93769   3.954   8.245   6.826
31176WAT     H193770   4.036   8.236   6.771
31176WAT     H293771   3.979   8.265   6.921
31177WAT      O93772   4.602   6.491   8.939
31177WAT     H193773   4.657   6.421   8.985
31177WAT     H293774   4.651   6.578   8.939
31178WAT      O93775   4.981   9.180   9.333
31178WAT     H193776   5.056   9.245   9.319
31178WAT     H293777   4.935   9.201   9.419
31179WAT      O93778   2.716   9.813   4.137
31179WAT     H193779   2.725   9.729   4.084
31179WAT     H293780   2.701   9.790   4.234
31180WAT      O93781   7.371   1.043   4.187
31180WAT     H193782   7.412   1.069   4.099
31180WAT     H293783   7.295   1.104   4.208
31181WAT      O93784   7.321   5.399   2.267
31181WAT     H193785   7.379   5.476   2.293
31181WAT     H293786   7.331   5.325   2.333
31182WAT      O93787   4.801   6.209   9.351
31182WAT     H193788   4.750   6.224   9.435
31182WAT     H293789   4.855   6.291   9.329
31183WAT      O93790   4.826   0.053   7.362
31183WAT     H193791   4.876  -0.034   7.361
31183WAT     H293792   4.764   0.057   7.284
31184WAT      O93793   0.888   5.759   3.761
31184WAT     H193794   0.858   5.847   3.725
31184WAT     H293795   0.822   5.688   3.737
31185WAT      O93796   3.483   9.822   0.847
31185WAT     H193797   3.461   9.909   0.891
31185WAT     H293798   3.404   9.790   0.794
31186WAT      O93799   4.751   9.099   5.832
31186WAT     H193800   4.677   9.147   5.881
31186WAT     H293801   4.768   9.144   5.745
31187WAT      O93802   5.030   2.374   0.181
31187WAT     H193803   5.081   2.449   0.139
31187WAT     H293804   5.042   2.290   0.128
31188WAT      O93805   0.571   5.515   4.935
31188WAT     H193806   0.651   5.563   4.969
31188WAT     H293807   0.580   5.498   4.836
31189WAT      O93808   4.296   8.222   0.924
31189WAT     H193809   4.345   8.137   0.945
31189WAT     H293810   4.208   8.223   0.973
31190WAT      O93811   5.951   8.354   9.065
31190WAT     H193812   5.937   8.409   9.148
31190WAT     H293813   5.870   8.361   9.007
31191WAT      O93814   2.138   0.245   7.737
31191WAT     H193815   2.081   0.200   7.805
31191WAT     H293816   2.113   0.213   7.646
31192WAT      O93817   2.146   8.543   4.346
31192WAT     H193818   2.148   8.472   4.276
31192WAT     H293819   2.229   8.538   4.402
31193WAT      O93820   9.764   0.616   6.753
31193WAT     H193821   9.706   0.678   6.806
31193WAT     H293822   9.741   0.623   6.656
31194WAT      O93823   8.117   2.895   0.171
31194WAT     H193824   8.062   2.919   0.252
31194WAT     H293825   8.057   2.857   0.100
31195WAT      O93826   3.748   3.397   0.044
31195WAT     H193827   3.694   3.364  -0.034
31195WAT     H293828   3.845   3.391   0.022
31196WAT      O93829   4.483   4.375   9.388
31196WAT     H193830   4.540   4.434   9.444
31196WAT     H293831   4.520   4.282   9.389
31197WAT      O93832   3.575   7.466   1.721
31197WAT     H193833   3.590   7.439   1.816
31197WAT     H293834   3.509   7.404   1.678
31198WAT      O93835   1.149   5.055   4.631
31198WAT     H193836   1.228   5.111   4.603
31198WAT     H293837   1.073   5.116   4.656
31199WAT      O93838   3.902   3.056   1.187
31199WAT     H193839   3.820   3.000   1.176
31199WAT     H293840   3.916   3.112   1.105
31200WAT      O93841   9.712   4.605   1.402
31200WAT     H193842   9.612   4.616   1.399
31200WAT     H293843   9.739   4.568   1.491
31201WAT      O93844   5.375   2.610   7.479
31201WAT     H193845   5.380   2.510   7.487
31201WAT     H293846   5.452   2.651   7.528
31202WAT      O93847   9.357   3.568   1.189
31202WAT     H193848   9.336   3.564   1.287
31202WAT     H293849   9.320   3.652   1.151
31203WAT      O93850   1.059   8.911   6.243
31203WAT     H193851   1.106   8.976   6.182
31203WAT     H293852   1.127   8.853   6.287
31204WAT      O93853   1.230   4.287   9.053
31204WAT     H193854   1.229   4.244   8.962
31204WAT     H293855   1.166   4.364   9.054
31205WAT      O93856   0.577   4.654   0.725
31205WAT     H193857   0.609   4.748   0.710
31205WAT     H293858   0.564   4.639   0.823
31206WAT      O93859   4.418   8.888   6.600
31206WAT     H193860   4.357   8.963   6.574
31206WAT     H293861   4.370   8.825   6.660
31207WAT      O93862   8.658   3.426   8.696
31207WAT     H193863   8.712   3.365   8.638
31207WAT     H293864   8.642   3.512   8.647
31208WAT      O93865   7.914   2.165   1.742
31208WAT     H193866   7.850   2.233   1.706
31208WAT     H293867   7.999   2.211   1.770
31209WAT      O93868   4.253   9.366   1.818
31209WAT     H193869   4.264   9.459   1.783
31209WAT     H293870   4.310   9.354   1.899
31210WAT      O93871   9.123   9.396   3.650
31210WAT     H193872   9.198   9.437   3.703
31210WAT     H293873   9.044   9.380   3.709
31211WAT      O93874   4.207   0.889   0.043
31211WAT     H193875   4.301   0.889   0.009
31211WAT     H293876   4.144   0.899  -0.033
31212WAT      O93877   8.405   3.146   5.563
31212WAT     H193878   8.322   3.126   5.511
31212WAT     H293879   8.481   3.163   5.500
31213WAT      O93880   8.686   1.909   9.783
31213WAT     H193881   8.688   1.942   9.688
31213WAT     H293882   8.656   1.983   9.843
31214WAT      O93883   6.146   4.205   3.656
31214WAT     H193884   6.153   4.110   3.625
31214WAT     H293885   6.089   4.208   3.739
31215WAT      O93886   8.037   9.214   0.881
31215WAT     H193887   8.051   9.155   0.960
31215WAT     H293888   8.102   9.189   0.809
31216WAT      O93889   1.872   0.603   6.431
31216WAT     H193890   1.806   0.620   6.358
31216WAT     H293891   1.841   0.526   6.486
31217WAT      O93892   0.981   3.070   9.794
31217WAT     H193893   0.929   3.030   9.719
31217WAT     H293894   1.078   3.073   9.769
31218WAT      O93895   4.406   3.029   6.942
31218WAT     H193896   4.344   3.080   7.002
31218WAT     H293897   4.463   3.094   6.891
31219WAT      O93898   5.495   8.606   8.873
31219WAT     H193899   5.454   8.530   8.924
31219WAT     H293900   5.480   8.691   8.923
31220WAT      O93901   6.129   4.518   9.499
31220WAT     H193902   6.130   4.463   9.582
31220WAT     H293903   6.213   4.573   9.494
31221WAT      O93904   8.963   3.258   5.598
31221WAT     H193905   8.949   3.332   5.533
31221WAT     H293906   8.913   3.278   5.683
31222WAT      O93907   2.842   0.411   7.634
31222WAT     H193908   2.745   0.427   7.619
31222WAT     H293909   2.891   0.498   7.639
31223WAT      O93910   8.589   2.904   1.939
31223WAT     H193911   8.540   2.985   1.973
31223WAT     H293912   8.685   2.910   1.965
31224WAT      O93913   7.867   0.701   9.313
31224WAT     H193914   7.903   0.772   9.252
31224WAT     H293915   7.834   0.743   9.397
31225WAT      O93916   8.218   4.795   0.262
31225WAT     H193917   8.270   4.880   0.252
31225WAT     H293918   8.120   4.816   0.264
31226WAT      O93919   6.115   8.855   8.615
31226WAT     H193920   6.207   8.877   8.581
31226WAT     H293921   6.118   8.844   8.714
31227WAT      O93922   9.501   6.881   7.831
31227WAT     H193923   9.457   6.837   7.909
31227WAT     H293924   9.532   6.811   7.766
31228WAT      O93925   3.478   8.818   2.519
31228WAT     H193926   3.542   8.801   2.444
31228WAT     H293927   3.489   8.748   2.589
31229WAT      O93928   9.428   9.082   5.043
31229WAT     H193929   9.426   9.158   4.977
31229WAT     H293930   9.378   9.109   5.125
31230WAT      O93931   1.659   9.090   9.472
31230WAT     H193932   1.645   9.171   9.415
31230WAT     H293933   1.607   9.013   9.435
31231WAT      O93934   3.160   5.380   6.161
31231WAT     H193935   3.066   5.409   6.175
31231WAT     H293936   3.213   5.398   6.244
31232WAT      O93937   4.621   5.311   7.907
31232WAT     H193938   4.547   5.348   7.851
31232WAT     H293939   4.595   5.221   7.942
31233WAT      O93940   1.420   2.553   4.998
31233WAT     H193941   1.347   2.621   4.990
31233WAT     H293942   1.383   2.462   4.978
31234WAT      O93943   3.731   4.741   5.057
31234WAT     H193944   3.783   4.762   5.140
31234WAT     H293945   3.750   4.811   4.988
31235WAT      O93946   7.676   3.028   8.908
31235WAT     H193947   7.644   3.119   8.881
31235WAT     H293948   7.726   2.987   8.832
31236WAT      O93949   4.203   0.039   0.014
31236WAT     H193950   4.294   0.026   0.054
31236WAT     H293951   4.205   0.012  -0.082
31237WAT      O93952   0.902   2.343   3.869
31237WAT     H193953   0.874   2.390   3.953
31237WAT     H293954   0.821   2.320   3.815
31238WAT      O93955   0.038   1.062   9.628
31238WAT     H193956  -0.013   1.005   9.563
31238WAT     H293957   0.108   1.114   9.579
31239WAT      O93958   9.820   6.228   7.285
31239WAT     H193959   9.889   6.274   7.229
31239WAT     H293960   9.756   6.296   7.322
31240WAT      O93961   5.676   8.501   1.009
31240WAT     H193962   5.684   8.441   0.930
31240WAT     H293963   5.579   8.519   1.028
31241WAT      O93964   4.152   4.731   0.372
31241WAT     H193965   4.157   4.643   0.419
31241WAT     H293966   4.061   4.744   0.334
31242WAT      O93967   7.732   5.467   0.328
31242WAT     H193968   7.676   5.497   0.250
31242WAT     H293969   7.673   5.452   0.407
31243WAT      O93970   1.706   8.093   1.776
31243WAT     H193971   1.630   8.151   1.806
31243WAT     H293972   1.729   8.028   1.848
31244WAT      O93973   4.432   3.876   3.516
31244WAT     H193974   4.437   3.914   3.423
31244WAT     H293975   4.360   3.808   3.520
31245WAT      O93976   1.262   5.311   2.448
31245WAT     H193977   1.265   5.361   2.362
31245WAT     H293978   1.304   5.367   2.520
31246WAT      O93979   2.479   5.628   7.033
31246WAT     H193980   2.567   5.668   7.009
31246WAT     H293981   2.444   5.575   6.956
31247WAT      O93982   4.209   3.501   4.725
31247WAT     H193983   4.128   3.445   4.743
31247WAT     H293984   4.183   3.578   4.666
31248WAT      O93985   2.361   3.696   1.389
31248WAT     H193986   2.399   3.645   1.312
31248WAT     H293987   2.427   3.765   1.418
31249WAT      O93988   7.706   0.849   2.795
31249WAT     H193989   7.635   0.792   2.836
31249WAT     H293990   7.759   0.794   2.730
31250WAT      O93991   5.957   3.089   3.137
31250WAT     H193992   5.940   3.006   3.083
31250WAT     H293993   6.031   3.071   3.202
31251WAT      O93994   5.460   6.809   2.588
31251WAT     H193995   5.438   6.830   2.683
31251WAT     H293996   5.403   6.733   2.557
31252WAT      O93997   8.532   1.699   5.617
31252WAT     H193998   8.464   1.756   5.662
31252WAT     H293999   8.568   1.631   5.681
31253WAT      O94000   8.274   5.944   3.091
31253WAT     H194001   8.268   6.043   3.103
31253WAT     H294002   8.265   5.923   2.993
31254WAT      O94003   6.524   9.424   4.457
31254WAT     H194004   6.485   9.354   4.397
31254WAT     H294005   6.451   9.478   4.498
31255WAT      O94006   8.442   9.378   5.307
31255WAT     H194007   8.483   9.287   5.306
31255WAT     H294008   8.441   9.412   5.401
31256WAT      O94009   8.103   6.815   0.284
31256WAT     H194010   8.070   6.733   0.239
31256WAT     H294011   8.182   6.793   0.341
31257WAT      O94012   0.877   2.616   5.626
31257WAT     H194013   0.788   2.633   5.584
31257WAT     H294014   0.892   2.518   5.636
31258WAT      O94015   2.439   1.302   6.975
31258WAT     H194016   2.402   1.353   6.898
31258WAT     H294017   2.419   1.204   6.964
31259WAT      O94018   9.604   3.852   1.708
31259WAT     H194019   9.627   3.937   1.662
31259WAT     H294020   9.684   3.820   1.760
31260WAT      O94021   8.942   5.994   2.992
31260WAT     H194022   9.018   6.041   3.037
31260WAT     H294023   8.876   6.061   2.959
31261WAT      O94024   2.985   5.231   7.197
31261WAT     H194025   3.048   5.193   7.266
31261WAT     H294026   2.991   5.331   7.199
31262WAT      O94027   9.115   4.812   4.339
31262WAT     H194028   9.090   4.887   4.278
31262WAT     H294029   9.035   4.757   4.360
31263WAT      O94030   9.443   4.502   1.923
31263WAT     H194031   9.518   4.448   1.959
31263WAT     H294032   9.363   4.444   1.909
31264WAT      O94033   4.787   6.503   9.615
31264WAT     H194034   4.781   6.423   9.675
31264WAT     H294035   4.851   6.569   9.654
31265WAT      O94036   2.421   2.439   1.860
31265WAT     H194037   2.446   2.466   1.953
31265WAT     H294038   2.496   2.463   1.798
31266WAT      O94039   5.434   8.859   6.455
31266WAT     H194040   5.345   8.905   6.446
31266WAT     H294041   5.427   8.788   6.525
31267WAT      O94042   2.056   5.676   5.304
31267WAT     H194043   2.075   5.774   5.305
31267WAT     H294044   1.977   5.657   5.246
31268WAT      O94045   1.687   6.562   0.831
31268WAT     H194046   1.741   6.611   0.900
31268WAT     H294047   1.669   6.623   0.754
31269WAT      O94048   3.591   1.179   3.664
31269WAT     H194049   3.555   1.188   3.757
31269WAT     H294050   3.679   1.133   3.666
31270WAT      O94051   6.311   3.862   9.553
31270WAT     H194052   6.335   3.859   9.650
31270WAT     H294053   6.219   3.825   9.541
31271WAT      O94054   2.495   6.661   4.928
31271WAT     H194055   2.492   6.601   5.008
31271WAT     H294056   2.567   6.729   4.940
31272WAT      O94057   6.939   9.277   5.657
31272WAT     H194058   7.018   9.230   5.697
31272WAT     H294059   6.883   9.316   5.731
31273WAT      O94060   0.217   1.800   7.783
31273WAT     H194061   0.223   1.810   7.882
31273WAT     H294062   0.121   1.799   7.755
31274WAT      O94063   2.672   1.770   2.261
31274WAT     H194064   2.638   1.793   2.352
31274WAT     H294065   2.607   1.801   2.192
31275WAT      O94066   1.489   1.690   6.439
31275WAT     H194067   1.481   1.738   6.352
31275WAT     H294068   1.425   1.730   6.505
31276WAT      O94069   7.484   0.260   5.764
31276WAT     H194070   7.555   0.231   5.700
31276WAT     H294071   7.421   0.184   5.781
31277WAT      O94072   4.945   6.935   7.148
31277WAT     H194073   5.040   6.961   7.127
31277WAT     H294074   4.883   7.003   7.110
31278WAT      O94075   6.088   8.612   3.935
31278WAT     H194076   5.992   8.635   3.916
31278WAT     H294077   6.095   8.575   4.027
31279WAT      O94078   8.040   4.144   1.413
31279WAT     H194079   7.945   4.134   1.383
31279WAT     H294080   8.100   4.142   1.333
31280WAT      O94081   9.048   7.446   5.653
31280WAT     H194082   9.018   7.515   5.587
31280WAT     H294083   9.008   7.466   5.742
31281WAT      O94084   1.769   3.649   5.188
31281WAT     H194085   1.684   3.699   5.203
31281WAT     H294086   1.780   3.580   5.259
31282WAT      O94087   7.501   7.964   7.946
31282WAT     H194088   7.449   7.952   7.862
31282WAT     H294089   7.441   7.996   8.019
31283WAT      O94090   7.033   7.370   5.750
31283WAT     H194091   6.962   7.420   5.800
31283WAT     H294092   7.023   7.389   5.652
31284WAT      O94093   0.192   4.014   1.994
31284WAT     H194094   0.150   3.951   2.058
31284WAT     H294095   0.201   3.971   1.904
31285WAT      O94096   2.301   5.327   1.239
31285WAT     H194097   2.285   5.404   1.177
31285WAT     H294098   2.216   5.277   1.252
31286WAT      O94099   4.836   9.508   6.312
31286WAT     H194100   4.845   9.440   6.385
31286WAT     H294101   4.909   9.576   6.321
31287WAT      O94102   1.388   3.505   1.192
31287WAT     H194103   1.380   3.525   1.095
31287WAT     H294104   1.303   3.529   1.239
31288WAT      O94105   4.878   6.657   1.194
31288WAT     H194106   4.830   6.580   1.153
31288WAT     H294107   4.813   6.713   1.246
31289WAT      O94108   2.474   6.765   0.996
31289WAT     H194109   2.459   6.855   1.037
31289WAT     H294110   2.459   6.769   0.898
31290WAT      O94111   7.362   2.635   7.621
31290WAT     H194112   7.350   2.629   7.720
31290WAT     H294113   7.331   2.550   7.578
31291WAT      O94114   4.631   8.559   6.402
31291WAT     H194115   4.719   8.580   6.359
31291WAT     H294116   4.613   8.626   6.475
31292WAT      O94117   8.622   5.643   8.009
31292WAT     H194118   8.530   5.645   7.971
31292WAT     H294119   8.645   5.550   8.037
31293WAT      O94120   3.241   9.493   3.709
31293WAT     H194121   3.208   9.498   3.803
31293WAT     H294122   3.190   9.557   3.652
31294WAT      O94123   5.320   8.011   2.724
31294WAT     H194124   5.331   7.985   2.820
31294WAT     H294125   5.400   8.062   2.694
31295WAT      O94126   2.469   0.478   5.481
31295WAT     H194127   2.504   0.542   5.412
31295WAT     H294128   2.447   0.391   5.438
31296WAT      O94129   3.823   1.180   7.739
31296WAT     H194130   3.899   1.189   7.804
31296WAT     H294131   3.806   1.083   7.720
31297WAT      O94132   7.935   7.740   6.891
31297WAT     H194133   8.029   7.774   6.902
31297WAT     H294134   7.870   7.811   6.919
31298WAT      O94135   9.211   7.235   6.821
31298WAT     H194136   9.195   7.175   6.899
31298WAT     H294137   9.164   7.322   6.835
31299WAT      O94138   8.023   4.072   1.905
31299WAT     H194139   8.081   4.076   1.986
31299WAT     H294140   7.997   4.164   1.877
31300WAT      O94141   2.079   7.349   0.961
31300WAT     H194142   2.028   7.343   0.875
31300WAT     H294143   2.177   7.352   0.941
31301WAT      O94144   4.015   1.010   9.461
31301WAT     H194145   3.922   1.048   9.453
31301WAT     H294146   4.019   0.951   9.542
31302WAT      O94147   4.415   4.904   3.297
31302WAT     H194148   4.391   4.849   3.218
31302WAT     H294149   4.334   4.917   3.355
31303WAT      O94150   8.189   1.749   0.062
31303WAT     H194151   8.178   1.692  -0.020
31303WAT     H294152   8.231   1.695   0.135
31304WAT      O94153   4.340   5.155   3.005
31304WAT     H194154   4.373   5.243   2.973
31304WAT     H294155   4.371   5.083   2.942
31305WAT      O94156   4.947   7.674   0.207
31305WAT     H194157   5.015   7.660   0.279
31305WAT     H294158   4.954   7.601   0.140
31306WAT      O94159   6.864   6.895   4.578
31306WAT     H194160   6.958   6.927   4.570
31306WAT     H294161   6.844   6.832   4.502
31307WAT      O94162   4.500   6.449   9.605
31307WAT     H194163   4.547   6.530   9.638
31307WAT     H294164   4.523   6.434   9.508
31308WAT      O94165   1.970   7.563   1.090
31308WAT     H194166   1.949   7.535   1.183
31308WAT     H294167   1.987   7.483   1.033
31309WAT      O94168   4.713   2.556   5.928
31309WAT     H194169   4.760   2.501   5.859
31309WAT     H294170   4.636   2.604   5.885
31310WAT      O94171   8.238   0.018   0.760
31310WAT     H194172   8.151   0.061   0.782
31310WAT     H294173   8.309   0.053   0.821
31311WAT      O94174   1.664   0.239   4.543
31311WAT     H194175   1.619   0.325   4.521
31311WAT     H294176   1.706   0.202   4.460
31312WAT      O94177   9.257   4.206   1.377
31312WAT     H194178   9.344   4.240   1.343
31312WAT     H294179   9.182   4.254   1.331
31313WAT      O94180   1.464   5.538   9.761
31313WAT     H194181   1.466   5.478   9.681
31313WAT     H294182   1.426   5.488   9.839
31314WAT      O94183   2.457   2.805   4.635
31314WAT     H194184   2.363   2.774   4.640
31314WAT     H294185   2.517   2.727   4.618
31315WAT      O94186   3.705   6.817   9.892
31315WAT     H194187   3.701   6.753   9.815
31315WAT     H294188   3.735   6.906   9.860
31316WAT      O94189   8.261   8.215   6.324
31316WAT     H194190   8.276   8.248   6.231
31316WAT     H294191   8.163   8.216   6.344
31317WAT      O94192   9.247   0.677   7.193
31317WAT     H194193   9.154   0.681   7.157
31317WAT     H294194   9.306   0.740   7.142
31318WAT      O94195   0.566   5.476   3.896
31318WAT     H194196   0.626   5.514   3.966
31318WAT     H294197   0.610   5.483   3.807
31319WAT      O94198   2.113   0.955   2.040
31319WAT     H194199   2.082   1.050   2.040
31319WAT     H294200   2.207   0.951   2.074
31320WAT      O94201   1.971   4.784   2.314
31320WAT     H194202   2.002   4.742   2.399
31320WAT     H294203   1.872   4.774   2.305
31321WAT      O94204   8.859   0.462   3.528
31321WAT     H194205   8.929   0.413   3.477
31321WAT     H294206   8.770   0.446   3.485
31322WAT      O94207   7.566   5.439   6.497
31322WAT     H194208   7.540   5.375   6.425
31322WAT     H294209   7.659   5.473   6.480
31323WAT      O94210   7.874   8.028   6.687
31323WAT     H194211   7.824   8.106   6.724
31323WAT     H294212   7.810   7.967   6.641
31324WAT      O94213   6.738   4.600   9.606
31324WAT     H194214   6.788   4.687   9.606
31324WAT     H294215   6.802   4.525   9.621
31325WAT      O94216   4.066   1.508   7.125
31325WAT     H194217   3.982   1.456   7.135
31325WAT     H294218   4.106   1.525   7.215
31326WAT      O94219   4.202   7.783   9.124
31326WAT     H194220   4.211   7.856   9.057
31326WAT     H294221   4.126   7.723   9.098
31327WAT      O94222   3.450   3.794   5.867
31327WAT     H194223   3.484   3.860   5.800
31327WAT     H294224   3.525   3.768   5.929
31328WAT      O94225   6.674   0.549   7.408
31328WAT     H194226   6.629   0.522   7.493
31328WAT     H294227   6.606   0.564   7.337
31329WAT      O94228   8.692   9.601   0.229
31329WAT     H194229   8.788   9.628   0.236
31329WAT     H294230   8.667   9.545   0.308
31330WAT      O94231   6.364   9.121   2.276
31330WAT     H194232   6.266   9.130   2.257
31330WAT     H294233   6.397   9.034   2.241
31331WAT      O94234   4.624   3.660   3.748
31331WAT     H194235   4.553   3.726   3.772
31331WAT     H294236   4.584   3.569   3.741
31332WAT      O94237   7.742   4.219   1.586
31332WAT     H194238   7.817   4.243   1.647
31332WAT     H294239   7.768   4.240   1.492
31333WAT      O94240   6.432   3.979   6.081
31333WAT     H194241   6.341   4.015   6.104
31333WAT     H294242   6.445   3.890   6.125
31334WAT      O94243   9.006   7.287   1.335
31334WAT     H194244   8.986   7.190   1.326
31334WAT     H294245   9.002   7.313   1.431
31335WAT      O94246   4.354   6.868   9.392
31335WAT     H194247   4.397   6.952   9.423
31335WAT     H294248   4.399   6.836   9.308
31336WAT      O94249   9.347   1.173   0.101
31336WAT     H194250   9.398   1.150   0.019
31336WAT     H294251   9.285   1.249   0.082
31337WAT      O94252   6.637   2.523   7.200
31337WAT     H194253   6.552   2.480   7.232
31337WAT     H294254   6.635   2.532   7.101
31338WAT      O94255   1.361   4.043   0.875
31338WAT     H194256   1.310   4.101   0.812
31338WAT     H294257   1.335   4.066   0.969
31339WAT      O94258   3.077   4.603   3.096
31339WAT     H194259   3.164   4.653   3.099
31339WAT     H294260   3.014   4.641   3.164
31340WAT      O94261   0.151   6.287   7.587
31340WAT     H194262   0.053   6.264   7.587
31340WAT     H294263   0.204   6.204   7.604
31341WAT      O94264   5.343   4.901   1.867
31341WAT     H194265   5.406   4.948   1.804
31341WAT     H294266   5.248   4.921   1.840
31342WAT      O94267   7.503   4.186   5.048
31342WAT     H194268   7.422   4.231   5.085
31342WAT     H294269   7.572   4.176   5.121
31343WAT      O94270   7.500   0.197   1.302
31343WAT     H194271   7.436   0.260   1.259
31343WAT     H294272   7.515   0.118   1.242
31344WAT      O94273   6.980   9.199   4.888
31344WAT     H194274   6.901   9.251   4.854
31344WAT     H294275   6.948   9.126   4.949
31345WAT      O94276   8.868   6.599   5.284
31345WAT     H194277   8.815   6.521   5.318
31345WAT     H294278   8.965   6.580   5.294
31346WAT      O94279   9.829   3.128   1.473
31346WAT     H194280   9.898   3.130   1.400
31346WAT     H294281   9.767   3.205   1.462
31347WAT      O94282   1.500   0.792   4.647
31347WAT     H194283   1.458   0.870   4.602
31347WAT     H294284   1.600   0.795   4.635
31348WAT      O94285   1.809   2.145   6.846
31348WAT     H194286   1.869   2.216   6.809
31348WAT     H294287   1.864   2.070   6.882
31349WAT      O94288   5.518   2.248   8.660
31349WAT     H194289   5.488   2.209   8.573
31349WAT     H294290   5.452   2.316   8.691
31350WAT      O94291   0.427   2.100   9.150
31350WAT     H194292   0.355   2.125   9.216
31350WAT     H294293   0.509   2.154   9.168
31351WAT      O94294   6.297   7.308   1.111
31351WAT     H194295   6.291   7.222   1.061
31351WAT     H294296   6.325   7.291   1.205
31352WAT      O94297   7.711   1.836   9.423
31352WAT     H194298   7.724   1.765   9.353
31352WAT     H294299   7.638   1.807   9.485
31353WAT      O94300   0.201   0.524   8.621
31353WAT     H194301   0.121   0.578   8.647
31353WAT     H294302   0.273   0.584   8.589
31354WAT      O94303   9.580   9.265   6.816
31354WAT     H194304   9.650   9.235   6.751
31354WAT     H294305   9.539   9.185   6.860
31355WAT      O94306   1.638   1.559   0.973
31355WAT     H194307   1.606   1.550   0.879
31355WAT     H294308   1.695   1.641   0.982
31356WAT      O94309   7.345   3.423   8.083
31356WAT     H194310   7.284   3.502   8.084
31356WAT     H294311   7.296   3.343   8.119
31357WAT      O94312   9.770   7.839   1.658
31357WAT     H194313   9.863   7.875   1.671
31357WAT     H294314   9.756   7.761   1.718
31358WAT      O94315   9.525   4.768   3.925
31358WAT     H194316   9.555   4.820   3.845
31358WAT     H294317   9.499   4.830   3.998
31359WAT      O94318   5.087   6.388   2.990
31359WAT     H194319   5.001   6.347   2.961
31359WAT     H294320   5.163   6.347   2.939
31360WAT      O94321   8.974   0.421   0.010
31360WAT     H194322   9.055   0.425  -0.048
31360WAT     H294323   8.971   0.500   0.070
31361WAT      O94324   9.658   6.035   4.902
31361WAT     H194325   9.715   5.964   4.942
31361WAT     H294326   9.570   6.038   4.950
31362WAT      O94327   8.532   8.429   6.257
31362WAT     H194328   8.472   8.454   6.182
31362WAT     H294329   8.620   8.399   6.220
31363WAT      O94330   2.241   2.667   7.887
31363WAT     H194331   2.214   2.576   7.919
31363WAT     H294332   2.198   2.737   7.945
31364WAT      O94333   8.744   6.936   7.051
31364WAT     H194334   8.696   6.857   7.089
31364WAT     H294335   8.738   7.013   7.114
31365WAT      O94336   4.562   1.859   6.834
31365WAT     H194337   4.523   1.886   6.922
31365WAT     H294338   4.660   1.876   6.834
31366WAT      O94339   6.156   6.392   6.218
31366WAT     H194340   6.178   6.415   6.312
31366WAT     H294341   6.199   6.306   6.193
31367WAT      O94342   9.475   9.434   1.217
31367WAT     H194343   9.492   9.384   1.132
31367WAT     H294344   9.426   9.374   1.282
31368WAT      O94345   1.026   6.135   4.778
31368WAT     H194346   0.942   6.126   4.832
31368WAT     H294347   1.068   6.223   4.797
31369WAT      O94348   4.466   2.321   5.121
31369WAT     H194349   4.555   2.366   5.117
31369WAT     H294350   4.465   2.243   5.059
31370WAT      O94351   1.127   1.453   0.616
31370WAT     H194352   1.069   1.527   0.582
31370WAT     H294353   1.182   1.487   0.693
31371WAT      O94354   0.403   7.638   0.335
31371WAT     H194355   0.479   7.677   0.283
31371WAT     H294356   0.405   7.671   0.429
31372WAT      O94357   2.883   7.685   6.194
31372WAT     H194358   2.791   7.720   6.211
31372WAT     H294359   2.881   7.585   6.195
31373WAT      O94360   0.997   9.406   0.162
31373WAT     H194361   0.906   9.392   0.202
31373WAT     H294362   1.065   9.355   0.214
31374WAT      O94363   6.184   0.789   6.419
31374WAT     H194364   6.264   0.744   6.457
31374WAT     H294365   6.178   0.882   6.455
31375WAT      O94366   8.695   5.493   5.332
31375WAT     H194367   8.774   5.460   5.280
31375WAT     H294368   8.723   5.514   5.426
31376WAT      O94369   3.786   8.117   5.632
31376WAT     H194370   3.806   8.215   5.629
31376WAT     H294371   3.691   8.101   5.607
31377WAT      O94372   3.088   1.839   9.675
31377WAT     H194373   3.063   1.880   9.762
31377WAT     H294374   3.148   1.901   9.625
31378WAT      O94375   7.170   2.787   2.080
31378WAT     H194376   7.103   2.718   2.108
31378WAT     H294377   7.137   2.877   2.105
31379WAT      O94378   6.731   5.182   8.308
31379WAT     H194379   6.683   5.164   8.222
31379WAT     H294380   6.689   5.260   8.354
31380WAT      O94381   6.258   5.102   0.056
31380WAT     H194382   6.234   5.092   0.153
31380WAT     H294383   6.285   5.197   0.039
31381WAT      O94384   9.477   7.496   0.443
31381WAT     H194385   9.511   7.450   0.361
31381WAT     H294386   9.378   7.483   0.450
31382WAT      O94387   5.588   6.764   4.284
31382WAT     H194388   5.653   6.773   4.360
31382WAT     H294389   5.636   6.729   4.204
31383WAT      O94390   2.513   4.160   9.799
31383WAT     H194391   2.533   4.164   9.897
31383WAT     H294392   2.515   4.253   9.762
31384WAT      O94393   0.428   6.721   7.656
31384WAT     H194394   0.387   6.771   7.580
31384WAT     H294395   0.363   6.653   7.690
31385WAT      O94396   7.527   4.072   8.296
31385WAT     H194397   7.565   4.110   8.212
31385WAT     H294398   7.467   4.138   8.339
31386WAT      O94399   3.471   1.304   5.353
31386WAT     H194400   3.535   1.279   5.425
31386WAT     H294401   3.517   1.358   5.284
31387WAT      O94402   0.852   2.966   9.580
31387WAT     H194403   0.871   2.916   9.495
31387WAT     H294404   0.877   3.062   9.567
31388WAT      O94405   7.788   8.175   7.195
31388WAT     H194406   7.749   8.137   7.279
31388WAT     H294407   7.888   8.166   7.198
31389WAT      O94408   4.433   9.749   1.566
31389WAT     H194409   4.389   9.802   1.493
31389WAT     H294410   4.529   9.775   1.573
31390WAT      O94411   7.620   1.354   2.239
31390WAT     H194412   7.624   1.266   2.191
31390WAT     H294413   7.565   1.418   2.185
31391WAT      O94414   2.909   3.353   9.203
31391WAT     H194415   2.832   3.319   9.258
31391WAT     H294416   2.875   3.403   9.124
31392WAT      O94417   9.847   8.871   1.243
31392WAT     H194418   9.892   8.788   1.209
31392WAT     H294419   9.873   8.948   1.184
31393WAT      O94420   6.906   2.873   9.188
31393WAT     H194421   6.864   2.964   9.182
31393WAT     H294422   6.846   2.812   9.241
31394WAT      O94423   2.580   7.261   5.448
31394WAT     H194424   2.638   7.311   5.384
31394WAT     H294425   2.555   7.172   5.409
31395WAT      O94426   0.207   7.231   7.418
31395WAT     H194427   0.118   7.206   7.456
31395WAT     H294428   0.280   7.201   7.479
31396WAT      O94429   7.395   5.242   5.381
31396WAT     H194430   7.410   5.330   5.426
31396WAT     H294431   7.468   5.226   5.314
31397WAT      O94432   6.063   9.009   0.494
31397WAT     H194433   6.012   9.052   0.419
31397WAT     H294434   5.999   8.977   0.564
31398WAT      O94435   0.137   7.588   0.764
31398WAT     H194436   0.213   7.564   0.826
31398WAT     H294437   0.067   7.637   0.815
31399WAT      O94438   9.467   3.357   1.729
31399WAT     H194439   9.402   3.336   1.802
31399WAT     H294440   9.554   3.384   1.769
31400WAT      O94441   2.887   4.591   6.795
31400WAT     H194442   2.857   4.675   6.750
31400WAT     H294443   2.966   4.611   6.854
31401WAT      O94444   4.664   2.977   3.820
31401WAT     H194445   4.583   2.920   3.838
31401WAT     H294446   4.735   2.956   3.886
31402WAT      O94447   5.514   7.303   4.554
31402WAT     H194448   5.557   7.392   4.539
31402WAT     H294449   5.453   7.307   4.633
31403WAT      O94450   4.487   1.399   1.780
31403WAT     H194451   4.390   1.390   1.759
31403WAT     H294452   4.541   1.356   1.707
31404WAT      O94453   6.434   8.510   7.957
31404WAT     H194454   6.524   8.553   7.952
31404WAT     H294455   6.408   8.499   8.053
31405WAT      O94456   6.376   4.287   3.102
31405WAT     H194457   6.320   4.205   3.095
31405WAT     H294458   6.389   4.326   3.011
31406WAT      O94459   0.263   4.188   9.559
31406WAT     H194460   0.342   4.243   9.535
31406WAT     H294461   0.187   4.248   9.586
31407WAT      O94462   3.630   4.235   2.702
31407WAT     H194463   3.571   4.155   2.686
31407WAT     H294464   3.576   4.318   2.690
31408WAT      O94465   2.976   3.953   1.264
31408WAT     H194466   2.923   3.887   1.210
31408WAT     H294467   2.950   3.946   1.360
31409WAT      O94468   7.791   5.113   0.458
31409WAT     H194469   7.878   5.068   0.478
31409WAT     H294470   7.802   5.173   0.379
31410WAT      O94471   8.367   4.200   4.309
31410WAT     H194472   8.282   4.161   4.274
31410WAT     H294473   8.392   4.280   4.254
31411WAT      O94474   8.257   1.871   2.298
31411WAT     H194475   8.258   1.971   2.301
31411WAT     H294476   8.200   1.841   2.221
31412WAT      O94477   9.100   6.035   3.263
31412WAT     H194478   9.097   6.032   3.363
31412WAT     H294479   9.064   6.123   3.231
31413WAT      O94480   6.796   1.338   0.552
31413WAT     H194481   6.798   1.238   0.550
31413WAT     H294482   6.804   1.374   0.459
31414WAT      O94483   9.479   6.930   4.740
31414WAT     H194484   9.428   6.920   4.655
31414WAT     H294485   9.576   6.912   4.723
31415WAT      O94486   4.103   7.775   2.124
31415WAT     H194487   4.073   7.842   2.192
31415WAT     H294488   4.159   7.821   2.055
31416WAT      O94489   1.456   7.409   1.256
31416WAT     H194490   1.537   7.404   1.196
31416WAT     H294491   1.404   7.324   1.248
31417WAT      O94492   1.561   9.210   1.380
31417WAT     H194493   1.556   9.225   1.281
31417WAT     H294494   1.653   9.183   1.405
31418WAT      O94495   5.062   9.301   5.397
31418WAT     H194496   5.061   9.317   5.496
31418WAT     H294497   4.969   9.304   5.362
31419WAT      O94498   2.825   1.928   7.971
31419WAT     H194499   2.727   1.920   7.957
31419WAT     H294500   2.867   1.837   7.969
31420WAT      O94501   4.887   7.297   0.752
31420WAT     H194502   4.788   7.295   0.747
31420WAT     H294503   4.923   7.353   0.677
31421WAT      O94504   8.936   8.216   0.392
31421WAT     H194505   8.905   8.304   0.356
31421WAT     H294506   8.969   8.159   0.317
31422WAT      O94507   8.862   5.000   1.385
31422WAT     H194508   8.813   4.914   1.375
31422WAT     H294509   8.827   5.066   1.318
31423WAT      O94510   5.619   9.351   9.408
31423WAT     H194511   5.712   9.361   9.443
31423WAT     H294512   5.564   9.431   9.434
31424WAT      O94513   0.199   8.506   8.822
31424WAT     H194514   0.125   8.555   8.775
31424WAT     H294515   0.177   8.409   8.826
31425WAT      O94516   6.950   7.685   5.634
31425WAT     H194517   6.883   7.640   5.693
31425WAT     H294518   6.990   7.618   5.572
31426WAT      O94519   1.068   0.550   9.603
31426WAT     H194520   1.113   0.556   9.514
31426WAT     H294521   1.119   0.604   9.670
31427WAT      O94522   0.315   3.556   8.609
31427WAT     H194523   0.376   3.517   8.540
31427WAT     H294524   0.281   3.645   8.576
31428WAT      O94525   8.422   1.810   7.926
31428WAT     H194526   8.466   1.776   8.008
31428WAT     H294527   8.367   1.737   7.885
31429WAT      O94528   8.323   8.317   0.721
31429WAT     H194529   8.235   8.303   0.765
31429WAT     H294530   8.315   8.301   0.623
31430WAT      O94531   0.888   3.198   8.942
31430WAT     H194532   0.814   3.265   8.934
31430WAT     H294533   0.881   3.131   8.869
31431WAT      O94534   0.242   0.508   4.161
31431WAT     H194535   0.325   0.558   4.186
31431WAT     H294536   0.163   0.570   4.167
31432WAT      O94537   4.330   3.078   8.723
31432WAT     H194538   4.380   3.134   8.789
31432WAT     H294539   4.286   3.001   8.770
31433WAT      O94540   4.910   1.237   5.685
31433WAT     H194541   4.993   1.262   5.735
31433WAT     H294542   4.933   1.171   5.613
31434WAT      O94543   4.102   6.574   8.765
31434WAT     H194544   4.183   6.542   8.816
31434WAT     H294545   4.036   6.499   8.758
31435WAT      O94546   4.059   6.498   2.802
31435WAT     H194547   4.102   6.585   2.827
31435WAT     H294548   4.073   6.432   2.875
31436WAT      O94549   6.791   4.342   6.328
31436WAT     H194550   6.723   4.375   6.394
31436WAT     H294551   6.764   4.371   6.236
31437WAT      O94552   4.795   7.975   6.618
31437WAT     H194553   4.831   8.043   6.682
31437WAT     H294554   4.864   7.955   6.549
31438WAT      O94555   7.370   2.526   4.698
31438WAT     H194556   7.391   2.428   4.703
31438WAT     H294557   7.431   2.569   4.632
31439WAT      O94558   2.202   8.257   2.444
31439WAT     H194559   2.269   8.324   2.411
31439WAT     H294560   2.170   8.201   2.367
31440WAT      O94561   8.483   7.012   6.143
31440WAT     H194562   8.463   7.078   6.071
31440WAT     H294563   8.401   6.996   6.198
31441WAT      O94564   0.656   4.475   3.897
31441WAT     H194565   0.703   4.549   3.848
31441WAT     H294566   0.720   4.430   3.959
31442WAT      O94567   5.021   7.992   9.070
31442WAT     H194568   5.029   7.937   8.987
31442WAT     H294569   5.104   8.046   9.082
31443WAT      O94570   1.064   6.262   6.184
31443WAT     H194571   1.032   6.228   6.273
31443WAT     H294572   1.085   6.184   6.125
31444WAT      O94573   7.542   4.472   5.606
31444WAT     H194574   7.555   4.419   5.690
31444WAT     H294575   7.616   4.452   5.542
31445WAT      O94576   6.448   8.366   3.211
31445WAT     H194577   6.477   8.461   3.200
31445WAT     H294578   6.509   8.320   3.275
31446WAT      O94579   2.810   1.169   2.945
31446WAT     H194580   2.732   1.186   3.004
31446WAT     H294581   2.782   1.178   2.849
31447WAT      O94582   7.594   4.232   3.077
31447WAT     H194583   7.567   4.314   3.127
31447WAT     H294584   7.620   4.256   2.984
31448WAT      O94585   6.786   2.342   2.886
31448WAT     H194586   6.694   2.305   2.871
31448WAT     H294587   6.817   2.389   2.803
31449WAT      O94588   0.735   3.003   2.292
31449WAT     H194589   0.643   3.013   2.255
31449WAT     H294590   0.749   2.910   2.325
31450WAT      O94591   0.676   2.901   4.649
31450WAT     H194592   0.612   2.840   4.695
31450WAT     H294593   0.750   2.926   4.712
31451WAT      O94594   9.230   7.682   1.252
31451WAT     H194595   9.275   7.769   1.231
31451WAT     H294596   9.143   7.699   1.298
31452WAT      O94597   9.685   5.123   8.984
31452WAT     H194598   9.605   5.163   9.028
31452WAT     H294599   9.669   5.116   8.886
31453WAT      O94600   3.742   8.234   6.221
31453WAT     H194601   3.653   8.221   6.264
31453WAT     H294602   3.781   8.144   6.199
31454WAT      O94603   3.560   0.429   5.341
31454WAT     H194604   3.499   0.353   5.365
31454WAT     H294605   3.642   0.393   5.297
31455WAT      O94606   6.928   4.035   2.201
31455WAT     H194607   7.000   3.985   2.153
31455WAT     H294608   6.864   4.074   2.135
31456WAT      O94609   9.167   9.634   2.523
31456WAT     H194610   9.114   9.695   2.463
31456WAT     H294611   9.104   9.577   2.575
31457WAT      O94612   3.530   3.228   3.804
31457WAT     H194613   3.606   3.282   3.841
31457WAT     H294614   3.477   3.189   3.879
31458WAT      O94615   9.002   6.271   0.114
31458WAT     H194616   8.912   6.300   0.146
31458WAT     H294617   8.999   6.175   0.088
31459WAT      O94618   7.048   6.132   8.156
31459WAT     H194619   7.095   6.183   8.083
31459WAT     H294620   7.111   6.121   8.233
31460WAT      O94621   0.707   8.010   8.197
31460WAT     H194622   0.798   8.019   8.239
31460WAT     H294623   0.645   8.077   8.238
31461WAT      O94624   6.001   1.905   9.311
31461WAT     H194625   6.007   1.982   9.374
31461WAT     H294626   6.077   1.908   9.246
31462WAT      O94627   9.481   1.425   9.145
31462WAT     H194628   9.514   1.507   9.099
31462WAT     H294629   9.536   1.346   9.116
31463WAT      O94630   0.465   9.088   0.998
31463WAT     H194631   0.407   9.038   1.061
31463WAT     H294632   0.454   9.052   0.905
31464WAT      O94633   5.123   0.349   1.559
31464WAT     H194634   5.079   0.273   1.607
31464WAT     H294635   5.056   0.422   1.546
31465WAT      O94636   5.962   3.761   1.966
31465WAT     H194637   5.893   3.766   1.894
31465WAT     H294638   5.965   3.668   2.003
31466WAT      O94639   2.963   3.045   0.094
31466WAT     H194640   2.931   3.061   0.001
31466WAT     H294641   2.940   3.123   0.152
31467WAT      O94642   3.449   7.255   1.560
31467WAT     H194643   3.467   7.159   1.541
31467WAT     H294644   3.377   7.288   1.498
31468WAT      O94645   1.819   2.831   4.469
31468WAT     H194646   1.876   2.913   4.471
31468WAT     H294647   1.844   2.771   4.545
31469WAT      O94648   4.939   8.569   3.180
31469WAT     H194649   4.853   8.608   3.210
31469WAT     H294650   4.974   8.619   3.101
31470WAT      O94651   7.161   7.827   8.031
31470WAT     H194652   7.092   7.798   7.965
31470WAT     H294653   7.149   7.779   8.117
31471WAT      O94654   1.704   2.766   5.327
31471WAT     H194655   1.742   2.822   5.254
31471WAT     H294656   1.623   2.718   5.295
31472WAT      O94657   1.969   5.384   6.206
31472WAT     H194658   2.032   5.375   6.128
31472WAT     H294659   1.956   5.480   6.227
31473WAT      O94660   0.807   6.710   4.274
31473WAT     H194661   0.731   6.759   4.316
31473WAT     H294662   0.854   6.656   4.343
31474WAT      O94663   5.009   8.404   2.450
31474WAT     H194664   5.070   8.479   2.422
31474WAT     H294665   4.948   8.437   2.522
31475WAT      O94666   1.956   0.374   4.958
31475WAT     H194667   1.918   0.426   4.882
31475WAT     H294668   1.971   0.435   5.036
31476WAT      O94669   5.609   5.721   2.657
31476WAT     H194670   5.533   5.662   2.631
31476WAT     H294671   5.575   5.814   2.671
31477WAT      O94672   4.726   3.077   5.618
31477WAT     H194673   4.806   3.092   5.560
31477WAT     H294674   4.689   2.985   5.600
31478WAT      O94675   4.104   3.587   2.137
31478WAT     H194676   4.052   3.519   2.188
31478WAT     H294677   4.081   3.679   2.170
31479WAT      O94678   9.563   9.330   3.580
31479WAT     H194679   9.513   9.368   3.657
31479WAT     H294680   9.610   9.404   3.531
31480WAT      O94681   3.118   3.531   3.672
31480WAT     H194682   3.054   3.587   3.618
31480WAT     H294683   3.086   3.525   3.766
31481WAT      O94684   6.874   0.569   2.403
31481WAT     H194685   6.829   0.548   2.490
31481WAT     H294686   6.807   0.608   2.340
31482WAT      O94687   3.190   0.070   4.549
31482WAT     H194688   3.214   0.113   4.462
31482WAT     H294689   3.108   0.013   4.538
31483WAT      O94690   8.861   6.506   6.182
31483WAT     H194691   8.931   6.523   6.113
31483WAT     H294692   8.825   6.593   6.217
31484WAT      O94693   0.504   1.650   1.590
31484WAT     H194694   0.568   1.592   1.539
31484WAT     H294695   0.448   1.701   1.525
31485WAT      O94696   0.855   1.856   5.803
31485WAT     H194697   0.847   1.827   5.708
31485WAT     H294698   0.768   1.896   5.833
31486WAT      O94699   0.300   7.216   0.885
31486WAT     H194700   0.350   7.139   0.845
31486WAT     H294701   0.341   7.239   0.974
31487WAT      O94702   4.524   3.182   2.513
31487WAT     H194703   4.539   3.248   2.439
31487WAT     H294704   4.434   3.140   2.501
31488WAT      O94705   7.379   3.471   0.481
31488WAT     H194706   7.335   3.552   0.520
31488WAT     H294707   7.439   3.498   0.406
31489WAT      O94708   5.249   9.746   7.095
31489WAT     H194709   5.163   9.727   7.047
31489WAT     H294710   5.257   9.844   7.111
31490WAT      O94711   9.103   0.403   3.451
31490WAT     H194712   9.083   0.462   3.372
31490WAT     H294713   9.202   0.394   3.461
31491WAT      O94714   3.556   6.367   1.393
31491WAT     H194715   3.493   6.306   1.344
31491WAT     H294716   3.650   6.338   1.377
31492WAT      O94717   7.400   1.797   9.310
31492WAT     H194718   7.446   1.801   9.399
31492WAT     H294719   7.334   1.722   9.310
31493WAT      O94720   3.632   4.600   5.636
31493WAT     H194721   3.621   4.693   5.670
31493WAT     H294722   3.624   4.599   5.536
31494WAT      O94723   4.064   8.549   6.612
31494WAT     H194724   4.014   8.628   6.576
31494WAT     H294725   4.007   8.467   6.603
31495WAT      O94726   9.799   0.986   7.553
31495WAT     H194727   9.768   0.918   7.619
31495WAT     H294728   9.848   0.941   7.478
31496WAT      O94729   6.496   7.633   5.962
31496WAT     H194730   6.474   7.682   5.878
31496WAT     H294731   6.429   7.561   5.978
31497WAT      O94732   6.613   4.005   3.250
31497WAT     H194733   6.611   3.905   3.253
31497WAT     H294734   6.631   4.035   3.157
31498WAT      O94735   1.491   7.955   9.509
31498WAT     H194736   1.496   7.857   9.528
31498WAT     H294737   1.583   7.994   9.510
31499WAT      O94738   5.027   0.314   4.295
31499WAT     H194739   4.934   0.281   4.281
31499WAT     H294740   5.057   0.366   4.215
31500WAT      O94741   9.803   3.910   2.775
31500WAT     H194742   9.773   3.852   2.699
31500WAT     H294743   9.800   4.006   2.747
31501WAT      O94744   7.711   2.776   7.024
31501WAT     H194745   7.666   2.687   7.020
31501WAT     H294746   7.659   2.837   7.084
31502WAT      O94747   3.123   9.417   6.936
31502WAT     H194748   3.210   9.367   6.938
31502WAT     H294749   3.136   9.505   6.890
31503WAT      O94750   3.581   0.296   2.402
31503WAT     H194751   3.659   0.246   2.439
31503WAT     H294752   3.524   0.234   2.347
31504WAT      O94753   8.070   8.174   7.167
31504WAT     H194754   8.099   8.098   7.226
31504WAT     H294755   8.065   8.142   7.073
31505WAT      O94756   7.729   4.312   7.514
31505WAT     H194757   7.709   4.410   7.509
31505WAT     H294758   7.820   4.294   7.475
31506WAT      O94759   0.299   5.252   8.849
31506WAT     H194760   0.232   5.202   8.794
31506WAT     H294761   0.254   5.290   8.930
31507WAT      O94762   5.871   5.409   2.196
31507WAT     H194763   5.924   5.376   2.274
31507WAT     H294764   5.788   5.454   2.229
31508WAT      O94765   1.618   9.236   6.938
31508WAT     H194766   1.543   9.201   6.995
31508WAT     H294767   1.683   9.163   6.919
31509WAT      O94768   1.310   7.809   2.613
31509WAT     H194769   1.260   7.735   2.569
31509WAT     H294770   1.268   7.897   2.589
31510WAT      O94771   1.678   7.031   8.925
31510WAT     H194772   1.751   7.078   8.976
31510WAT     H294773   1.603   7.094   8.908
31511WAT      O94774   9.193   4.160   4.151
31511WAT     H194775   9.282   4.159   4.195
31511WAT     H294776   9.139   4.236   4.186
31512WAT      O94777   4.759   7.058   1.873
31512WAT     H194778   4.835   7.001   1.841
31512WAT     H294779   4.778   7.088   1.967
31513WAT      O94780   2.985   4.384   1.895
31513WAT     H194781   2.890   4.384   1.864
31513WAT     H294782   3.024   4.293   1.884
31514WAT      O94783   2.143   4.050   5.337
31514WAT     H194784   2.169   4.109   5.260
31514WAT     H294785   2.168   3.956   5.317
31515WAT      O94786   3.766   7.826   5.460
31515WAT     H194787   3.749   7.734   5.423
31515WAT     H294788   3.747   7.827   5.558
31516WAT      O94789   0.126   8.682   3.919
31516WAT     H194790   0.211   8.636   3.946
31516WAT     H294791   0.063   8.684   3.997
31517WAT      O94792   7.786   8.089   4.844
31517WAT     H194793   7.820   8.044   4.762
31517WAT     H294794   7.862   8.109   4.906
31518WAT      O94795   5.510   3.701   8.401
31518WAT     H194796   5.481   3.607   8.419
31518WAT     H294797   5.472   3.762   8.471
31519WAT      O94798   7.406   4.907   2.695
31519WAT     H194799   7.374   4.842   2.764
31519WAT     H294800   7.358   4.995   2.709
31520WAT      O94801   5.449   9.254   9.223
31520WAT     H194802   5.496   9.318   9.283
31520WAT     H294803   5.515   9.206   9.166
31521WAT      O94804   2.762   1.092   2.165
31521WAT     H194805   2.815   1.113   2.248
31521WAT     H294806   2.772   1.167   2.100
31522WAT      O94807   3.695   2.565   1.264
31522WAT     H194808   3.597   2.565   1.247
31522WAT     H294809   3.741   2.515   1.191
31523WAT      O94810   3.466   6.726   3.056
31523WAT     H194811   3.423   6.808   3.018
31523WAT     H294812   3.412   6.646   3.031
31524WAT      O94813   4.278   0.406   6.875
31524WAT     H194814   4.292   0.472   6.800
31524WAT     H294815   4.339   0.428   6.951
31525WAT      O94816   1.712   4.167   6.465
31525WAT     H194817   1.633   4.162   6.527
31525WAT     H294818   1.726   4.261   6.435
31526WAT      O94819   3.131   8.470   4.974
31526WAT     H194820   3.229   8.482   4.987
31526WAT     H294821   3.083   8.550   5.011
31527WAT      O94822   9.777   4.078   1.138
31527WAT     H194823   9.774   4.066   1.039
31527WAT     H294824   9.859   4.034   1.174
31528WAT      O94825   4.097   2.101   1.689
31528WAT     H194826   4.176   2.044   1.668
31528WAT     H294827   4.041   2.113   1.607
31529WAT      O94828   8.373   4.324   3.247
31529WAT     H194829   8.451   4.282   3.295
31529WAT     H294830   8.304   4.352   3.313
31530WAT      O94831   9.341   2.108   0.821
31530WAT     H194832   9.258   2.108   0.876
31530WAT     H294833   9.421   2.115   0.880
31531WAT      O94834   0.758   0.287   4.165
31531WAT     H194835   0.848   0.285   4.121
31531WAT     H294836   0.695   0.227   4.116
31532WAT      O94837   4.258   3.556   4.976
31532WAT     H194838   4.257   3.655   4.993
31532WAT     H294839   4.232   3.538   4.881
31533WAT      O94840   2.463   6.734   2.744
31533WAT     H194841   2.440   6.724   2.840
31533WAT     H294842   2.562   6.728   2.732
31534WAT      O94843   2.626   0.069   4.643
31534WAT     H194844   2.693   0.094   4.713
31534WAT     H294845   2.551   0.018   4.685
31535WAT      O94846   5.289   5.791   7.582
31535WAT     H194847   5.383   5.821   7.565
31535WAT     H294848   5.247   5.764   7.496
31536WAT      O94849   5.029   7.160   3.262
31536WAT     H194850   4.968   7.235   3.287
31536WAT     H294851   5.120   7.197   3.240
31537WAT      O94852   1.729   6.692   7.699
31537WAT     H194853   1.807   6.697   7.761
31537WAT     H294854   1.721   6.600   7.662
31538WAT      O94855   3.107   4.428   9.588
31538WAT     H194856   3.050   4.449   9.668
31538WAT     H294857   3.184   4.492   9.585
31539WAT      O94858   3.609   5.440   9.526
31539WAT     H194859   3.624   5.484   9.437
31539WAT     H294860   3.621   5.508   9.599
31540WAT      O94861   8.635   6.212   2.160
31540WAT     H194862   8.547   6.216   2.113
31540WAT     H294863   8.655   6.301   2.201
31541WAT      O94864   7.756   0.801   7.158
31541WAT     H194865   7.688   0.762   7.095
31541WAT     H294866   7.823   0.855   7.106
31542WAT      O94867   8.434   0.036   0.938
31542WAT     H194868   8.505   0.083   0.991
31542WAT     H294869   8.417  -0.054   0.978
31543WAT      O94870   4.820   3.584   8.823
31543WAT     H194871   4.889   3.528   8.870
31543WAT     H294872   4.866   3.648   8.762
31544WAT      O94873   5.589   7.164   3.265
31544WAT     H194874   5.669   7.220   3.285
31544WAT     H294875   5.515   7.188   3.328
31545WAT      O94876   6.229   8.279   9.338
31545WAT     H194877   6.311   8.222   9.352
31545WAT     H294878   6.222   8.305   9.242
31546WAT      O94879   6.908   0.748   3.229
31546WAT     H194880   6.992   0.708   3.264
31546WAT     H294881   6.831   0.719   3.286
31547WAT      O94882   1.924   5.098   5.613
31547WAT     H194883   1.998   5.163   5.627
31547WAT     H294884   1.872   5.123   5.531
31548WAT      O94885   5.752   5.480   4.897
31548WAT     H194886   5.698   5.452   4.817
31548WAT     H294887   5.693   5.482   4.978
31549WAT      O94888   7.479   1.798   9.559
31549WAT     H194889   7.392   1.828   9.599
31549WAT     H294890   7.522   1.731   9.619
31550WAT      O94891   8.421   2.161   3.482
31550WAT     H194892   8.515   2.182   3.508
31550WAT     H294893   8.401   2.065   3.502
31551WAT      O94894   3.780   2.514   3.449
31551WAT     H194895   3.712   2.524   3.521
31551WAT     H294896   3.872   2.524   3.488
31552WAT      O94897   2.468   0.627   7.052
31552WAT     H194898   2.566   0.623   7.067
31552WAT     H294899   2.420   0.624   7.140
31553WAT      O94900   7.549   6.170   2.648
31553WAT     H194901   7.484   6.155   2.573
31553WAT     H294902   7.501   6.210   2.726
31554WAT      O94903   5.609   9.308   7.862
31554WAT     H194904   5.616   9.406   7.841
31554WAT     H294905   5.669   9.285   7.938
31555WAT      O94906   8.428   0.889   1.433
31555WAT     H194907   8.417   0.795   1.400
31555WAT     H294908   8.445   0.950   1.355
31556WAT      O94909   3.051   5.777   8.859
31556WAT     H194910   3.150   5.767   8.865
31556WAT     H294911   3.028   5.841   8.786
31557WAT      O94912   8.554   6.540   9.249
31557WAT     H194913   8.556   6.606   9.324
31557WAT     H294914   8.460   6.505   9.238
31558WAT      O94915   8.484   3.034   5.174
31558WAT     H194916   8.478   2.937   5.196
31558WAT     H294917   8.535   3.081   5.247
31559WAT      O94918   7.126   1.184   1.478
31559WAT     H194919   7.218   1.214   1.503
31559WAT     H294920   7.095   1.236   1.399
31560WAT      O94921   3.830   1.691   0.656
31560WAT     H194922   3.877   1.703   0.744
31560WAT     H294923   3.899   1.677   0.584
31561WAT      O94924   4.342   6.146   4.709
31561WAT     H194925   4.304   6.200   4.633
31561WAT     H294926   4.342   6.049   4.685
31562WAT      O94927   2.155   7.811   7.680
31562WAT     H194928   2.165   7.904   7.645
31562WAT     H294929   2.105   7.813   7.766
31563WAT      O94930   6.084   1.390   4.439
31563WAT     H194931   6.163   1.336   4.468
31563WAT     H294932   6.082   1.475   4.492
31564WAT      O94933   7.877   7.880   1.981
31564WAT     H194934   7.899   7.876   1.884
31564WAT     H294935   7.828   7.965   2.000
31565WAT      O94936   1.271   7.038   8.099
31565WAT     H194937   1.258   7.044   8.198
31565WAT     H294938   1.342   6.970   8.079
31566WAT      O94939   7.087   8.040   6.469
31566WAT     H194940   7.063   8.001   6.558
31566WAT     H294941   7.178   8.080   6.474
31567WAT      O94942   1.346   8.756   2.085
31567WAT     H194943   1.348   8.762   2.185
31567WAT     H294944   1.254   8.781   2.052
31568WAT      O94945   3.434   0.058   7.169
31568WAT     H194946   3.355   0.110   7.137
31568WAT     H294947   3.497   0.043   7.093
31569WAT      O94948   2.333   4.746   0.501
31569WAT     H194949   2.267   4.793   0.442
31569WAT     H294950   2.352   4.655   0.463
31570WAT      O94951   9.479   3.230   5.465
31570WAT     H194952   9.402   3.191   5.515
31570WAT     H294953   9.455   3.323   5.434
31571WAT      O94954   3.118   5.733   6.848
31571WAT     H194955   3.054   5.770   6.915
31571WAT     H294956   3.211   5.734   6.886
31572WAT      O94957   5.238   3.826   2.665
31572WAT     H194958   5.242   3.767   2.747
31572WAT     H294959   5.190   3.778   2.592
31573WAT      O94960   8.744   3.152   1.469
31573WAT     H194961   8.708   3.214   1.400
31573WAT     H294962   8.682   3.149   1.548
31574WAT      O94963   0.392   4.905   5.368
31574WAT     H194964   0.460   4.891   5.297
31574WAT     H294965   0.437   4.928   5.454
31575WAT      O94966   5.773   5.404   8.250
31575WAT     H194967   5.742   5.499   8.260
31575WAT     H294968   5.858   5.402   8.197
31576WAT      O94969   3.477   0.820   5.456
31576WAT     H194970   3.379   0.801   5.455
31576WAT     H294971   3.523   0.763   5.387
31577WAT      O94972   9.203   3.599   9.813
31577WAT     H194973   9.282   3.539   9.827
31577WAT     H294974   9.126   3.566   9.867
31578WAT      O94975   8.402   9.277   9.226
31578WAT     H194976   8.349   9.194   9.240
31578WAT     H294977   8.499   9.256   9.232
31579WAT      O94978   5.999   2.857   8.903
31579WAT     H194979   5.912   2.810   8.889
31579WAT     H294980   5.999   2.943   8.852
31580WAT      O94981   7.324   7.098   1.357
31580WAT     H194982   7.285   7.040   1.284
31580WAT     H294983   7.259   7.104   1.432
31581WAT      O94984   8.831   4.387   4.425
31581WAT     H194985   8.765   4.401   4.499
31581WAT     H294986   8.886   4.306   4.445
31582WAT      O94987   0.908   1.776   2.649
31582WAT     H194988   0.962   1.738   2.724
31582WAT     H294989   0.848   1.848   2.684
31583WAT      O94990   9.240   9.246   2.997
31583WAT     H194991   9.293   9.188   3.060
31583WAT     H294992   9.198   9.320   3.049
31584WAT      O94993   9.749   2.178   9.420
31584WAT     H194994   9.811   2.228   9.481
31584WAT     H294995   9.670   2.236   9.398
31585WAT      O94996   7.454   6.672   6.287
31585WAT     H194997   7.461   6.734   6.209
31585WAT     H294998   7.406   6.718   6.362
31586WAT      O94999   4.489   2.881   8.570
31586WAT     H195000   4.442   2.939   8.636
31586WAT     H295001   4.424   2.818   8.527
31587WAT      O95002   1.029   8.200   8.580
31587WAT     H195003   0.991   8.280   8.534
31587WAT     H295004   1.107   8.229   8.636
31588WAT      O95005   5.857   8.559   2.096
31588WAT     H195006   5.845   8.461   2.109
31588WAT     H295007   5.915   8.595   2.169
31589WAT      O95008   2.127   7.728   1.678
31589WAT     H195009   2.171   7.761   1.762
31589WAT     H295010   2.157   7.635   1.659
31590WAT      O95011   7.628   8.583   1.802
31590WAT     H195012   7.692   8.558   1.729
31590WAT     H295013   7.674   8.575   1.891
31591WAT      O95014   5.186   8.981   7.322
31591WAT     H195015   5.211   9.078   7.322
31591WAT     H295016   5.246   8.932   7.385
31592WAT      O95017   6.958   1.449   6.503
31592WAT     H195018   6.874   1.396   6.515
31592WAT     H295019   6.966   1.517   6.575
31593WAT      O95020   5.677   6.180   6.756
31593WAT     H195021   5.751   6.210   6.696
31593WAT     H295022   5.709   6.103   6.812
31594WAT      O95023   7.924   0.135   6.176
31594WAT     H195024   7.959   0.076   6.104
31594WAT     H295025   7.867   0.207   6.136
31595WAT      O95026   7.020   5.763   6.103
31595WAT     H195027   6.923   5.742   6.114
31595WAT     H295028   7.034   5.810   6.016
31596WAT      O95029   7.222   7.402   6.564
31596WAT     H195030   7.295   7.448   6.514
31596WAT     H295031   7.238   7.410   6.662
31597WAT      O95032   6.467   3.013   5.496
31597WAT     H195033   6.375   3.025   5.533
31597WAT     H295034   6.466   2.942   5.426
31598WAT      O95035   6.676   7.943   8.043
31598WAT     H195036   6.703   7.905   8.132
31598WAT     H295037   6.756   7.946   7.983
31599WAT      O95038   7.313   6.844   1.101
31599WAT     H195039   7.315   6.854   1.002
31599WAT     H295040   7.223   6.872   1.136
31600WAT      O95041   0.340   7.170   7.965
31600WAT     H195042   0.270   7.222   7.915
31600WAT     H295043   0.406   7.132   7.901
31601WAT      O95044   3.232   1.709   0.236
31601WAT     H195045   3.258   1.627   0.287
31601WAT     H295046   3.265   1.701   0.142
31602WAT      O95047   1.465   0.737   7.863
31602WAT     H195048   1.427   0.776   7.947
31602WAT     H295049   1.556   0.775   7.846
31603WAT      O95050   3.982   7.001   7.280
31603WAT     H195051   4.011   6.932   7.347
31603WAT     H295052   3.886   6.985   7.256
31604WAT      O95053   0.006   2.038   8.015
31604WAT     H195054   0.075   2.072   7.952
31604WAT     H295055   0.033   2.059   8.109
31605WAT      O95056   3.179   0.507   1.291
31605WAT     H195057   3.122   0.551   1.359
31605WAT     H295058   3.231   0.432   1.333
31606WAT      O95059   3.686   3.110   9.611
31606WAT     H195060   3.694   3.088   9.514
31606WAT     H295061   3.750   3.054   9.663
31607WAT      O95062   4.294   6.300   8.222
31607WAT     H195063   4.244   6.213   8.221
31607WAT     H295064   4.264   6.355   8.301
31608WAT      O95065   6.157   1.975   9.093
31608WAT     H195066   6.193   1.928   9.013
31608WAT     H295067   6.222   2.046   9.122
31609WAT      O95068   4.855   3.590   5.473
31609WAT     H195069   4.782   3.646   5.512
31609WAT     H295070   4.915   3.558   5.546
31610WAT      O95071   6.885   3.555   5.818
31610WAT     H195072   6.814   3.498   5.777
31610WAT     H295073   6.917   3.513   5.903
31611WAT      O95074   5.164   1.153   4.442
31611WAT     H195075   5.179   1.067   4.490
31611WAT     H295076   5.080   1.196   4.477
31612WAT      O95077   3.322   2.062   0.120
31612WAT     H195078   3.278   2.022   0.200
31612WAT     H295079   3.295   2.012   0.038
31613WAT      O95080   2.117   6.522   2.758
31613WAT     H195081   2.075   6.484   2.675
31613WAT     H295082   2.110   6.621   2.756
31614WAT      O95083   0.532   9.295   2.319
31614WAT     H195084   0.524   9.214   2.376
31614WAT     H295085   0.629   9.319   2.308
31615WAT      O95086   5.249   5.175   8.414
31615WAT     H195087   5.157   5.212   8.398
31615WAT     H295088   5.259   5.089   8.363
31616WAT      O95089   6.920   0.075   2.301
31616WAT     H195090   6.926   0.170   2.270
31616WAT     H295091   6.963   0.015   2.234
31617WAT      O95092   3.496   4.451   2.612
31617WAT     H195093   3.458   4.392   2.541
31617WAT     H295094   3.424   4.510   2.649
31618WAT      O95095   7.893   1.192   4.659
31618WAT     H195096   7.885   1.210   4.562
31618WAT     H295097   7.891   1.278   4.710
31619WAT      O95098   1.159   3.461   2.998
31619WAT     H195099   1.216   3.542   2.984
31619WAT     H295100   1.079   3.465   2.937
31620WAT      O95101   0.043   4.184   2.995
31620WAT     H195102   0.020   4.183   2.897
31620WAT     H295103   0.071   4.092   3.024
31621WAT      O95104   4.611   4.109   0.814
31621WAT     H195105   4.663   4.025   0.826
31621WAT     H295106   4.644   4.158   0.733
31622WAT      O95107   7.947   8.732   7.850
31622WAT     H195108   7.914   8.647   7.807
31622WAT     H295109   8.044   8.745   7.827
31623WAT      O95110   5.006   1.944   6.684
31623WAT     H195111   5.090   1.941   6.739
31623WAT     H295112   5.025   1.907   6.593
31624WAT      O95113   6.071   5.489   5.370
31624WAT     H195114   6.056   5.459   5.464
31624WAT     H295115   6.009   5.565   5.350
31625WAT      O95116   5.601   7.649   7.828
31625WAT     H195117   5.675   7.635   7.762
31625WAT     H295118   5.618   7.732   7.880
31626WAT      O95119   1.630   5.473   1.848
31626WAT     H195120   1.673   5.396   1.801
31626WAT     H295121   1.684   5.555   1.833
31627WAT      O95122   7.835   7.234   4.741
31627WAT     H195123   7.807   7.304   4.675
31627WAT     H295124   7.924   7.258   4.780
31628WAT      O95125   2.632   5.190   4.833
31628WAT     H195126   2.689   5.109   4.819
31628WAT     H295127   2.688   5.272   4.825
31629WAT      O95128   4.343   4.664   2.576
31629WAT     H195129   4.251   4.694   2.603
31629WAT     H295130   4.341   4.627   2.484
31630WAT      O95131   2.719   1.906   3.981
31630WAT     H195132   2.807   1.940   3.946
31630WAT     H295133   2.728   1.808   4.003
31631WAT      O95134   5.780   9.496   3.305
31631WAT     H195135   5.822   9.536   3.386
31631WAT     H295136   5.851   9.474   3.238
31632WAT      O95137   3.009   0.647   8.133
31632WAT     H195138   2.962   0.565   8.165
31632WAT     H295139   3.058   0.626   8.048
31633WAT      O95140   2.123   2.869   9.004
31633WAT     H195141   2.081   2.909   8.923
31633WAT     H295142   2.190   2.932   9.041
31634WAT      O95143   6.218   1.022   2.986
31634WAT     H195144   6.288   1.088   2.957
31634WAT     H295145   6.145   1.071   3.034
31635WAT      O95146   0.430   6.798   6.144
31635WAT     H195147   0.347   6.760   6.104
31635WAT     H295148   0.503   6.799   6.076
31636WAT      O95149   6.951   2.401   4.809
31636WAT     H195150   6.966   2.435   4.716
31636WAT     H295151   6.989   2.466   4.875
31637WAT      O95152   0.711   6.728   6.433
31637WAT     H195153   0.756   6.654   6.385
31637WAT     H295154   0.747   6.735   6.526
31638WAT      O95155   4.301   8.859   2.367
31638WAT     H195156   4.259   8.779   2.326
31638WAT     H295157   4.318   8.842   2.464
31639WAT      O95158   0.019   6.527   4.055
31639WAT     H195159  -0.008   6.522   3.959
31639WAT     H295160   0.089   6.458   4.073
31640WAT      O95161   3.295   1.448   8.772
31640WAT     H195162   3.262   1.489   8.687
31640WAT     H295163   3.353   1.513   8.821
31641WAT      O95164   5.763   6.329   8.118
31641WAT     H195165   5.786   6.232   8.122
31641WAT     H295166   5.663   6.339   8.119
31642WAT      O95167   3.941   7.835   5.051
31642WAT     H195168   3.983   7.780   4.979
31642WAT     H295169   4.004   7.908   5.079
31643WAT      O95170   2.154   0.317   4.729
31643WAT     H195171   2.067   0.343   4.688
31643WAT     H295172   2.166   0.218   4.722
31644WAT      O95173   4.598   2.602   6.801
31644WAT     H195174   4.678   2.630   6.747
31644WAT     H295175   4.543   2.683   6.822
31645WAT      O95176   8.703   2.664   3.945
31645WAT     H195177   8.632   2.612   3.897
31645WAT     H295178   8.755   2.604   4.005
31646WAT      O95179   6.067   5.573   2.645
31646WAT     H195180   6.163   5.553   2.667
31646WAT     H295181   6.011   5.493   2.666
31647WAT      O95182   1.760   0.176   2.313
31647WAT     H195183   1.846   0.167   2.363
31647WAT     H295184   1.772   0.240   2.238
31648WAT      O95185   0.143   9.247   8.273
31648WAT     H195186   0.153   9.338   8.233
31648WAT     H295187   0.222   9.227   8.331
31649WAT      O95188   4.675   7.150   3.922
31649WAT     H195189   4.657   7.222   3.989
31649WAT     H295190   4.704   7.067   3.970
31650WAT      O95191   1.480   1.816   0.554
31650WAT     H195192   1.422   1.870   0.493
31650WAT     H295193   1.538   1.756   0.499
31651WAT      O95194   8.398   7.943   7.388
31651WAT     H195195   8.410   7.943   7.488
31651WAT     H295196   8.479   7.903   7.345
31652WAT      O95197   3.196   7.557   9.266
31652WAT     H195198   3.144   7.636   9.234
31652WAT     H295199   3.202   7.559   9.366
31653WAT      O95200   3.309   4.085   4.724
31653WAT     H195201   3.349   4.005   4.679
31653WAT     H295202   3.211   4.090   4.702
31654WAT      O95203   7.157   5.766   1.312
31654WAT     H195204   7.255   5.784   1.304
31654WAT     H295205   7.127   5.713   1.232
31655WAT      O95206   8.285   0.341   4.655
31655WAT     H195207   8.296   0.248   4.689
31655WAT     H295208   8.318   0.405   4.724
31656WAT      O95209   5.155   8.888   3.967
31656WAT     H195210   5.187   8.822   4.035
31656WAT     H295211   5.136   8.975   4.013
31657WAT      O95212   7.178   4.773   3.930
31657WAT     H195213   7.181   4.857   3.984
31657WAT     H295214   7.198   4.695   3.989
31658WAT      O95215   5.936   3.821   2.930
31658WAT     H195216   5.959   3.907   2.975
31658WAT     H295217   5.918   3.838   2.833
31659WAT      O95218   7.978   0.444   1.769
31659WAT     H195219   8.031   0.366   1.801
31659WAT     H295220   7.902   0.412   1.712
31660WAT      O95221   1.615   9.103   8.506
31660WAT     H195222   1.567   9.064   8.585
31660WAT     H295223   1.648   9.194   8.529
31661WAT      O95224   7.968   7.885   9.172
31661WAT     H195225   7.897   7.921   9.111
31661WAT     H295226   8.019   7.812   9.125
31662WAT      O95227   2.487   3.941   3.056
31662WAT     H195228   2.393   3.966   3.079
31662WAT     H295229   2.490   3.902   2.963
31663WAT      O95230   8.614   8.902   7.574
31663WAT     H195231   8.619   8.931   7.669
31663WAT     H295232   8.544   8.955   7.526
31664WAT      O95233   5.142   0.095   1.712
31664WAT     H195234   5.237   0.100   1.743
31664WAT     H295235   5.089   0.037   1.774
31665WAT      O95236   3.671   4.958   9.141
31665WAT     H195237   3.581   4.964   9.183
31665WAT     H295238   3.731   5.028   9.181
31666WAT      O95239   0.224   0.053   9.664
31666WAT     H195240   0.300   0.008   9.617
31666WAT     H295241   0.246   0.150   9.679
31667WAT      O95242   5.657   8.223   7.132
31667WAT     H195243   5.586   8.188   7.072
31667WAT     H295244   5.740   8.168   7.122
31668WAT      O95245   2.656   8.657   6.821
31668WAT     H195246   2.611   8.730   6.769
31668WAT     H295247   2.606   8.572   6.807
31669WAT      O95248   2.029   2.056   4.453
31669WAT     H195249   2.044   2.150   4.421
31669WAT     H295250   2.006   2.058   4.551
31670WAT      O95251   0.062   6.652   1.925
31670WAT     H195252   0.051   6.712   1.846
31670WAT     H295253  -0.012   6.585   1.927
31671WAT      O95254   9.206   1.973   5.250
31671WAT     H195255   9.296   1.947   5.285
31671WAT     H295256   9.138   1.967   5.323
31672WAT      O95257   2.915   2.786   6.433
31672WAT     H195258   2.868   2.868   6.465
31672WAT     H295259   2.863   2.705   6.460
31673WAT      O95260   4.718   0.750   7.627
31673WAT     H195261   4.800   0.755   7.569
31673WAT     H295262   4.680   0.842   7.638
31674WAT      O95263   9.382   6.377   7.181
31674WAT     H195264   9.393   6.283   7.147
31674WAT     H295265   9.288   6.407   7.166
31675WAT      O95266   1.454   8.843   0.398
31675WAT     H195267   1.427   8.870   0.490
31675WAT     H295268   1.465   8.925   0.342
31676WAT      O95269   2.309   6.684   7.974
31676WAT     H195270   2.407   6.699   7.984
31676WAT     H295271   2.274   6.739   7.899
31677WAT      O95272   5.007   2.748   0.704
31677WAT     H195273   4.989   2.846   0.714
31677WAT     H295274   4.921   2.698   0.703
31678WAT      O95275   7.781   7.713   9.287
31678WAT     H195276   7.859   7.770   9.261
31678WAT     H295277   7.750   7.661   9.207
31679WAT      O95278   3.038   6.589   2.843
31679WAT     H195279   2.983   6.524   2.791
31679WAT     H295280   3.133   6.583   2.814
31680WAT      O95281   3.513   8.486   4.324
31680WAT     H195282   3.533   8.483   4.226
31680WAT     H295283   3.441   8.553   4.342
31681WAT      O95284   3.170   8.560   5.666
31681WAT     H195285   3.095   8.537   5.604
31681WAT     H295286   3.134   8.598   5.751
31682WAT      O95287   8.656   9.246   9.345
31682WAT     H195288   8.742   9.217   9.303
31682WAT     H295289   8.665   9.340   9.377
31683WAT      O95290   7.437   4.444   4.636
31683WAT     H195291   7.384   4.364   4.667
31683WAT     H295292   7.463   4.499   4.715
31684WAT      O95293   4.453   1.826   0.716
31684WAT     H195294   4.486   1.789   0.803
31684WAT     H295295   4.358   1.856   0.727
31685WAT      O95296   0.801   7.637   2.421
31685WAT     H195297   0.828   7.701   2.493
31685WAT     H295298   0.705   7.654   2.396
31686WAT      O95299   8.008   7.504   3.405
31686WAT     H195300   8.102   7.503   3.439
31686WAT     H295301   8.004   7.461   3.315
31687WAT      O95302   9.436   4.297   3.342
31687WAT     H195303   9.463   4.202   3.360
31687WAT     H295304   9.429   4.312   3.243
31688WAT      O95305   6.756   3.290   7.651
31688WAT     H195306   6.738   3.330   7.741
31688WAT     H295307   6.669   3.271   7.605
31689WAT      O95308   5.779   3.335   7.129
31689WAT     H195309   5.837   3.349   7.209
31689WAT     H295310   5.834   3.343   7.046
31690WAT      O95311   1.279   7.221   6.925
31690WAT     H195312   1.351   7.159   6.956
31690WAT     H295313   1.311   7.316   6.932
31691WAT      O95314   1.216   8.456   3.047
31691WAT     H195315   1.165   8.380   3.007
31691WAT     H295316   1.311   8.452   3.015
31692WAT      O95317   4.356   2.709   6.572
31692WAT     H195318   4.407   2.668   6.496
31692WAT     H295319   4.369   2.808   6.571
31693WAT      O95320   1.316   1.900   0.760
31693WAT     H195321   1.299   1.996   0.780
31693WAT     H295322   1.379   1.893   0.682
31694WAT      O95323   6.150   9.779   6.880
31694WAT     H195324   6.158   9.815   6.787
31694WAT     H295325   6.102   9.691   6.877
31695WAT      O95326   7.085   6.590   0.879
31695WAT     H195327   7.185   6.578   0.886
31695WAT     H295328   7.047   6.601   0.971
31696WAT      O95329   0.640   9.280   6.103
31696WAT     H195330   0.647   9.281   6.203
31696WAT     H295331   0.613   9.371   6.071
31697WAT      O95332   1.242   3.111   5.008
31697WAT     H195333   1.329   3.108   4.959
31697WAT     H295334   1.190   3.191   4.979
31698WAT      O95335   4.464   6.873   6.096
31698WAT     H195336   4.410   6.825   6.026
31698WAT     H295337   4.462   6.820   6.181
31699WAT      O95338   1.978   7.965   9.104
31699WAT     H195339   2.029   7.927   9.181
31699WAT     H295340   2.017   7.931   9.018
31700WAT      O95341   6.016   0.189   3.498
31700WAT     H195342   6.009   0.232   3.588
31700WAT     H295343   5.930   0.142   3.478
31701WAT      O95344   6.874   0.984   3.359
31701WAT     H195345   6.971   0.978   3.385
31701WAT     H295346   6.851   0.911   3.296
31702WAT      O95347   3.357   5.441   7.758
31702WAT     H195348   3.375   5.424   7.661
31702WAT     H295349   3.332   5.355   7.803
31703WAT      O95350   4.447   6.749   4.480
31703WAT     H195351   4.368   6.792   4.523
31703WAT     H295352   4.428   6.737   4.382
31704WAT      O95353   3.134   4.148   1.874
31704WAT     H195354   3.203   4.220   1.875
31704WAT     H295355   3.173   4.063   1.911
31705WAT      O95356   3.587   6.025   6.666
31705WAT     H195357   3.640   6.056   6.587
31705WAT     H295358   3.647   5.981   6.732
31706WAT      O95359   7.325   9.522   0.060
31706WAT     H195360   7.361   9.523  -0.033
31706WAT     H295361   7.228   9.550   0.058
31707WAT      O95362   9.311   6.265   8.669
31707WAT     H195363   9.377   6.340   8.660
31707WAT     H295364   9.359   6.178   8.674
31708WAT      O95365   2.716   5.048   7.577
31708WAT     H195366   2.760   4.994   7.504
31708WAT     H295367   2.644   5.104   7.538
31709WAT      O95368   1.269   9.488   2.830
31709WAT     H195369   1.218   9.561   2.785
31709WAT     H295370   1.250   9.489   2.928
31710WAT      O95371   6.815   3.219   9.408
31710WAT     H195372   6.803   3.318   9.406
31710WAT     H295373   6.833   3.189   9.501
31711WAT      O95374   9.285   8.320   0.378
31711WAT     H195375   9.245   8.309   0.469
31711WAT     H295376   9.366   8.261   0.371
31712WAT      O95377   4.124   6.336   6.597
31712WAT     H195378   4.077   6.262   6.645
31712WAT     H295379   4.223   6.323   6.604
31713WAT      O95380   8.645   7.381   3.883
31713WAT     H195381   8.592   7.314   3.934
31713WAT     H295382   8.692   7.336   3.808
31714WAT      O95383   8.339   2.059   8.715
31714WAT     H195384   8.333   2.004   8.798
31714WAT     H295385   8.284   2.017   8.643
31715WAT      O95386   2.356   0.239   3.723
31715WAT     H195387   2.388   0.316   3.778
31715WAT     H295388   2.398   0.155   3.755
31716WAT      O95389   7.421   0.263   1.544
31716WAT     H195390   7.329   0.226   1.548
31716WAT     H295391   7.461   0.242   1.454
31717WAT      O95392   5.438   9.760   0.335
31717WAT     H195393   5.526   9.792   0.302
31717WAT     H295394   5.450   9.708   0.420
31718WAT      O95395   5.334   1.437   1.120
31718WAT     H195396   5.253   1.477   1.162
31718WAT     H295397   5.322   1.435   1.021
31719WAT      O95398   8.741   7.418   4.138
31719WAT     H195399   8.773   7.510   4.161
31719WAT     H295400   8.700   7.419   4.047
31720WAT      O95401   8.172   1.366   0.023
31720WAT     H195402   8.109   1.298  -0.013
31720WAT     H295403   8.134   1.407   0.105
31721WAT      O95404   0.903   5.453   1.182
31721WAT     H195405   0.867   5.412   1.266
31721WAT     H295406   0.837   5.439   1.108
31722WAT      O95407   2.779   8.129   4.521
31722WAT     H195408   2.789   8.038   4.481
31722WAT     H295409   2.685   8.141   4.554
31723WAT      O95410   6.257   1.515   2.839
31723WAT     H195411   6.231   1.420   2.824
31723WAT     H295412   6.277   1.560   2.752
31724WAT      O95413   5.791   6.564   9.337
31724WAT     H195414   5.814   6.643   9.281
31724WAT     H295415   5.797   6.590   9.434
31725WAT      O95416   1.895   6.598   7.913
31725WAT     H195417   1.841   6.519   7.884
31725WAT     H295418   1.971   6.568   7.971
31726WAT      O95419   7.618   3.157   3.131
31726WAT     H195420   7.552   3.139   3.203
31726WAT     H295421   7.579   3.225   3.067
31727WAT      O95422   2.288   5.996   3.904
31727WAT     H195423   2.259   5.960   3.993
31727WAT     H295424   2.387   6.009   3.905
31728WAT      O95425   1.735   4.612   1.054
31728WAT     H195426   1.693   4.672   0.987
31728WAT     H295427   1.777   4.667   1.127
31729WAT      O95428   2.119   6.501   2.355
31729WAT     H195429   2.175   6.584   2.352
31729WAT     H295430   2.110   6.464   2.262
31730WAT      O95431   4.981   7.907   3.335
31730WAT     H195432   4.966   7.911   3.236
31730WAT     H295433   4.936   7.985   3.379
31731WAT      O95434   6.203   8.154   6.460
31731WAT     H195435   6.170   8.210   6.384
31731WAT     H295436   6.302   8.163   6.468
31732WAT      O95437   1.010   6.857   2.119
31732WAT     H195438   0.947   6.780   2.116
31732WAT     H295439   0.989   6.921   2.045
31733WAT      O95440   6.720   0.459   2.972
31733WAT     H195441   6.807   0.496   2.940
31733WAT     H295442   6.649   0.530   2.967
31734WAT      O95443   7.546   3.674   7.491
31734WAT     H195444   7.530   3.590   7.542
31734WAT     H295445   7.461   3.702   7.447
31735WAT      O95446   4.521   7.297   2.409
31735WAT     H195447   4.522   7.351   2.325
31735WAT     H295448   4.460   7.340   2.475
31736WAT      O95449   4.378   8.825   4.047
31736WAT     H195450   4.317   8.880   4.104
31736WAT     H295451   4.346   8.826   3.953
31737WAT      O95452   8.799   7.036   4.432
31737WAT     H195453   8.752   7.085   4.506
31737WAT     H295454   8.898   7.038   4.449
31738WAT      O95455   4.598   6.896   1.016
31738WAT     H195456   4.593   6.802   1.052
31738WAT     H295457   4.611   6.892   0.917
31739WAT      O95458   6.387   6.760   1.190
31739WAT     H195459   6.292   6.791   1.180
31739WAT     H295460   6.445   6.838   1.211
31740WAT      O95461   6.138   1.107   5.753
31740WAT     H195462   6.226   1.063   5.768
31740WAT     H295463   6.089   1.060   5.680
31741WAT      O95464   1.506   9.655   8.928
31741WAT     H195465   1.604   9.647   8.911
31741WAT     H295466   1.464   9.711   8.857
31742WAT      O95467   7.924   2.540   0.245
31742WAT     H195468   8.021   2.557   0.263
31742WAT     H295469   7.904   2.443   0.255
31743WAT      O95470   8.114   0.644   7.112
31743WAT     H195471   8.079   0.675   7.201
31743WAT     H295472   8.137   0.723   7.056
31744WAT      O95473   9.091   5.661   9.796
31744WAT     H195474   9.008   5.649   9.741
31744WAT     H295475   9.068   5.709   9.880
31745WAT      O95476   0.794   3.887   7.063
31745WAT     H195477   0.874   3.945   7.048
31745WAT     H295478   0.749   3.868   6.976
31746WAT      O95479   2.190   5.326   0.953
31746WAT     H195480   2.241   5.326   0.868
31746WAT     H295481   2.105   5.378   0.941
31747WAT      O95482   1.212   4.734   9.010
31747WAT     H195483   1.221   4.833   9.021
31747WAT     H295484   1.258   4.706   8.926
31748WAT      O95485   7.889   0.125   2.118
31748WAT     H195486   7.869   0.131   2.216
31748WAT     H295487   7.986   0.101   2.105
31749WAT      O95488   8.683   5.584   1.497
31749WAT     H195489   8.746   5.615   1.427
31749WAT     H295490   8.734   5.558   1.579
31750WAT      O95491   7.412   7.332   4.866
31750WAT     H195492   7.477   7.390   4.818
31750WAT     H295493   7.326   7.329   4.815
31751WAT      O95494   7.045   9.494   5.257
31751WAT     H195495   7.045   9.529   5.350
31751WAT     H295496   7.100   9.410   5.253
31752WAT      O95497   5.163   8.525   0.004
31752WAT     H195498   5.069   8.549  -0.020
31752WAT     H295499   5.184   8.434  -0.032
31753WAT      O95500   9.696   7.047   6.886
31753WAT     H195501   9.673   7.067   6.981
31753WAT     H295502   9.705   6.948   6.874
31754WAT      O95503   4.545   1.782   3.819
31754WAT     H195504   4.641   1.777   3.792
31754WAT     H295505   4.495   1.705   3.778
31755WAT      O95506   0.922   8.918   7.197
31755WAT     H195507   0.871   8.833   7.213
31755WAT     H295508   0.896   8.986   7.266
31756WAT      O95509   5.038   8.631   4.346
31756WAT     H195510   5.083   8.631   4.435
31756WAT     H295511   4.959   8.692   4.349
31757WAT      O95512   0.411   2.451   6.690
31757WAT     H195513   0.503   2.415   6.707
31757WAT     H295514   0.411   2.502   6.604
31758WAT      O95515   7.728   7.869   4.998
31758WAT     H195516   7.760   7.934   4.930
31758WAT     H295517   7.638   7.834   4.971
31759WAT      O95518   3.007   6.686   8.117
31759WAT     H195519   3.072   6.611   8.131
31759WAT     H295520   2.978   6.687   8.022
31760WAT      O95521   0.126   6.268   2.583
31760WAT     H195522   0.158   6.319   2.663
31760WAT     H295523   0.095   6.178   2.610
31761WAT      O95524   2.173   8.275   1.257
31761WAT     H195525   2.199   8.193   1.205
31761WAT     H295526   2.217   8.355   1.217
31762WAT      O95527   6.268   4.433   3.594
31762WAT     H195528   6.322   4.422   3.511
31762WAT     H295529   6.218   4.348   3.613
31763WAT      O95530   3.516   0.903   0.915
31763WAT     H195531   3.573   0.974   0.874
31763WAT     H295532   3.436   0.945   0.957
31764WAT      O95533   8.874   1.438   3.263
31764WAT     H195534   8.889   1.508   3.192
31764WAT     H295535   8.944   1.367   3.255
31765WAT      O95536   6.547   8.311   5.391
31765WAT     H195537   6.502   8.221   5.395
31765WAT     H295538   6.587   8.333   5.479
31766WAT      O95539   7.086   1.585   4.321
31766WAT     H195540   7.109   1.675   4.359
31766WAT     H295541   7.109   1.514   4.388
31767WAT      O95542   6.344   5.559   2.640
31767WAT     H195543   6.375   5.488   2.578
31767WAT     H295544   6.414   5.577   2.708
31768WAT      O95545   0.789   2.723   8.460
31768WAT     H195546   0.850   2.709   8.382
31768WAT     H295547   0.753   2.816   8.457
31769WAT      O95548   0.796   3.579   3.006
31769WAT     H195549   0.865   3.651   3.016
31769WAT     H295550   0.727   3.589   3.078
31770WAT      O95551   5.359   2.567   9.806
31770WAT     H195552   5.391   2.476   9.836
31770WAT     H295553   5.293   2.556   9.732
31771WAT      O95554   6.772   1.648   8.485
31771WAT     H195555   6.838   1.658   8.559
31771WAT     H295556   6.682   1.677   8.515
31772WAT      O95557   1.590   8.436   7.209
31772WAT     H195558   1.627   8.358   7.260
31772WAT     H295559   1.510   8.473   7.256
31773WAT      O95560   8.352   5.880   1.932
31773WAT     H195561   8.368   5.972   1.967
31773WAT     H295562   8.424   5.857   1.867
31774WAT      O95563   5.150   7.986   5.216
31774WAT     H195564   5.148   7.887   5.228
31774WAT     H295565   5.163   8.030   5.305
31775WAT      O95566   0.534   7.080   9.749
31775WAT     H195567   0.444   7.121   9.729
31775WAT     H295568   0.585   7.070   9.663
31776WAT      O95569   2.777   8.628   1.888
31776WAT     H195570   2.856   8.688   1.899
31776WAT     H295571   2.714   8.667   1.820
31777WAT      O95572   2.481   9.578   0.559
31777WAT     H195573   2.550   9.630   0.608
31777WAT     H295574   2.392   9.591   0.603
31778WAT      O95575   5.773   5.827   1.435
31778WAT     H195576   5.736   5.882   1.510
31778WAT     H295577   5.819   5.747   1.472
31779WAT      O95578   6.229   2.809   2.234
31779WAT     H195579   6.260   2.740   2.168
31779WAT     H295580   6.185   2.764   2.312
31780WAT      O95581   6.952   3.106   9.686
31780WAT     H195582   6.953   3.174   9.758
31780WAT     H295583   7.046   3.074   9.669
31781WAT      O95584   7.197   0.249   7.348
31781WAT     H195585   7.204   0.329   7.408
31781WAT     H295586   7.132   0.268   7.275
31782WAT      O95587   5.921   7.686   8.232
31782WAT     H195588   5.916   7.680   8.332
31782WAT     H295589   6.015   7.670   8.202
31783WAT      O95590   9.232   9.150   5.253
31783WAT     H195591   9.180   9.066   5.268
31783WAT     H295592   9.171   9.228   5.254
31784WAT      O95593   2.147   4.963   3.933
31784WAT     H195594   2.107   5.032   3.993
31784WAT     H295595   2.077   4.928   3.871
31785WAT      O95596   0.852   3.536   6.293
31785WAT     H195597   0.855   3.438   6.316
31785WAT     H295598   0.761   3.572   6.314
31786WAT      O95599   3.853   9.324   5.965
31786WAT     H195600   3.929   9.341   6.028
31786WAT     H295601   3.767   9.350   6.009
31787WAT      O95602   7.067   6.822   5.799
31787WAT     H195603   7.038   6.916   5.778
31787WAT     H295604   7.055   6.805   5.897
31788WAT      O95605   1.765   1.254   8.141
31788WAT     H195606   1.683   1.208   8.176
31788WAT     H295607   1.797   1.205   8.059
31789WAT      O95608   2.330   1.743   1.665
31789WAT     H195609   2.392   1.769   1.591
31789WAT     H295610   2.366   1.778   1.752
31790WAT      O95611   7.302   0.399   3.900
31790WAT     H195612   7.276   0.304   3.886
31790WAT     H295613   7.360   0.429   3.824
31791WAT      O95614   3.176   3.273   0.678
31791WAT     H195615   3.237   3.208   0.723
31791WAT     H295616   3.223   3.313   0.599
31792WAT      O95617   6.844   2.583   5.174
31792WAT     H195618   6.846   2.495   5.222
31792WAT     H295619   6.921   2.588   5.111
31793WAT      O95620   0.001   4.395   5.786
31793WAT     H195621   0.008   4.320   5.852
31793WAT     H295622   0.090   4.408   5.742
31794WAT      O95623   2.741   6.949   5.777
31794WAT     H195624   2.808   6.919   5.710
31794WAT     H295625   2.685   6.871   5.806
31795WAT      O95626   8.965   5.547   8.940
31795WAT     H195627   8.946   5.644   8.954
31795WAT     H295628   9.064   5.532   8.943
31796WAT      O95629   1.167   0.927   6.477
31796WAT     H195630   1.085   0.879   6.448
31796WAT     H295631   1.155   1.025   6.462
31797WAT      O95632   3.043   4.308   4.443
31797WAT     H195633   2.960   4.348   4.481
31797WAT     H295634   3.058   4.343   4.350
31798WAT      O95635   2.151   6.567   4.157
31798WAT     H195636   2.120   6.617   4.076
31798WAT     H295637   2.092   6.487   4.170
31799WAT      O95638   7.241   8.710   7.925
31799WAT     H195639   7.268   8.736   8.017
31799WAT     H295640   7.142   8.714   7.917
31800WAT      O95641   1.724   9.144   0.016
31800WAT     H195642   1.677   9.078   0.074
31800WAT     H295643   1.701   9.236   0.044
31801WAT      O95644   4.634   1.473   2.383
31801WAT     H195645   4.566   1.543   2.403
31801WAT     H295646   4.660   1.426   2.468
31802WAT      O95647   6.255   1.282   8.658
31802WAT     H195648   6.239   1.310   8.753
31802WAT     H295649   6.233   1.185   8.648
31803WAT      O95650   5.684   9.021   4.974
31803WAT     H195651   5.594   9.053   5.003
31803WAT     H295652   5.716   8.949   5.037
31804WAT      O95653   9.001   7.340   3.846
31804WAT     H195654   8.984   7.252   3.802
31804WAT     H295655   9.057   7.325   3.928
31805WAT      O95656   2.156   2.731   1.022
31805WAT     H195657   2.154   2.631   1.030
31805WAT     H295658   2.125   2.758   0.931
31806WAT      O95659   5.984   2.264   4.031
31806WAT     H195660   5.991   2.204   3.951
31806WAT     H295661   6.021   2.355   4.009
31807WAT      O95662   7.377   7.269   4.200
31807WAT     H195663   7.383   7.342   4.133
31807WAT     H295664   7.286   7.228   4.197
31808WAT      O95665   8.258   6.724   3.584
31808WAT     H195666   8.300   6.682   3.665
31808WAT     H295667   8.240   6.820   3.601
31809WAT      O95668   5.769   0.156   3.213
31809WAT     H195669   5.681   0.108   3.216
31809WAT     H295670   5.755   0.250   3.183
31810WAT      O95671   6.815   4.364   8.451
31810WAT     H195672   6.899   4.404   8.415
31810WAT     H295673   6.799   4.275   8.409
31811WAT      O95674   9.278   5.915   7.596
31811WAT     H195675   9.264   5.852   7.520
31811WAT     H295676   9.189   5.942   7.634
31812WAT      O95677   4.374   5.369   3.501
31812WAT     H195678   4.302   5.343   3.566
31812WAT     H295679   4.429   5.288   3.479
31813WAT      O95680   7.527   4.717   5.687
31813WAT     H195681   7.515   4.625   5.649
31813WAT     H295682   7.500   4.785   5.618
31814WAT      O95683   9.524   7.122   9.024
31814WAT     H195684   9.564   7.206   9.060
31814WAT     H295685   9.596   7.059   8.996
31815WAT      O95686   6.672   0.219   3.685
31815WAT     H195687   6.624   0.265   3.610
31815WAT     H295688   6.763   0.191   3.655
31816WAT      O95689   1.369   2.427   8.669
31816WAT     H195690   1.403   2.478   8.747
31816WAT     H295691   1.436   2.431   8.595
31817WAT      O95692   7.828   4.329   8.733
31817WAT     H195693   7.828   4.236   8.698
31817WAT     H295694   7.808   4.393   8.659
31818WAT      O95695   5.050   3.655   1.834
31818WAT     H195696   5.110   3.575   1.833
31818WAT     H295697   5.034   3.686   1.740
31819WAT      O95698   4.097   5.790   5.878
31819WAT     H195699   4.195   5.805   5.864
31819WAT     H295700   4.073   5.812   5.972
31820WAT      O95701   1.286   4.479   9.428
31820WAT     H195702   1.292   4.405   9.361
31820WAT     H295703   1.377   4.513   9.448
31821WAT      O95704   5.076   1.648   1.712
31821WAT     H195705   5.114   1.582   1.777
31821WAT     H295706   5.146   1.715   1.688
31822WAT      O95707   5.023   8.540   2.769
31822WAT     H195708   5.055   8.611   2.706
31822WAT     H295709   5.102   8.491   2.807
31823WAT      O95710   5.474   6.202   7.766
31823WAT     H195711   5.522   6.277   7.813
31823WAT     H295712   5.519   6.115   7.786
31824WAT      O95713   8.758   6.628   1.768
31824WAT     H195714   8.785   6.669   1.855
31824WAT     H295715   8.803   6.675   1.693
31825WAT      O95716   9.559   7.333   1.585
31825WAT     H195717   9.639   7.280   1.615
31825WAT     H295718   9.494   7.272   1.539
31826WAT      O95719   3.596   8.863   9.798
31826WAT     H195720   3.533   8.792   9.829
31826WAT     H295721   3.548   8.950   9.793
31827WAT      O95722   2.485   5.194   1.561
31827WAT     H195723   2.548   5.162   1.632
31827WAT     H295724   2.393   5.158   1.579
31828WAT      O95725   7.508   1.174   7.834
31828WAT     H195726   7.430   1.189   7.773
31828WAT     H295727   7.582   1.237   7.810
31829WAT      O95728   3.376   6.162   6.131
31829WAT     H195729   3.402   6.099   6.204
31829WAT     H295730   3.319   6.235   6.168
31830WAT      O95731   1.469   1.615   4.303
31830WAT     H195732   1.379   1.612   4.345
31830WAT     H295733   1.478   1.540   4.237
31831WAT      O95734   2.228   0.967   8.450
31831WAT     H195735   2.166   0.892   8.472
31831WAT     H295736   2.201   1.048   8.503
31832WAT      O95737   6.715   5.987   4.210
31832WAT     H195738   6.636   5.966   4.267
31832WAT     H295739   6.799   5.968   4.262
31833WAT      O95740   3.711   4.368   5.807
31833WAT     H195741   3.657   4.351   5.724
31833WAT     H295742   3.658   4.424   5.870
31834WAT      O95743   3.401   8.297   1.946
31834WAT     H195744   3.403   8.269   2.042
31834WAT     H295745   3.330   8.246   1.898
31835WAT      O95746   8.275   7.715   0.367
31835WAT     H195747   8.348   7.660   0.409
31835WAT     H295748   8.228   7.660   0.298
31836WAT      O95749   2.779   1.858   6.549
31836WAT     H195750   2.715   1.916   6.599
31836WAT     H295751   2.742   1.837   6.459
31837WAT      O95752   2.773   7.316   5.229
31837WAT     H195753   2.815   7.260   5.301
31837WAT     H295754   2.840   7.380   5.193
31838WAT      O95755   5.747   5.670   8.130
31838WAT     H195756   5.654   5.688   8.097
31838WAT     H295757   5.812   5.688   8.056
31839WAT      O95758   7.109   9.217   6.103
31839WAT     H195759   7.010   9.216   6.118
31839WAT     H295760   7.135   9.304   6.059
31840WAT      O95761   5.942   9.561   2.069
31840WAT     H195762   6.011   9.562   2.141
31840WAT     H295763   5.903   9.469   2.061
31841WAT      O95764   3.908   6.700   7.036
31841WAT     H195765   3.880   6.640   6.961
31841WAT     H295766   3.932   6.790   6.999
31842WAT      O95767   2.035   4.742   9.002
31842WAT     H195768   1.966   4.785   8.943
31842WAT     H295769   2.111   4.805   9.014
31843WAT      O95770   4.777   0.834   7.873
31843WAT     H195771   4.707   0.804   7.938
31843WAT     H295772   4.763   0.788   7.785
31844WAT      O95773   6.307   5.835   6.900
31844WAT     H195774   6.379   5.794   6.956
31844WAT     H295775   6.340   5.921   6.861
31845WAT      O95776   8.104   6.742   4.572
31845WAT     H195777   8.005   6.755   4.563
31845WAT     H295778   8.145   6.732   4.482
31846WAT      O95779   4.100   2.739   0.532
31846WAT     H195780   4.033   2.730   0.605
31846WAT     H295781   4.139   2.831   0.534
31847WAT      O95782   4.725   6.431   6.828
31847WAT     H195783   4.821   6.412   6.807
31847WAT     H295784   4.719   6.488   6.909
31848WAT      O95785   1.641   6.984   1.602
31848WAT     H195786   1.556   7.030   1.625
31848WAT     H295787   1.625   6.885   1.600
31849WAT      O95788   1.851   7.575   4.323
31849WAT     H195789   1.830   7.478   4.336
31849WAT     H295790   1.797   7.630   4.387
31850WAT      O95791   5.384   3.334   3.413
31850WAT     H195792   5.360   3.334   3.316
31850WAT     H295793   5.357   3.248   3.455
31851WAT      O95794   5.906   6.059   8.143
31851WAT     H195795   5.903   6.044   8.241
31851WAT     H295796   6.000   6.056   8.110
31852WAT      O95797   2.739   8.533   0.098
31852WAT     H195798   2.762   8.601   0.028
31852WAT     H295799   2.817   8.472   0.113
31853WAT      O95800   3.867   8.483   0.589
31853WAT     H195801   3.836   8.557   0.529
31853WAT     H295802   3.920   8.418   0.536
31854WAT      O95803   3.691   8.187   8.911
31854WAT     H195804   3.771   8.128   8.908
31854WAT     H295805   3.618   8.148   8.856
31855WAT      O95806   2.356   2.126   9.266
31855WAT     H195807   2.333   2.029   9.257
31855WAT     H295808   2.455   2.136   9.279
31856WAT      O95809   5.512   4.145   3.199
31856WAT     H195810   5.486   4.097   3.282
31856WAT     H295811   5.507   4.082   3.121
31857WAT      O95812   5.788   2.293   3.432
31857WAT     H195813   5.787   2.336   3.523
31857WAT     H295814   5.710   2.326   3.379
31858WAT      O95815   8.278   0.279   6.663
31858WAT     H195816   8.237   0.312   6.748
31858WAT     H295817   8.360   0.226   6.684
31859WAT      O95818   9.767   7.106   1.340
31859WAT     H195819   9.812   7.107   1.250
31859WAT     H295820   9.668   7.100   1.327
31860WAT      O95821   4.120   7.547   1.692
31860WAT     H195822   4.220   7.547   1.688
31860WAT     H295823   4.085   7.463   1.650
31861WAT      O95824   0.297   0.542   3.564
31861WAT     H195825   0.225   0.590   3.615
31861WAT     H295826   0.363   0.505   3.629
31862WAT      O95827   5.401   3.515   1.592
31862WAT     H195828   5.495   3.485   1.611
31862WAT     H295829   5.371   3.476   1.505
31863WAT      O95830   2.517   1.929   8.055
31863WAT     H195831   2.435   1.885   8.020
31863WAT     H295832   2.571   1.862   8.107
31864WAT      O95833   1.801   9.028   5.021
31864WAT     H195834   1.738   9.102   4.995
31864WAT     H295835   1.895   9.060   5.009
31865WAT      O95836   6.671   5.120   9.174
31865WAT     H195837   6.728   5.202   9.176
31865WAT     H295838   6.714   5.048   9.229
31866WAT      O95839   6.893   5.623   1.981
31866WAT     H195840   6.955   5.699   1.996
31866WAT     H295841   6.886   5.568   2.064
31867WAT      O95842   9.075   7.054   4.463
31867WAT     H195843   9.128   7.117   4.520
31867WAT     H295844   9.068   7.090   4.370
31868WAT      O95845   3.054   3.117   0.473
31868WAT     H195846   3.091   3.162   0.554
31868WAT     H295847   3.063   3.177   0.394
31869WAT      O95848   7.677   9.647   0.688
31869WAT     H195849   7.761   9.699   0.676
31869WAT     H295850   7.679   9.566   0.631
31870WAT      O95851   2.460   4.321   6.373
31870WAT     H195852   2.378   4.276   6.339
31870WAT     H295853   2.438   4.372   6.456
31871WAT      O95854   5.204   9.700   0.494
31871WAT     H195855   5.259   9.779   0.521
31871WAT     H295856   5.140   9.727   0.423
31872WAT      O95857   9.835   7.160   2.065
31872WAT     H195858   9.821   7.098   1.988
31872WAT     H295859   9.861   7.107   2.146
31873WAT      O95860   0.967   5.013   3.267
31873WAT     H195861   0.938   5.105   3.296
31873WAT     H295862   0.955   4.949   3.343
31874WAT      O95863   6.708   6.088   4.622
31874WAT     H195864   6.779   6.142   4.577
31874WAT     H295865   6.625   6.143   4.630
31875WAT      O95866   3.856   8.194   7.971
31875WAT     H195867   3.786   8.236   8.029
31875WAT     H295868   3.830   8.100   7.952
31876WAT      O95869   5.649   5.803   2.235
31876WAT     H195870   5.582   5.849   2.293
31876WAT     H295871   5.738   5.803   2.281
31877WAT      O95872   4.618   4.548   9.829
31877WAT     H195873   4.564   4.465   9.828
31877WAT     H295874   4.697   4.537   9.890
31878WAT      O95875   3.527   1.167   6.596
31878WAT     H195876   3.440   1.122   6.617
31878WAT     H295877   3.522   1.264   6.622
31879WAT      O95878   9.639   3.938   0.443
31879WAT     H195879   9.714   3.933   0.378
31879WAT     H295880   9.663   4.001   0.517
31880WAT      O95881   4.614   7.339   2.814
31880WAT     H195882   4.593   7.361   2.910
31880WAT     H295883   4.659   7.250   2.809
31881WAT      O95884   6.820   2.919   6.859
31881WAT     H195885   6.826   2.985   6.784
31881WAT     H295886   6.850   2.961   6.944
31882WAT      O95887   1.194   6.289   9.321
31882WAT     H195888   1.258   6.363   9.303
31882WAT     H295889   1.173   6.241   9.235
31883WAT      O95890   7.650   7.145   7.404
31883WAT     H195891   7.655   7.181   7.497
31883WAT     H295892   7.622   7.218   7.342
31884WAT      O95893   6.079   3.748   9.521
31884WAT     H195894   6.028   3.706   9.595
31884WAT     H295895   6.023   3.750   9.438
31885WAT      O95896   8.441   0.642   7.049
31885WAT     H195897   8.368   0.708   7.032
31885WAT     H295898   8.400   0.553   7.070
31886WAT      O95899   1.772   0.831   1.986
31886WAT     H195900   1.835   0.752   1.989
31886WAT     H295901   1.772   0.876   2.075
31887WAT      O95902   2.108   6.181   4.627
31887WAT     H195903   2.176   6.116   4.592
31887WAT     H295904   2.032   6.131   4.669
31888WAT      O95905   1.773   2.285   6.505
31888WAT     H195906   1.698   2.340   6.543
31888WAT     H295907   1.809   2.330   6.423
31889WAT      O95908   9.407   8.596   7.139
31889WAT     H195909   9.479   8.640   7.193
31889WAT     H295910   9.379   8.511   7.184
31890WAT      O95911   2.156   9.352   3.588
31890WAT     H195912   2.083   9.370   3.654
31890WAT     H295913   2.198   9.263   3.607
31891WAT      O95914   2.578   5.774   4.795
31891WAT     H195915   2.566   5.694   4.854
31891WAT     H295916   2.651   5.756   4.729
31892WAT      O95917   1.540   3.607   7.028
31892WAT     H195918   1.521   3.511   7.006
31892WAT     H295919   1.621   3.637   6.979
31893WAT      O95920   1.027   7.015   3.301
31893WAT     H195921   1.082   6.970   3.371
31893WAT     H295922   1.064   7.106   3.281
31894WAT      O95923   3.449   8.792   1.940
31894WAT     H195924   3.547   8.794   1.957
31894WAT     H295925   3.418   8.698   1.937
31895WAT      O95926   7.975   4.722   9.446
31895WAT     H195927   8.059   4.773   9.459
31895WAT     H295928   7.932   4.748   9.360
31896WAT      O95929   8.531   8.674   1.161
31896WAT     H195930   8.520   8.671   1.062
31896WAT     H295931   8.499   8.762   1.197
31897WAT      O95932   0.965   4.270   6.813
31897WAT     H195933   0.946   4.184   6.766
31897WAT     H295934   0.879   4.314   6.838
31898WAT      O95935   5.273   9.665   6.243
31898WAT     H195936   5.329   9.743   6.217
31898WAT     H295937   5.328   9.603   6.301
31899WAT      O95938   5.578   9.110   4.113
31899WAT     H195939   5.536   9.049   4.046
31899WAT     H295940   5.677   9.110   4.103
   9.88928    9.84380    9.89279 
