GROningen MAchine for Chemical Simulation
95940
    1G5    HO5'    1   5.014   3.681   6.677
    1G5     O5'    2   4.980   3.614   6.737
    1G5     C5'    3   4.881   3.546   6.668
    1G5     H5'    4   4.889   3.439   6.686
    1G5    H5''    5   4.898   3.556   6.561
    1G5     C4'    6   4.739   3.602   6.703
    1G5     H4'    7   4.664   3.537   6.659
    1G5     O4'    8   4.725   3.607   6.843
    1G5     C1'    9   4.643   3.714   6.889
    1G5     H1'   10   4.549   3.691   6.939
    1G5      N9   11   4.722   3.811   6.979
    1G5      C8   12   4.854   3.802   7.018
    1G5      H8   13   4.909   3.720   6.974
    1G5      N7   14   4.888   3.897   7.106
    1G5      C5   15   4.769   3.969   7.131
    1G5      C6   16   4.734   4.073   7.222
    1G5      O6   17   4.812   4.135   7.298
    1G5      N1   18   4.607   4.116   7.224
    1G5      H1   19   4.578   4.190   7.286
    1G5      C2   20   4.518   4.065   7.137
    1G5      N2   21   4.398   4.118   7.139
    1G5     H21   22   4.386   4.206   7.188
    1G5     H22   23   4.336   4.082   7.069
    1G5      N3   24   4.543   3.964   7.051
    1G5      C4   25   4.665   3.916   7.054
    1G5     C3'   26   4.716   3.740   6.658
    1G5     H3'   27   4.807   3.798   6.666
    1G5     C2'   28   4.610   3.792   6.754
    1G5     H2'   29   4.605   3.901   6.758
    1G5     O2'   30   4.481   3.738   6.707
    1G5    HO2'   31   4.464   3.753   6.614
    1G5     O3'   32   4.665   3.753   6.523
    2G        P   33   4.705   3.878   6.428
    2G      OP1   34   4.624   3.879   6.304
    2G      OP2   35   4.853   3.872   6.417
    2G      O5'   36   4.662   4.003   6.519
    2G      C5'   37   4.535   4.062   6.508
    2G      H5'   38   4.457   3.993   6.536
    2G     H5''   39   4.530   4.099   6.405
    2G      C4'   40   4.516   4.185   6.607
    2G      H4'   41   4.415   4.221   6.588
    2G      O4'   42   4.530   4.159   6.747
    2G      C1'   43   4.595   4.261   6.812
    2G      H1'   44   4.532   4.292   6.896
    2G       N9   45   4.728   4.211   6.854
    2G       C8   46   4.813   4.119   6.794
    2G       H8   47   4.779   4.064   6.707
    2G       N7   48   4.926   4.107   6.852
    2G       C5   49   4.928   4.206   6.948
    2G       C6   50   5.027   4.242   7.049
    2G       O6   51   5.147   4.200   7.068
    2G       N1   52   4.987   4.350   7.128
    2G       H1   53   5.049   4.376   7.203
    2G       C2   54   4.863   4.408   7.120
    2G       N2   55   4.839   4.502   7.206
    2G      H21   56   4.890   4.519   7.291
    2G      H22   57   4.757   4.561   7.197
    2G       N3   58   4.765   4.374   7.033
    2G       C4   59   4.808   4.273   6.946
    2G      C3'   60   4.614   4.298   6.577
    2G      H3'   61   4.707   4.245   6.556
    2G      C2'   62   4.608   4.377   6.713
    2G      H2'   63   4.696   4.436   6.739
    2G      O2'   64   4.498   4.464   6.722
    2G     HO2'   65   4.531   4.551   6.698
    2G      O3'   66   4.568   4.372   6.463
    3G        P   67   4.670   4.448   6.360
    3G      OP1   68   4.594   4.486   6.240
    3G      OP2   69   4.788   4.364   6.346
    3G      O5'   70   4.707   4.584   6.445
    3G      C5'   71   4.611   4.687   6.461
    3G      H5'   72   4.517   4.644   6.495
    3G     H5''   73   4.601   4.745   6.369
    3G      C4'   74   4.659   4.794   6.560
    3G      H4'   75   4.579   4.868   6.570
    3G      O4'   76   4.696   4.729   6.680
    3G      C1'   77   4.798   4.799   6.751
    3G      H1'   78   4.759   4.838   6.845
    3G       N9   79   4.902   4.698   6.780
    3G       C8   80   4.930   4.587   6.703
    3G       H8   81   4.874   4.548   6.619
    3G       N7   82   5.013   4.509   6.766
    3G       C5   83   5.055   4.579   6.878
    3G       C6   84   5.160   4.549   6.976
    3G       O6   85   5.247   4.462   6.974
    3G       N1   86   5.174   4.643   7.072
    3G       H1   87   5.244   4.628   7.143
    3G       C2   88   5.090   4.754   7.081
    3G       N2   89   5.115   4.848   7.168
    3G      H21   90   5.200   4.841   7.222
    3G      H22   91   5.086   4.941   7.145
    3G       N3   92   5.002   4.796   6.986
    3G       C4   93   4.981   4.694   6.892
    3G      C3'   94   4.788   4.865   6.517
    3G      H3'   95   4.854   4.788   6.478
    3G      C2'   96   4.844   4.911   6.653
    3G      H2'   97   4.953   4.909   6.651
    3G      O2'   98   4.777   5.022   6.709
    3G     HO2'   99   4.713   5.063   6.651
    3G      O3'  100   4.766   4.976   6.430
    4U        P  101   4.860   4.996   6.304
    4U      OP1  102   4.809   5.108   6.222
    4U      OP2  103   4.877   4.865   6.236
    4U      O5'  104   4.994   5.035   6.364
    4U      C5'  105   5.002   5.153   6.443
    4U      H5'  106   4.928   5.175   6.520
    4U     H5''  107   4.995   5.239   6.377
    4U      C4'  108   5.138   5.163   6.510
    4U      H4'  109   5.137   5.265   6.549
    4U      O4'  110   5.138   5.061   6.614
    4U      C1'  111   5.270   5.042   6.657
    4U      H1'  112   5.295   5.091   6.751
    4U       N1  113   5.297   4.891   6.666
    4U       C6  114   5.245   4.807   6.572
    4U       H6  115   5.186   4.850   6.493
    4U       C5  116   5.270   4.669   6.571
    4U       H5  117   5.224   4.611   6.493
    4U       C4  118   5.347   4.615   6.677
    4U       O4  119   5.371   4.494   6.689
    4U       N3  120   5.404   4.704   6.767
    4U       H3  121   5.462   4.662   6.837
    4U       C2  122   5.385   4.845   6.761
    4U       O2  123   5.446   4.924   6.837
    4U      C3'  124   5.266   5.151   6.431
    4U      H3'  125   5.249   5.071   6.358
    4U      C2'  126   5.351   5.106   6.542
    4U      H2'  127   5.427   5.035   6.508
    4U      O2'  128   5.418   5.219   6.592
    4U     HO2'  129   5.450   5.277   6.523
    4U      O3'  130   5.312   5.278   6.367
    5U        P  131   5.426   5.287   6.268
    5U      OP1  132   5.396   5.407   6.183
    5U      OP2  133   5.444   5.157   6.202
    5U      O5'  134   5.556   5.322   6.358
    5U      C5'  135   5.584   5.453   6.397
    5U      H5'  136   5.502   5.487   6.460
    5U     H5''  137   5.603   5.512   6.307
    5U      C4'  138   5.713   5.455   6.476
    5U      H4'  139   5.740   5.560   6.486
    5U      O4'  140   5.688   5.380   6.596
    5U      C1'  141   5.805   5.339   6.650
    5U      H1'  142   5.814   5.402   6.739
    5U       N1  143   5.799   5.196   6.697
    5U       C6  144   5.703   5.110   6.649
    5U       H6  145   5.637   5.148   6.573
    5U       C5  146   5.701   4.975   6.674
    5U       H5  147   5.625   4.916   6.624
    5U       C4  148   5.812   4.915   6.752
    5U       O4  149   5.826   4.800   6.786
    5U       N3  150   5.908   5.005   6.790
    5U       H3  151   5.973   4.972   6.859
    5U       C2  152   5.905   5.143   6.772
    5U       O2  153   6.006   5.211   6.805
    5U      C3'  154   5.839   5.387   6.421
    5U      H3'  155   5.810   5.291   6.379
    5U      C2'  156   5.916   5.364   6.547
    5U      H2'  157   5.977   5.274   6.537
    5U      O2'  158   5.998   5.469   6.585
    5U     HO2'  159   6.065   5.481   6.518
    5U      O3'  160   5.918   5.459   6.327
    6A        P  161   5.952   5.399   6.191
    6A      OP1  162   6.047   5.488   6.131
    6A      OP2  163   5.826   5.368   6.108
    6A      O5'  164   6.022   5.253   6.227
    6A      C5'  165   6.153   5.246   6.273
    6A      H5'  166   6.167   5.308   6.362
    6A     H5''  167   6.225   5.290   6.205
    6A      C4'  168   6.195   5.110   6.317
    6A      H4'  169   6.297   5.115   6.355
    6A      O4'  170   6.109   5.077   6.422
    6A      C1'  171   6.100   4.933   6.419
    6A      H1'  172   6.134   4.890   6.513
    6A       N9  173   5.957   4.898   6.406
    6A       C8  174   5.860   4.972   6.349
    6A       H8  175   5.875   5.074   6.316
    6A       N7  176   5.739   4.917   6.361
    6A       C5  177   5.768   4.791   6.424
    6A       C6  178   5.692   4.675   6.447
    6A       N6  179   5.560   4.659   6.441
    6A      H61  180   5.529   4.567   6.469
    6A      H62  181   5.512   4.721   6.377
    6A       N1  182   5.751   4.564   6.495
    6A       C2  183   5.884   4.565   6.509
    6A       H2  184   5.929   4.482   6.562
    6A       N3  185   5.965   4.666   6.486
    6A       C4  186   5.899   4.778   6.444
    6A      C3'  187   6.177   5.009   6.201
    6A      H3'  188   6.084   5.033   6.150
    6A      C2'  189   6.173   4.885   6.293
    6A      H2'  190   6.124   4.797   6.252
    6A      O2'  191   6.303   4.840   6.324
    6A     HO2'  192   6.304   4.786   6.404
    6A      O3'  193   6.282   5.005   6.108
    7G        P  194   6.251   4.957   5.957
    7G      OP1  195   6.374   4.969   5.878
    7G      OP2  196   6.123   5.020   5.910
    7G      O5'  197   6.223   4.793   5.977
    7G      C5'  198   6.325   4.697   5.980
    7G      H5'  199   6.398   4.724   6.056
    7G     H5''  200   6.384   4.693   5.889
    7G      C4'  201   6.274   4.554   6.018
    7G      H4'  202   6.354   4.480   6.027
    7G      O4'  203   6.196   4.550   6.134
    7G      C1'  204   6.092   4.453   6.117
    7G      H1'  205   6.088   4.379   6.197
    7G       N9  206   5.963   4.523   6.118
    7G       C8  207   5.945   4.656   6.084
    7G       H8  208   6.025   4.727   6.068
    7G       N7  209   5.818   4.680   6.080
    7G       C5  210   5.753   4.561   6.120
    7G       C6  211   5.611   4.531   6.130
    7G       O6  212   5.513   4.603   6.139
    7G       N1  213   5.589   4.396   6.142
    7G       H1  214   5.492   4.372   6.153
    7G       C2  215   5.684   4.297   6.151
    7G       N2  216   5.642   4.188   6.209
    7G      H21  217   5.544   4.172   6.227
    7G      H22  218   5.713   4.120   6.235
    7G       N3  219   5.815   4.322   6.137
    7G       C4  220   5.840   4.457   6.121
    7G      C3'  221   6.190   4.492   5.905
    7G      H3'  222   6.114   4.565   5.880
    7G      C2'  223   6.110   4.386   5.979
    7G      H2'  224   6.018   4.365   5.925
    7G      O2'  225   6.172   4.258   5.996
    7G     HO2'  226   6.107   4.195   5.965
    7G      O3'  227   6.265   4.455   5.790
    8G        P  228   6.192   4.449   5.646
    8G      OP1  229   6.286   4.386   5.552
    8G      OP2  230   6.139   4.583   5.610
    8G      O5'  231   6.068   4.350   5.661
    8G      C5'  232   6.096   4.214   5.675
    8G      H5'  233   6.161   4.194   5.761
    8G     H5''  234   6.161   4.178   5.595
    8G      C4'  235   5.961   4.139   5.686
    8G      H4'  236   5.982   4.032   5.682
    8G      O4'  237   5.893   4.173   5.816
    8G      C1'  238   5.751   4.168   5.789
    8G      H1'  239   5.698   4.106   5.861
    8G       N9  240   5.690   4.298   5.804
    8G       C8  241   5.751   4.425   5.794
    8G       H8  242   5.857   4.439   5.778
    8G       N7  243   5.662   4.522   5.800
    8G       C5  244   5.541   4.453   5.827
    8G       C6  245   5.412   4.499   5.861
    8G       O6  246   5.379   4.615   5.874
    8G       N1  247   5.318   4.397   5.868
    8G       H1  248   5.222   4.423   5.886
    8G       C2  249   5.343   4.267   5.853
    8G       N2  250   5.249   4.183   5.868
    8G      H21  251   5.154   4.216   5.863
    8G      H22  252   5.277   4.088   5.887
    8G       N3  253   5.460   4.219   5.830
    8G       C4  254   5.557   4.318   5.821
    8G      C3'  255   5.857   4.175   5.578
    8G      H3'  256   5.855   4.283   5.568
    8G      C2'  257   5.727   4.122   5.638
    8G      H2'  258   5.648   4.176   5.585
    8G      O2'  259   5.729   3.979   5.638
    8G     HO2'  260   5.763   3.944   5.555
    8G      O3'  261   5.878   4.119   5.452
    9G        P  262   5.831   4.200   5.318
    9G      OP1  263   5.882   4.129   5.200
    9G      OP2  264   5.866   4.341   5.341
    9G      O5'  265   5.673   4.199   5.331
    9G      C5'  266   5.600   4.080   5.303
    9G      H5'  267   5.631   3.991   5.357
    9G     H5''  268   5.605   4.049   5.199
    9G      C4'  269   5.448   4.093   5.334
    9G      H4'  270   5.399   3.996   5.336
    9G      O4'  271   5.436   4.149   5.460
    9G      C1'  272   5.312   4.225   5.457
    9G      H1'  273   5.246   4.196   5.539
    9G       N9  274   5.333   4.369   5.490
    9G       C8  275   5.451   4.436   5.469
    9G       H8  276   5.538   4.392   5.423
    9G       N7  277   5.454   4.558   5.520
    9G       C5  278   5.318   4.578   5.558
    9G       C6  279   5.252   4.691   5.615
    9G       O6  280   5.301   4.803   5.639
    9G       N1  281   5.116   4.669   5.641
    9G       H1  282   5.071   4.749   5.684
    9G       C2  283   5.053   4.545   5.608
    9G       N2  284   4.932   4.522   5.661
    9G      H21  285   4.874   4.595   5.701
    9G      H22  286   4.894   4.430   5.644
    9G       N3  287   5.110   4.442   5.550
    9G       C4  288   5.243   4.457   5.530
    9G      C3'  289   5.386   4.185   5.238
    9G      H3'  290   5.452   4.272   5.245
    9G      C2'  291   5.256   4.206   5.313
    9G      H2'  292   5.209   4.299   5.281
    9G      O2'  293   5.165   4.094   5.299
    9G     HO2'  294   5.179   4.065   5.208
    9G      O3'  295   5.359   4.136   5.107
   10U        P  296   5.355   4.210   4.973
   10U      OP1  297   5.322   4.109   4.871
   10U      OP2  298   5.479   4.290   4.965
   10U      O5'  299   5.227   4.305   4.979
   10U      C5'  300   5.094   4.255   4.972
   10U      H5'  301   5.092   4.163   5.031
   10U     H5''  302   5.063   4.251   4.868
   10U      C4'  303   4.987   4.350   5.033
   10U      H4'  304   4.894   4.295   5.016
   10U      O4'  305   5.004   4.371   5.170
   10U      C1'  306   4.962   4.502   5.205
   10U      H1'  307   4.889   4.494   5.286
   10U       N1  308   5.072   4.595   5.247
   10U       C6  309   5.209   4.571   5.213
   10U       H6  310   5.238   4.489   5.150
   10U       C5  311   5.298   4.663   5.244
   10U       H5  312   5.400   4.647   5.215
   10U       C4  313   5.259   4.793   5.298
   10U       O4  314   5.323   4.891   5.311
   10U       N3  315   5.121   4.812   5.315
   10U       H3  316   5.094   4.907   5.335
   10U       C2  317   5.025   4.715   5.303
   10U       O2  318   4.901   4.749   5.318
   10U      C3'  319   4.971   4.487   4.963
   10U      H3'  320   5.072   4.527   4.957
   10U      C2'  321   4.890   4.548   5.081
   10U      H2'  322   4.893   4.657   5.079
   10U      O2'  323   4.753   4.504   5.093
   10U     HO2'  324   4.703   4.537   5.018
   10U      O3'  325   4.898   4.490   4.843
   11U        P  326   4.913   4.592   4.731
   11U      OP1  327   4.798   4.584   4.636
   11U      OP2  328   5.045   4.578   4.678
   11U      O5'  329   4.909   4.738   4.792
   11U      C5'  330   4.796   4.812   4.810
   11U      H5'  331   4.735   4.755   4.881
   11U     H5''  332   4.750   4.829   4.713
   11U      C4'  333   4.823   4.946   4.874
   11U      H4'  334   4.726   4.994   4.879
   11U      O4'  335   4.891   4.940   5.004
   11U      C1'  336   4.973   5.060   5.003
   11U      H1'  337   4.942   5.110   5.095
   11U       N1  338   5.122   5.028   5.015
   11U       C6  339   5.177   4.901   4.981
   11U       H6  340   5.107   4.821   4.961
   11U       C5  341   5.304   4.875   4.981
   11U       H5  342   5.351   4.779   4.967
   11U       C4  343   5.396   4.976   5.032
   11U       O4  344   5.518   4.958   5.051
   11U       N3  345   5.342   5.101   5.046
   11U       H3  346   5.406   5.170   5.084
   11U       C2  347   5.208   5.131   5.042
   11U       O2  348   5.174   5.245   5.062
   11U      C3'  349   4.911   5.031   4.780
   11U      H3'  350   4.998   4.969   4.762
   11U      C2'  351   4.936   5.142   4.877
   11U      H2'  352   5.023   5.203   4.853
   11U      O2'  353   4.824   5.220   4.920
   11U     HO2'  354   4.796   5.261   4.837
   11U      O3'  355   4.849   5.069   4.660
   12A        P  356   4.933   5.069   4.523
   12A      OP1  357   4.867   5.144   4.419
   12A      OP2  358   4.976   4.933   4.495
   12A      O5'  359   5.070   5.149   4.559
   12A      C5'  360   5.063   5.294   4.587
   12A      H5'  361   5.002   5.321   4.673
   12A     H5''  362   5.035   5.340   4.493
   12A      C4'  363   5.203   5.345   4.617
   12A      H4'  364   5.208   5.454   4.619
   12A      O4'  365   5.253   5.278   4.734
   12A      C1'  366   5.387   5.247   4.717
   12A      H1'  367   5.452   5.281   4.796
   12A       N9  368   5.400   5.103   4.688
   12A       C8  369   5.298   5.015   4.686
   12A       H8  370   5.194   5.042   4.700
   12A       N7  371   5.342   4.892   4.680
   12A       C5  372   5.480   4.906   4.659
   12A       C6  373   5.590   4.813   4.655
   12A       N6  374   5.587   4.686   4.637
   12A      H61  375   5.673   4.633   4.640
   12A      H62  376   5.502   4.633   4.643
   12A       N1  377   5.716   4.857   4.638
   12A       C2  378   5.733   4.989   4.641
   12A       H2  379   5.832   5.028   4.624
   12A       N3  380   5.645   5.088   4.658
   12A       C4  381   5.519   5.035   4.666
   12A      C3'  382   5.303   5.316   4.502
   12A      H3'  383   5.279   5.214   4.470
   12A      C2'  384   5.430   5.318   4.582
   12A      H2'  385   5.507   5.267   4.524
   12A      O2'  386   5.468   5.454   4.614
   12A     HO2'  387   5.467   5.498   4.529
   12A      O3'  388   5.290   5.416   4.397
   13G        P  389   5.330   5.388   4.251
   13G      OP1  390   5.361   5.514   4.182
   13G      OP2  391   5.228   5.303   4.190
   13G      O5'  392   5.462   5.308   4.263
   13G      C5'  393   5.590   5.362   4.265
   13G      H5'  394   5.611   5.414   4.359
   13G     H5''  395   5.595   5.442   4.190
   13G      C4'  396   5.688   5.251   4.237
   13G      H4'  397   5.789   5.291   4.232
   13G      O4'  398   5.694   5.149   4.334
   13G      C1'  399   5.716   5.024   4.263
   13G      H1'  400   5.803   4.973   4.306
   13G       N9  401   5.611   4.924   4.283
   13G       C8  402   5.480   4.941   4.321
   13G       H8  403   5.427   5.031   4.346
   13G       N7  404   5.413   4.827   4.335
   13G       C5  405   5.504   4.729   4.292
   13G       C6  406   5.491   4.582   4.284
   13G       O6  407   5.394   4.513   4.319
   13G       N1  408   5.604   4.527   4.234
   13G       H1  409   5.603   4.426   4.231
   13G       C2  410   5.710   4.591   4.183
   13G       N2  411   5.807   4.507   4.168
   13G      H21  412   5.793   4.411   4.194
   13G      H22  413   5.902   4.529   4.141
   13G       N3  414   5.731   4.725   4.193
   13G       C4  415   5.620   4.792   4.249
   13G      C3'  416   5.659   5.190   4.098
   13G      H3'  417   5.552   5.169   4.096
   13G      C2'  418   5.734   5.056   4.111
   13G      H2'  419   5.685   4.983   4.045
   13G      O2'  420   5.876   5.062   4.092
   13G     HO2'  421   5.917   4.975   4.085
   13G      O3'  422   5.700   5.271   3.987
   14G        P  423   5.625   5.254   3.845
   14G      OP1  424   5.699   5.332   3.748
   14G      OP2  425   5.478   5.293   3.857
   14G      O5'  426   5.622   5.099   3.806
   14G      C5'  427   5.729   5.027   3.754
   14G      H5'  428   5.814   5.039   3.822
   14G     H5''  429   5.741   5.072   3.656
   14G      C4'  430   5.693   4.877   3.743
   14G      H4'  431   5.779   4.827   3.698
   14G      O4'  432   5.678   4.819   3.873
   14G      C1'  433   5.562   4.736   3.868
   14G      H1'  434   5.598   4.645   3.917
   14G       N9  435   5.440   4.792   3.933
   14G       C8  436   5.392   4.917   3.969
   14G       H8  437   5.455   5.003   3.952
   14G       N7  438   5.280   4.924   4.031
   14G       C5  439   5.250   4.794   4.047
   14G       C6  440   5.150   4.724   4.119
   14G       O6  441   5.069   4.768   4.196
   14G       N1  442   5.149   4.592   4.106
   14G       H1  443   5.084   4.535   4.159
   14G       C2  444   5.241   4.518   4.044
   14G       N2  445   5.240   4.388   4.048
   14G      H21  446   5.171   4.339   4.103
   14G      H22  447   5.329   4.343   4.037
   14G       N3  448   5.339   4.571   3.973
   14G       C4  449   5.344   4.711   3.984
   14G      C3'  450   5.562   4.849   3.665
   14G      H3'  451   5.483   4.916   3.699
   14G      C2'  452   5.529   4.713   3.718
   14G      H2'  453   5.423   4.692   3.706
   14G      O2'  454   5.608   4.604   3.671
   14G     HO2'  455   5.624   4.627   3.579
   14G      O3'  456   5.575   4.837   3.523
   15G        P  457   5.448   4.862   3.430
   15G      OP1  458   5.493   4.862   3.286
   15G      OP2  459   5.391   4.991   3.472
   15G      O5'  460   5.344   4.738   3.457
   15G      C5'  461   5.374   4.603   3.413
   15G      H5'  462   5.465   4.570   3.463
   15G     H5''  463   5.396   4.607   3.306
   15G      C4'  464   5.275   4.497   3.452
   15G      H4'  465   5.317   4.406   3.409
   15G      O4'  466   5.260   4.486   3.591
   15G      C1'  467   5.120   4.468   3.626
   15G      H1'  468   5.115   4.371   3.676
   15G       N9  469   5.077   4.582   3.715
   15G       C8  470   5.110   4.713   3.705
   15G       H8  471   5.201   4.734   3.650
   15G       N7  472   5.048   4.795   3.790
   15G       C5  473   4.953   4.705   3.855
   15G       C6  474   4.850   4.727   3.951
   15G       O6  475   4.813   4.832   4.008
   15G       N1  476   4.768   4.618   3.976
   15G       H1  477   4.693   4.626   4.043
   15G       C2  478   4.790   4.498   3.912
   15G       N2  479   4.698   4.408   3.924
   15G      H21  480   4.626   4.439   3.988
   15G      H22  481   4.696   4.327   3.865
   15G       N3  482   4.891   4.470   3.835
   15G       C4  483   4.972   4.577   3.808
   15G      C3'  484   5.138   4.516   3.389
   15G      H3'  485   5.115   4.622   3.383
   15G      C2'  486   5.047   4.449   3.491
   15G      H2'  487   4.951   4.501   3.491
   15G      O2'  488   5.035   4.310   3.466
   15G     HO2'  489   5.059   4.302   3.373
   15G      O3'  490   5.120   4.452   3.256
   16U        P  491   5.023   4.515   3.153
   16U      OP1  492   5.011   4.417   3.044
   16U      OP2  493   5.072   4.650   3.123
   16U      O5'  494   4.885   4.536   3.226
   16U      C5'  495   4.791   4.434   3.241
   16U      H5'  496   4.833   4.356   3.305
   16U     H5''  497   4.772   4.388   3.144
   16U      C4'  498   4.657   4.468   3.307
   16U      H4'  499   4.590   4.382   3.308
   16U      O4'  500   4.688   4.522   3.433
   16U      C1'  501   4.587   4.615   3.469
   16U      H1'  502   4.514   4.566   3.534
   16U       N1  503   4.653   4.732   3.539
   16U       C6  504   4.742   4.811   3.470
   16U       H6  505   4.786   4.782   3.376
   16U       C5  506   4.785   4.929   3.533
   16U       H5  507   4.854   4.995   3.483
   16U       C4  508   4.743   4.962   3.663
   16U       O4  509   4.769   5.066   3.718
   16U       N3  510   4.662   4.871   3.730
   16U       H3  511   4.614   4.897   3.815
   16U       C2  512   4.602   4.756   3.665
   16U       O2  513   4.509   4.697   3.729
   16U      C3'  514   4.598   4.584   3.232
   16U      H3'  515   4.678   4.651   3.200
   16U      C2'  516   4.512   4.650   3.334
   16U      H2'  517   4.521   4.759   3.329
   16U      O2'  518   4.383   4.595   3.353
   16U     HO2'  519   4.322   4.639   3.294
   16U      O3'  520   4.521   4.551   3.119
   17U        P  521   4.476   4.666   3.024
   17U      OP1  522   4.428   4.604   2.902
   17U      OP2  523   4.572   4.777   3.018
   17U      O5'  524   4.348   4.724   3.091
   17U      C5'  525   4.213   4.672   3.070
   17U      H5'  526   4.202   4.568   3.100
   17U     H5''  527   4.190   4.685   2.964
   17U      C4'  528   4.109   4.753   3.143
   17U      H4'  529   4.008   4.725   3.113
   17U      O4'  530   4.120   4.721   3.281
   17U      C1'  531   4.069   4.838   3.355
   17U      H1'  532   3.971   4.813   3.395
   17U       N1  533   4.169   4.865   3.471
   17U       C6  534   4.294   4.915   3.451
   17U       H6  535   4.324   4.937   3.349
   17U       C5  536   4.374   4.946   3.556
   17U       H5  537   4.467   4.998   3.539
   17U       C4  538   4.332   4.937   3.693
   17U       O4  539   4.402   4.972   3.785
   17U       N3  540   4.205   4.885   3.702
   17U       H3  541   4.167   4.884   3.796
   17U       C2  542   4.119   4.848   3.603
   17U       O2  543   4.005   4.805   3.630
   17U      C3'  544   4.131   4.904   3.132
   17U      H3'  545   4.239   4.921   3.138
   17U      C2'  546   4.057   4.959   3.252
   17U      H2'  547   4.096   5.055   3.285
   17U      O2'  548   3.916   4.972   3.225
   17U     HO2'  549   3.893   5.025   3.148
   17U      O3'  550   4.073   4.970   3.006
   18A        P  551   4.134   5.107   2.960
   18A      OP1  552   4.143   5.107   2.814
   18A      OP2  553   4.261   5.131   3.027
   18A      O5'  554   4.019   5.202   3.007
   18A      C5'  555   3.897   5.208   2.944
   18A      H5'  556   3.860   5.110   2.915
   18A     H5''  557   3.913   5.269   2.855
   18A      C4'  558   3.792   5.282   3.021
   18A      H4'  559   3.696   5.290   2.971
   18A      O4'  560   3.774   5.223   3.148
   18A      C1'  561   3.788   5.333   3.240
   18A      H1'  562   3.710   5.330   3.317
   18A       N9  563   3.915   5.319   3.317
   18A       C8  564   4.039   5.360   3.293
   18A       H8  565   4.086   5.399   3.204
   18A       N7  566   4.124   5.343   3.391
   18A       C5  567   4.047   5.281   3.491
   18A       C6  568   4.067   5.236   3.624
   18A       N6  569   4.173   5.252   3.692
   18A      H61  570   4.173   5.214   3.786
   18A      H62  571   4.255   5.291   3.649
   18A       N1  572   3.973   5.181   3.694
   18A       C2  573   3.855   5.176   3.641
   18A       H2  574   3.777   5.142   3.707
   18A       N3  575   3.810   5.213   3.518
   18A       C4  576   3.916   5.263   3.451
   18A      C3'  577   3.840   5.426   3.037
   18A      H3'  578   3.948   5.427   3.045
   18A      C2'  579   3.775   5.467   3.172
   18A      H2'  580   3.833   5.541   3.226
   18A      O2'  581   3.636   5.492   3.171
   18A     HO2'  582   3.611   5.570   3.121
   18A      O3'  583   3.812   5.507   2.924
   19G        P  584   3.859   5.656   2.925
   19G      OP1  585   3.873   5.718   2.790
   19G      OP2  586   3.968   5.673   3.025
   19G      O5'  587   3.747   5.728   2.998
   19G      C5'  588   3.632   5.770   2.929
   19G      H5'  589   3.579   5.700   2.865
   19G     H5''  590   3.665   5.849   2.861
   19G      C4'  591   3.527   5.824   3.028
   19G      H4'  592   3.437   5.868   2.985
   19G      O4'  593   3.503   5.741   3.136
   19G      C1'  594   3.522   5.801   3.273
   19G      H1'  595   3.428   5.789   3.326
   19G       N9  596   3.642   5.744   3.334
   19G       C8  597   3.774   5.762   3.304
   19G       H8  598   3.804   5.815   3.215
   19G       N7  599   3.851   5.724   3.398
   19G       C5  600   3.764   5.656   3.485
   19G       C6  601   3.790   5.577   3.604
   19G       O6  602   3.892   5.533   3.650
   19G       N1  603   3.675   5.549   3.679
   19G       H1  604   3.683   5.489   3.760
   19G       C2  605   3.558   5.597   3.647
   19G       N2  606   3.460   5.566   3.729
   19G      H21  607   3.476   5.515   3.815
   19G      H22  608   3.378   5.624   3.724
   19G       N3  609   3.524   5.659   3.532
   19G       C4  610   3.638   5.689   3.460
   19G      C3'  611   3.581   5.953   3.097
   19G      H3'  612   3.689   5.952   3.085
   19G      C2'  613   3.531   5.948   3.245
   19G      H2'  614   3.600   5.999   3.313
   19G      O2'  615   3.401   5.995   3.247
   19G     HO2'  616   3.393   6.077   3.198
   19G      O3'  617   3.514   6.063   3.034
   20G        P  618   3.599   6.190   2.996
   20G      OP1  619   3.516   6.283   2.920
   20G      OP2  620   3.734   6.151   2.943
   20G      O5'  621   3.614   6.244   3.144
   20G      C5'  622   3.515   6.337   3.201
   20G      H5'  623   3.421   6.303   3.158
   20G     H5''  624   3.533   6.439   3.169
   20G      C4'  625   3.516   6.340   3.350
   20G      H4'  626   3.428   6.393   3.388
   20G      O4'  627   3.515   6.215   3.408
   20G      C1'  628   3.583   6.222   3.530
   20G      H1'  629   3.510   6.205   3.609
   20G       N9  630   3.685   6.110   3.529
   20G       C8  631   3.794   6.097   3.452
   20G       H8  632   3.802   6.151   3.359
   20G       N7  633   3.882   6.016   3.491
   20G       C5  634   3.838   5.975   3.621
   20G       C6  635   3.892   5.885   3.714
   20G       O6  636   3.996   5.813   3.710
   20G       N1  637   3.806   5.869   3.818
   20G       H1  638   3.831   5.791   3.878
   20G       C2  639   3.687   5.932   3.842
   20G       N2  640   3.610   5.882   3.938
   20G      H21  641   3.646   5.813   4.002
   20G      H22  642   3.528   5.937   3.959
   20G       N3  643   3.637   6.021   3.758
   20G       C4  644   3.715   6.034   3.645
   20G      C3'  645   3.655   6.402   3.398
   20G      H3'  646   3.739   6.363   3.340
   20G      C2'  647   3.644   6.361   3.547
   20G      H2'  648   3.748   6.361   3.581
   20G      O2'  649   3.561   6.451   3.624
   20G     HO2'  650   3.620   6.499   3.683
   20G      O3'  651   3.669   6.542   3.384
   21G3       P  652   3.812   6.618   3.392
   21G3     OP1  653   3.786   6.747   3.321
   21G3     OP2  654   3.922   6.529   3.348
   21G3     O5'  655   3.841   6.650   3.546
   21G3     C5'  656   3.753   6.737   3.621
   21G3     H5'  657   3.650   6.724   3.587
   21G3    H5''  658   3.782   6.840   3.598
   21G3     C4'  659   3.742   6.700   3.772
   21G3     H4'  660   3.669   6.763   3.823
   21G3     O4'  661   3.720   6.566   3.796
   21G3     C1'  662   3.787   6.531   3.924
   21G3     H1'  663   3.707   6.507   3.994
   21G3      N9  664   3.867   6.411   3.893
   21G3      C8  665   3.953   6.383   3.787
   21G3      H8  666   3.980   6.456   3.712
   21G3      N7  667   4.018   6.267   3.796
   21G3      C5  668   3.971   6.220   3.922
   21G3      C6  669   3.987   6.091   3.988
   21G3      O6  670   4.064   6.000   3.962
   21G3      N1  671   3.917   6.078   4.100
   21G3      H1  672   3.928   5.989   4.146
   21G3      C2  673   3.815   6.160   4.144
   21G3      N2  674   3.741   6.125   4.248
   21G3     H21  675   3.761   6.042   4.301
   21G3     H22  676   3.665   6.182   4.282
   21G3      N3  677   3.787   6.278   4.082
   21G3      C4  678   3.873   6.300   3.973
   21G3     C3'  679   3.890   6.719   3.832
   21G3     H3'  680   3.955   6.656   3.772
   21G3     C2'  681   3.873   6.646   3.964
   21G3     H2'  682   3.966   6.600   3.998
   21G3     O2'  683   3.806   6.708   4.077
   21G3    HO2'  684   3.815   6.803   4.064
   21G3     O3'  685   3.938   6.848   3.852
   21G3    HO3'  686   4.032   6.841   3.866
   22Cl-    Cl-  687   1.949   9.587   2.026
   23Cl-    Cl-  688   4.111   4.899   6.979
   24Cl-    Cl-  689   0.499   9.421   3.304
   25Cl-    Cl-  690   8.574   1.506   0.526
   26Cl-    Cl-  691   6.000   1.200   3.013
   27Cl-    Cl-  692   7.858   3.846   6.859
   28Cl-    Cl-  693   2.170   1.990   4.122
   29Cl-    Cl-  694   5.186   7.123   3.787
   30Cl-    Cl-  695   8.177   7.369   4.712
   31Cl-    Cl-  696   1.702   7.623   0.362
   32Cl-    Cl-  697   2.647   2.827   7.849
   33Cl-    Cl-  698   3.834   6.320   5.233
   34Cl-    Cl-  699   4.848   8.691   7.432
   35Cl-    Cl-  700   6.043   6.968   4.354
   36Cl-    Cl-  701   5.054   1.842   9.195
   37Cl-    Cl-  702   7.923   9.418   7.820
   38Cl-    Cl-  703   0.119   2.037   5.899
   39Cl-    Cl-  704   4.239   2.251   3.739
   40Cl-    Cl-  705   2.711   6.723   3.672
   41Cl-    Cl-  706   8.149   7.570   1.616
   42Cl-    Cl-  707   2.221   1.090   7.476
   43Cl-    Cl-  708   2.495   3.603   6.048
   44Cl-    Cl-  709   3.452   0.213   7.486
   45Cl-    Cl-  710   3.826   1.803   8.197
   46Cl-    Cl-  711   3.057   2.637   0.432
   47Cl-    Cl-  712   9.586   9.831   8.573
   48Cl-    Cl-  713   3.422   0.742   1.973
   49Cl-    Cl-  714   1.508   3.997   0.674
   50Cl-    Cl-  715   7.210   9.073   7.807
   51Cl-    Cl-  716   6.529   7.224   6.840
   52Cl-    Cl-  717   4.314   1.709   6.919
   53Cl-    Cl-  718   1.056   5.793   9.569
   54Cl-    Cl-  719   5.155   2.484   5.065
   55Cl-    Cl-  720   4.965   1.848   6.679
   56Cl-    Cl-  721   4.351   9.765   1.669
   57Cl-    Cl-  722   0.563   2.951   3.607
   58Cl-    Cl-  723   0.559   8.372   0.187
   59Cl-    Cl-  724   4.288   5.228   8.336
   60Cl-    Cl-  725   0.466   6.886   6.963
   61Cl-    Cl-  726   2.401   5.947   6.819
   62Cl-    Cl-  727   0.596   0.463   7.190
   63Cl-    Cl-  728   6.511   9.632   0.215
   64Cl-    Cl-  729   7.181   5.569   2.158
   65Cl-    Cl-  730   7.694   6.015   3.775
   66Cl-    Cl-  731   6.950   3.650   2.317
   67Cl-    Cl-  732   3.680   3.058   7.641
   68Cl-    Cl-  733   8.317   8.460   0.420
   69Cl-    Cl-  734   8.375   6.065   9.465
   70Cl-    Cl-  735   0.987   6.867   4.445
   71Cl-    Cl-  736   7.571   7.495   7.391
   72Cl-    Cl-  737   1.684   5.827   4.497
   73Cl-    Cl-  738   0.068   0.993   1.763
   74Cl-    Cl-  739   2.706   8.862   7.715
   75Cl-    Cl-  740   6.561   8.274   2.423
   76Cl-    Cl-  741   2.810   5.234   0.875
   77Cl-    Cl-  742   5.454   3.783   4.392
   78Cl-    Cl-  743   8.982   2.844   5.851
   79Cl-    Cl-  744   8.701   6.842   7.700
   80Cl-    Cl-  745   8.853   6.020   5.484
   81Cl-    Cl-  746   3.080   7.694   3.587
   82Cl-    Cl-  747   8.845   3.816   4.035
   83Cl-    Cl-  748   3.358   0.474   0.879
   84Cl-    Cl-  749   9.310   2.622   9.830
   85Cl-    Cl-  750   0.610   1.198   7.613
   86Cl-    Cl-  751   5.754   6.907   0.496
   87Cl-    Cl-  752   7.088   5.168   1.538
   88Cl-    Cl-  753   5.074   7.473   6.018
   89Cl-    Cl-  754   2.819   4.438   8.295
   90Cl-    Cl-  755   1.127   0.835   5.438
   91Cl-    Cl-  756   4.795   1.798   5.045
   92Cl-    Cl-  757   1.603   6.230   0.246
   93Cl-    Cl-  758   9.631   3.446   0.973
   94Cl-    Cl-  759   6.095   9.621   5.883
   95Cl-    Cl-  760   1.862   3.007   6.460
   96Cl-    Cl-  761   7.368   3.040   3.852
   97Cl-    Cl-  762   6.566   4.970   7.448
   98Cl-    Cl-  763   1.906   9.461   2.669
   99Cl-    Cl-  764   2.727   9.035   0.653
  100Cl-    Cl-  765   4.245   5.111   5.231
  101Cl-    Cl-  766   8.739   7.597   6.865
  102Cl-    Cl-  767   7.106   9.165   6.542
  103Cl-    Cl-  768   6.049   6.621   1.795
  104Cl-    Cl-  769   7.202   3.750   1.493
  105Cl-    Cl-  770   7.820   0.791   0.483
  106Cl-    Cl-  771   3.234   5.779   4.772
  107K+      K+  772   2.777   6.403   2.688
  108K+      K+  773   4.017   3.975   7.638
  109K+      K+  774   4.928   3.850   5.612
  110K+      K+  775   2.840   2.335   7.741
  111K+      K+  776   4.560   2.809   6.679
  112K+      K+  777   3.900   6.667   5.654
  113K+      K+  778   2.787   9.427   3.449
  114K+      K+  779   9.602   9.185   7.470
  115K+      K+  780   7.690   9.690   2.881
  116K+      K+  781   5.378   4.257   4.396
  117K+      K+  782   8.266   5.998   6.974
  118K+      K+  783   1.944   2.749   7.341
  119K+      K+  784   3.095   4.875   9.727
  120K+      K+  785   8.103   3.395   6.995
  121K+      K+  786   9.884   6.029   5.327
  122K+      K+  787   3.001   1.456   0.307
  123K+      K+  788   5.847   4.589   5.243
  124K+      K+  789   0.330   2.741   4.011
  125K+      K+  790   4.556   9.347   3.273
  126K+      K+  791   9.756   5.617   0.029
  127K+      K+  792   2.919   9.437   7.000
  128K+      K+  793   5.624   5.167   5.793
  129K+      K+  794   8.588   1.011   0.435
  130K+      K+  795   6.097   6.385   9.885
  131K+      K+  796   8.710   9.736   4.963
  132K+      K+  797   4.825   2.192   6.989
  133K+      K+  798   1.204   2.941   3.401
  134K+      K+  799   4.876   4.951   4.229
  135K+      K+  800   5.198   4.727   4.500
  136K+      K+  801   6.321   7.272   3.964
  137K+      K+  802   6.131   6.597   1.099
  138K+      K+  803   3.406   2.607   4.592
  139K+      K+  804   2.865   8.155   0.404
  140K+      K+  805   7.417   0.573   8.594
  141K+      K+  806   5.738   4.807   5.777
  142K+      K+  807   6.842   4.391   4.269
  143K+      K+  808   2.997   1.126   7.843
  144K+      K+  809   9.527   0.851   7.094
  145K+      K+  810   7.685   0.540   2.707
  146K+      K+  811   5.248   7.806   8.860
  147K+      K+  812   0.241   5.952   6.276
  148K+      K+  813   1.464   8.252   3.526
  149K+      K+  814   5.505   2.319   6.444
  150K+      K+  815   6.531   4.971   6.237
  151K+      K+  816   6.479   4.980   3.050
  152K+      K+  817   4.178   4.933   4.759
  153K+      K+  818   0.805   5.891   6.568
  154K+      K+  819   4.153   8.321   5.246
  155K+      K+  820   7.962   1.759   5.899
  156K+      K+  821   0.259   7.399   0.740
  157K+      K+  822   0.202   2.500   2.541
  158K+      K+  823   5.411   6.431   3.983
  159K+      K+  824   6.186   8.752   0.679
  160K+      K+  825   1.078   6.534   3.664
  161K+      K+  826   3.583   3.975   7.801
  162K+      K+  827   4.083   5.374   6.831
  163K+      K+  828   0.490   6.135   4.343
  164K+      K+  829   4.491   2.404   3.144
  165K+      K+  830   8.743   4.171   6.809
  166K+      K+  831   2.357   7.291   4.090
  167K+      K+  832   7.178   6.756   0.288
  168K+      K+  833   7.870   2.207   0.391
  169K+      K+  834   0.720   5.236   3.867
  170K+      K+  835   8.926   0.569   8.708
  171K+      K+  836   5.166   7.573   7.556
  172K+      K+  837   5.076   5.051   3.875
  173K+      K+  838   9.696   2.421   5.799
  174K+      K+  839   4.485   4.361   2.854
  175K+      K+  840   7.916   8.719   8.130
  176K+      K+  841   2.798   9.738   7.386
  177K+      K+  842   3.733   8.890   2.359
  178K+      K+  843   2.102   2.611   0.623
  179K+      K+  844   5.119   3.434   4.320
  180K+      K+  845   0.923   0.395   7.686
  181K+      K+  846   0.720   2.549   5.371
  182K+      K+  847   6.618   7.407   7.353
  183K+      K+  848   6.504   4.725   8.586
  184K+      K+  849   6.815   4.137   0.830
  185K+      K+  850   1.061   2.032   9.242
  186K+      K+  851   4.888   3.139   4.928
  187K+      K+  852   5.049   7.328   2.073
  188K+      K+  853   6.301   7.100   6.439
  189K+      K+  854   2.500   5.260   4.721
  190K+      K+  855   6.651   8.313   1.632
  191K+      K+  856   8.249   5.568   3.911
  192K+      K+  857   4.501   9.747   9.001
  193K+      K+  858   4.117   5.665   3.522
  194K+      K+  859   4.202   6.043   3.729
  195K+      K+  860   1.970   0.397   2.723
  196K+      K+  861   4.757   7.018   3.012
  197K+      K+  862   5.306   4.878   5.912
  198K+      K+  863   0.755   8.620   4.358
  199K+      K+  864   1.695   5.136   7.885
  200K+      K+  865   7.930   8.491   7.149
  201K+      K+  866   8.132   7.644   1.159
  202K+      K+  867   7.442   7.359   4.220
  203K+      K+  868   7.283   3.666   4.134
  204K+      K+  869   1.490   1.384   5.181
  205K+      K+  870   3.973   0.168   0.756
  206K+      K+  871   7.195   7.045   1.050
  207K+      K+  872   9.196   7.293   7.123
  208K+      K+  873   5.293   4.248   6.846
  209K+      K+  874   6.134   9.639   2.733
  210K+      K+  875   5.283   9.722   7.142
  211K+      K+  876   6.596   2.722   3.094
  212WAT      O  877   6.615   7.630   5.722
  212WAT     H1  878   6.583   7.646   5.629
  212WAT     H2  879   6.714   7.616   5.722
  213WAT      O  880   3.173   7.820   3.875
  213WAT     H1  881   3.087   7.864   3.900
  213WAT     H2  882   3.168   7.786   3.781
  214WAT      O  883   2.639   9.327   5.899
  214WAT     H1  884   2.688   9.262   5.840
  214WAT     H2  885   2.622   9.412   5.849
  215WAT      O  886   7.689   7.289   4.111
  215WAT     H1  887   7.686   7.349   4.032
  215WAT     H2  888   7.783   7.282   4.145
  216WAT      O  889   6.414   7.640   0.162
  216WAT     H1  890   6.321   7.642   0.124
  216WAT     H2  891   6.451   7.733   0.162
  217WAT      O  892   5.856   4.660   3.470
  217WAT     H1  893   5.865   4.759   3.478
  217WAT     H2  894   5.924   4.625   3.405
  218WAT      O  895   8.493   9.753   8.336
  218WAT     H1  896   8.482   9.662   8.374
  218WAT     H2  897   8.572   9.755   8.274
  219WAT      O  898   5.369   4.359   3.131
  219WAT     H1  899   5.404   4.399   3.046
  219WAT     H2  900   5.274   4.388   3.144
  220WAT      O  901   3.602   8.101   8.187
  220WAT     H1  902   3.521   8.153   8.217
  220WAT     H2  903   3.596   8.083   8.089
  221WAT      O  904   9.821   4.069   8.674
  221WAT     H1  905   9.827   4.007   8.596
  221WAT     H2  906   9.838   4.019   8.758
  222WAT      O  907   5.805   5.255   2.804
  222WAT     H1  908   5.787   5.309   2.885
  222WAT     H2  909   5.719   5.235   2.757
  223WAT      O  910   1.279   3.005   8.611
  223WAT     H1  911   1.368   2.960   8.623
  223WAT     H2  912   1.213   2.968   8.676
  224WAT      O  913   8.228   8.594   3.053
  224WAT     H1  914   8.321   8.562   3.037
  224WAT     H2  915   8.220   8.690   3.026
  225WAT      O  916   6.600   4.690   6.229
  225WAT     H1  917   6.640   4.655   6.144
  225WAT     H2  918   6.527   4.630   6.259
  226WAT      O  919   4.495   7.744   0.539
  226WAT     H1  920   4.415   7.694   0.570
  226WAT     H2  921   4.578   7.698   0.570
  227WAT      O  922   8.623   1.311   0.759
  227WAT     H1  923   8.590   1.390   0.706
  227WAT     H2  924   8.677   1.342   0.836
  228WAT      O  925   2.028   4.942   1.707
  228WAT     H1  926   2.080   5.014   1.661
  228WAT     H2  927   2.091   4.875   1.746
  229WAT      O  928   4.357   9.119   3.750
  229WAT     H1  929   4.414   9.044   3.783
  229WAT     H2  930   4.262   9.104   3.779
  230WAT      O  931   0.386   5.481   2.209
  230WAT     H1  932   0.393   5.455   2.112
  230WAT     H2  933   0.313   5.548   2.220
  231WAT      O  934   0.614   3.426   7.765
  231WAT     H1  935   0.568   3.374   7.838
  231WAT     H2  936   0.705   3.453   7.796
  232WAT      O  937   1.135   0.594   0.855
  232WAT     H1  938   1.047   0.641   0.849
  232WAT     H2  939   1.165   0.591   0.951
  233WAT      O  940   2.500   8.159   1.971
  233WAT     H1  941   2.497   8.199   1.879
  233WAT     H2  942   2.407   8.147   2.005
  234WAT      O  943   3.841   7.458   4.342
  234WAT     H1  944   3.759   7.513   4.358
  234WAT     H2  945   3.814   7.368   4.307
  235WAT      O  946   1.940   2.377   9.115
  235WAT     H1  947   1.927   2.420   9.205
  235WAT     H2  948   1.939   2.448   9.044
  236WAT      O  949   6.585   9.315   8.437
  236WAT     H1  950   6.616   9.259   8.360
  236WAT     H2  951   6.496   9.356   8.414
  237WAT      O  952   8.231   7.026   4.390
  237WAT     H1  953   8.154   6.994   4.444
  237WAT     H2  954   8.198   7.067   4.305
  238WAT      O  955   2.577   0.954   4.251
  238WAT     H1  956   2.664   1.003   4.259
  238WAT     H2  957   2.502   1.020   4.244
  239WAT      O  958   6.591   7.369   3.355
  239WAT     H1  959   6.683   7.407   3.346
  239WAT     H2  960   6.563   7.329   3.267
  240WAT      O  961   9.236   1.744   3.391
  240WAT     H1  962   9.281   1.656   3.403
  240WAT     H2  963   9.258   1.781   3.301
  241WAT      O  964   3.697   0.898   4.474
  241WAT     H1  965   3.711   0.816   4.528
  241WAT     H2  966   3.783   0.924   4.429
  242WAT      O  967   4.487   3.226   2.256
  242WAT     H1  968   4.559   3.183   2.310
  242WAT     H2  969   4.404   3.171   2.260
  243WAT      O  970   7.016   5.829   5.343
  243WAT     H1  971   6.918   5.825   5.327
  243WAT     H2  972   7.040   5.917   5.384
  244WAT      O  973   2.736   5.398   1.671
  244WAT     H1  974   2.824   5.383   1.624
  244WAT     H2  975   2.688   5.475   1.628
  245WAT      O  976   4.361   5.553   1.091
  245WAT     H1  977   4.396   5.461   1.076
  245WAT     H2  978   4.278   5.566   1.038
  246WAT      O  979   5.391   3.073   3.909
  246WAT     H1  980   5.363   3.010   3.836
  246WAT     H2  981   5.430   3.020   3.985
  247WAT      O  982   3.013   1.801   5.156
  247WAT     H1  983   2.969   1.766   5.073
  247WAT     H2  984   3.095   1.853   5.131
  248WAT      O  985   5.584   8.531   9.703
  248WAT     H1  986   5.561   8.441   9.741
  248WAT     H2  987   5.656   8.573   9.758
  249WAT      O  988   4.823   6.093   4.069
  249WAT     H1  989   4.784   6.096   3.977
  249WAT     H2  990   4.846   5.999   4.092
  250WAT      O  991   7.915   5.354   8.019
  250WAT     H1  992   7.920   5.319   7.926
  250WAT     H2  993   7.888   5.450   8.017
  251WAT      O  994   2.934   9.790   5.681
  251WAT     H1  995   2.983   9.870   5.714
  251WAT     H2  996   2.931   9.791   5.581
  252WAT      O  997   4.360   6.699   2.779
  252WAT     H1  998   4.457   6.719   2.794
  252WAT     H2  999   4.311   6.704   2.866
  253WAT      O 1000   8.168   9.296   2.731
  253WAT     H1 1001   8.227   9.289   2.651
  253WAT     H2 1002   8.107   9.374   2.721
  254WAT      O 1003   9.388   1.248   6.397
  254WAT     H1 1004   9.347   1.161   6.373
  254WAT     H2 1005   9.475   1.258   6.350
  255WAT      O 1006   4.670   6.717   9.052
  255WAT     H1 1007   4.620   6.732   8.967
  255WAT     H2 1008   4.763   6.753   9.043
  256WAT      O 1009   6.181   9.418   7.567
  256WAT     H1 1010   6.092   9.457   7.590
  256WAT     H2 1011   6.209   9.450   7.476
  257WAT      O 1012   2.766   6.160   1.534
  257WAT     H1 1013   2.811   6.248   1.542
  257WAT     H2 1014   2.673   6.173   1.499
  258WAT      O 1015   2.421   9.684   2.228
  258WAT     H1 1016   2.371   9.687   2.141
  258WAT     H2 1017   2.365   9.638   2.297
  259WAT      O 1018   6.600   9.333   1.582
  259WAT     H1 1019   6.655   9.403   1.535
  259WAT     H2 1020   6.622   9.243   1.545
  260WAT      O 1021   5.031   4.782   9.518
  260WAT     H1 1022   4.986   4.855   9.570
  260WAT     H2 1023   5.055   4.708   9.580
  261WAT      O 1024   1.860   6.626   4.877
  261WAT     H1 1025   1.848   6.696   4.947
  261WAT     H2 1026   1.867   6.536   4.921
  262WAT      O 1027   0.616   8.578   2.111
  262WAT     H1 1028   0.583   8.673   2.117
  262WAT     H2 1029   0.541   8.516   2.135
  263WAT      O 1030   2.692   1.732   8.600
  263WAT     H1 1031   2.760   1.792   8.558
  263WAT     H2 1032   2.636   1.785   8.663
  264WAT      O 1033   0.482   4.998   4.850
  264WAT     H1 1034   0.569   4.976   4.807
  264WAT     H2 1035   0.460   4.929   4.918
  265WAT      O 1036   3.752   2.160   2.178
  265WAT     H1 1037   3.843   2.151   2.138
  265WAT     H2 1038   3.757   2.144   2.276
  266WAT      O 1039   8.293   1.806   0.760
  266WAT     H1 1040   8.207   1.769   0.795
  266WAT     H2 1041   8.281   1.836   0.666
  267WAT      O 1042   7.829   4.201   8.384
  267WAT     H1 1043   7.838   4.144   8.302
  267WAT     H2 1044   7.891   4.279   8.378
  268WAT      O 1045   5.029   8.549   6.771
  268WAT     H1 1046   5.096   8.555   6.697
  268WAT     H2 1047   4.967   8.473   6.753
  269WAT      O 1048   6.819   3.216   8.838
  269WAT     H1 1049   6.746   3.150   8.826
  269WAT     H2 1050   6.908   3.171   8.823
  270WAT      O 1051   6.463   4.078   6.889
  270WAT     H1 1052   6.508   4.118   6.968
  270WAT     H2 1053   6.512   3.995   6.861
  271WAT      O 1054   5.330   5.304   7.484
  271WAT     H1 1055   5.251   5.255   7.519
  271WAT     H2 1056   5.357   5.376   7.548
  272WAT      O 1057   7.416   4.836   1.843
  272WAT     H1 1058   7.424   4.861   1.940
  272WAT     H2 1059   7.405   4.920   1.789
  273WAT      O 1060   9.736   9.259   2.286
  273WAT     H1 1061   9.683   9.196   2.343
  273WAT     H2 1062   9.678   9.335   2.257
  274WAT      O 1063   9.193   5.814   8.351
  274WAT     H1 1064   9.134   5.756   8.407
  274WAT     H2 1065   9.236   5.758   8.280
  275WAT      O 1066   8.759   4.098   5.464
  275WAT     H1 1067   8.795   4.016   5.418
  275WAT     H2 1068   8.681   4.133   5.412
  276WAT      O 1069   5.965   3.941   2.677
  276WAT     H1 1070   5.954   4.022   2.620
  276WAT     H2 1071   6.000   3.865   2.622
  277WAT      O 1072   6.784   4.914   7.240
  277WAT     H1 1073   6.851   4.888   7.310
  277WAT     H2 1074   6.700   4.945   7.285
  278WAT      O 1075   5.393   3.358   4.934
  278WAT     H1 1076   5.491   3.342   4.942
  278WAT     H2 1077   5.345   3.305   5.004
  279WAT      O 1078   3.262   3.553   4.913
  279WAT     H1 1079   3.216   3.555   5.002
  279WAT     H2 1080   3.275   3.647   4.881
  280WAT      O 1081   0.916   1.900   4.483
  280WAT     H1 1082   0.908   1.963   4.560
  280WAT     H2 1083   0.849   1.924   4.413
  281WAT      O 1084   8.555   9.140   7.289
  281WAT     H1 1085   8.605   9.192   7.359
  281WAT     H2 1086   8.576   9.178   7.199
  282WAT      O 1087   7.069   2.928   2.726
  282WAT     H1 1088   6.986   2.911   2.674
  282WAT     H2 1089   7.052   3.000   2.794
  283WAT      O 1090   4.132   0.876   3.169
  283WAT     H1 1091   4.042   0.908   3.201
  283WAT     H2 1092   4.197   0.878   3.245
  284WAT      O 1093   0.523   7.096   4.783
  284WAT     H1 1094   0.600   7.138   4.736
  284WAT     H2 1095   0.553   7.011   4.827
  285WAT      O 1096   0.420   4.479   5.411
  285WAT     H1 1097   0.475   4.439   5.485
  285WAT     H2 1098   0.424   4.579   5.417
  286WAT      O 1099   4.544   2.352   1.353
  286WAT     H1 1100   4.468   2.403   1.313
  286WAT     H2 1101   4.524   2.255   1.353
  287WAT      O 1102   4.857   6.414   3.767
  287WAT     H1 1103   4.770   6.419   3.815
  287WAT     H2 1104   4.842   6.422   3.668
  288WAT      O 1105   2.748   8.104   4.424
  288WAT     H1 1106   2.844   8.098   4.449
  288WAT     H2 1107   2.696   8.143   4.500
  289WAT      O 1108   2.458   3.812   1.092
  289WAT     H1 1109   2.494   3.755   1.018
  289WAT     H2 1110   2.521   3.887   1.110
  290WAT      O 1111   8.433   2.524   1.169
  290WAT     H1 1112   8.421   2.604   1.110
  290WAT     H2 1113   8.501   2.463   1.129
  291WAT      O 1114   6.873   0.472   4.549
  291WAT     H1 1115   6.907   0.560   4.584
  291WAT     H2 1116   6.834   0.419   4.624
  292WAT      O 1117   9.640   9.488   2.947
  292WAT     H1 1118   9.734   9.486   2.914
  292WAT     H2 1119   9.606   9.395   2.958
  293WAT      O 1120   4.461   1.720   7.393
  293WAT     H1 1121   4.367   1.748   7.375
  293WAT     H2 1122   4.478   1.630   7.354
  294WAT      O 1123   2.006   3.888   0.143
  294WAT     H1 1124   1.963   3.973   0.173
  294WAT     H2 1125   2.046   3.841   0.221
  295WAT      O 1126   6.233   8.903   5.617
  295WAT     H1 1127   6.316   8.849   5.601
  295WAT     H2 1128   6.258   8.998   5.632
  296WAT      O 1129   7.278   0.127   4.037
  296WAT     H1 1130   7.302   0.078   4.122
  296WAT     H2 1131   7.350   0.193   4.016
  297WAT      O 1132   9.724   1.592   9.154
  297WAT     H1 1133   9.760   1.684   9.170
  297WAT     H2 1134   9.786   1.524   9.193
  298WAT      O 1135   7.188   7.621   2.433
  298WAT     H1 1136   7.232   7.649   2.518
  298WAT     H2 1137   7.129   7.694   2.400
  299WAT      O 1138   2.304   0.222   2.349
  299WAT     H1 1139   2.291   0.146   2.285
  299WAT     H2 1140   2.228   0.226   2.413
  300WAT      O 1141   5.689   0.236   7.087
  300WAT     H1 1142   5.755   0.186   7.030
  300WAT     H2 1143   5.738   0.291   7.154
  301WAT      O 1144   2.339   0.816   0.293
  301WAT     H1 1145   2.398   0.895   0.312
  301WAT     H2 1146   2.345   0.752   0.370
  302WAT      O 1147   7.354   4.562   8.823
  302WAT     H1 1148   7.306   4.562   8.911
  302WAT     H2 1149   7.453   4.568   8.840
  303WAT      O 1150   2.236   7.655   3.438
  303WAT     H1 1151   2.237   7.627   3.342
  303WAT     H2 1152   2.193   7.745   3.446
  304WAT      O 1153   6.174   6.699   4.457
  304WAT     H1 1154   6.162   6.682   4.555
  304WAT     H2 1155   6.134   6.788   4.433
  305WAT      O 1156   5.459   3.750   5.528
  305WAT     H1 1157   5.442   3.828   5.588
  305WAT     H2 1158   5.557   3.729   5.526
  306WAT      O 1159   3.011   6.460   7.026
  306WAT     H1 1160   3.014   6.360   7.024
  306WAT     H2 1161   2.929   6.490   7.075
  307WAT      O 1162   5.436   1.740   2.968
  307WAT     H1 1163   5.474   1.821   3.013
  307WAT     H2 1164   5.338   1.733   2.988
  308WAT      O 1165   7.497   6.888   8.378
  308WAT     H1 1166   7.538   6.849   8.460
  308WAT     H2 1167   7.423   6.828   8.346
  309WAT      O 1168   0.127   7.097   4.178
  309WAT     H1 1169   0.211   7.141   4.211
  309WAT     H2 1170   0.052   7.115   4.242
  310WAT      O 1171   2.174   5.795   8.988
  310WAT     H1 1172   2.096   5.736   8.966
  310WAT     H2 1173   2.165   5.882   8.941
  311WAT      O 1174   7.617   5.324   4.468
  311WAT     H1 1175   7.587   5.322   4.372
  311WAT     H2 1176   7.609   5.232   4.507
  312WAT      O 1177   8.496   7.984   5.248
  312WAT     H1 1178   8.486   8.079   5.218
  312WAT     H2 1179   8.503   7.980   5.348
  313WAT      O 1180   7.668   5.126   3.697
  313WAT     H1 1181   7.598   5.180   3.744
  313WAT     H2 1182   7.625   5.051   3.648
  314WAT      O 1183   9.153   3.364   5.599
  314WAT     H1 1184   9.190   3.317   5.519
  314WAT     H2 1185   9.227   3.415   5.644
  315WAT      O 1186   1.326   2.301   6.789
  315WAT     H1 1187   1.315   2.213   6.743
  315WAT     H2 1188   1.396   2.356   6.742
  316WAT      O 1189   0.433   1.450   6.803
  316WAT     H1 1190   0.381   1.458   6.889
  316WAT     H2 1191   0.529   1.434   6.824
  317WAT      O 1192   4.978   4.300   7.894
  317WAT     H1 1193   4.899   4.283   7.834
  317WAT     H2 1194   5.048   4.231   7.876
  318WAT      O 1195   5.794   2.885   4.481
  318WAT     H1 1196   5.729   2.877   4.556
  318WAT     H2 1197   5.887   2.866   4.515
  319WAT      O 1198   2.924   2.999   1.033
  319WAT     H1 1199   3.004   2.961   1.080
  319WAT     H2 1200   2.851   3.016   1.099
  320WAT      O 1201   6.579   3.348   9.269
  320WAT     H1 1202   6.548   3.406   9.345
  320WAT     H2 1203   6.588   3.253   9.301
  321WAT      O 1204   4.118   3.251   8.388
  321WAT     H1 1205   4.184   3.299   8.445
  321WAT     H2 1206   4.161   3.224   8.302
  322WAT      O 1207   4.368   4.466   1.884
  322WAT     H1 1208   4.345   4.397   1.816
  322WAT     H2 1209   4.466   4.462   1.905
  323WAT      O 1210   6.635   6.612   4.400
  323WAT     H1 1211   6.585   6.536   4.442
  323WAT     H2 1212   6.569   6.681   4.368
  324WAT      O 1213   0.518   0.134   2.502
  324WAT     H1 1214   0.524   0.215   2.560
  324WAT     H2 1215   0.517   0.161   2.406
  325WAT      O 1216   4.723   6.811   6.991
  325WAT     H1 1217   4.800   6.781   6.935
  325WAT     H2 1218   4.661   6.867   6.936
  326WAT      O 1219   2.814   3.079   3.308
  326WAT     H1 1220   2.714   3.085   3.303
  326WAT     H2 1221   2.854   3.166   3.280
  327WAT      O 1222   3.960   8.842   8.907
  327WAT     H1 1223   3.910   8.875   8.987
  327WAT     H2 1224   3.942   8.901   8.829
  328WAT      O 1225   2.635   3.292   1.866
  328WAT     H1 1226   2.714   3.319   1.811
  328WAT     H2 1227   2.665   3.273   1.959
  329WAT      O 1228   1.962   4.500   7.586
  329WAT     H1 1229   2.044   4.445   7.602
  329WAT     H2 1230   1.973   4.589   7.630
  330WAT      O 1231   0.353   2.202   1.069
  330WAT     H1 1232   0.362   2.279   1.133
  330WAT     H2 1233   0.261   2.163   1.077
  331WAT      O 1234   3.270   3.910   7.258
  331WAT     H1 1235   3.185   3.962   7.250
  331WAT     H2 1236   3.288   3.861   7.173
  332WAT      O 1237   5.921   9.341   6.694
  332WAT     H1 1238   5.932   9.283   6.613
  332WAT     H2 1239   6.006   9.391   6.710
  333WAT      O 1240   9.348   7.363   8.213
  333WAT     H1 1241   9.287   7.435   8.182
  333WAT     H2 1242   9.328   7.278   8.164
  334WAT      O 1243   5.580   6.354   1.808
  334WAT     H1 1244   5.615   6.411   1.882
  334WAT     H2 1245   5.520   6.409   1.750
  335WAT      O 1246   8.541   8.664   9.344
  335WAT     H1 1247   8.576   8.617   9.263
  335WAT     H2 1248   8.521   8.760   9.322
  336WAT      O 1249   2.678   5.670   4.927
  336WAT     H1 1250   2.711   5.658   5.021
  336WAT     H2 1251   2.617   5.749   4.923
  337WAT      O 1252   8.786   4.442   4.562
  337WAT     H1 1253   8.712   4.377   4.578
  337WAT     H2 1254   8.749   4.535   4.558
  338WAT      O 1255   4.294   2.778   2.619
  338WAT     H1 1256   4.332   2.834   2.693
  338WAT     H2 1257   4.349   2.696   2.607
  339WAT      O 1258   6.440   1.402   3.153
  339WAT     H1 1259   6.508   1.417   3.082
  339WAT     H2 1260   6.427   1.304   3.166
  340WAT      O 1261   5.699   4.410   2.209
  340WAT     H1 1262   5.604   4.380   2.199
  340WAT     H2 1263   5.753   4.338   2.252
  341WAT      O 1264   2.298   7.883   0.734
  341WAT     H1 1265   2.354   7.817   0.684
  341WAT     H2 1266   2.218   7.907   0.680
  342WAT      O 1267   7.696   2.742   4.322
  342WAT     H1 1268   7.622   2.710   4.380
  342WAT     H2 1269   7.658   2.798   4.248
  343WAT      O 1270   2.645   5.074   3.976
  343WAT     H1 1271   2.604   5.154   3.932
  343WAT     H2 1272   2.647   4.998   3.910
  344WAT      O 1273   7.967   1.921   8.526
  344WAT     H1 1274   7.879   1.873   8.524
  344WAT     H2 1275   7.966   1.995   8.459
  345WAT      O 1276   4.796   5.007   2.158
  345WAT     H1 1277   4.880   4.980   2.204
  345WAT     H2 1278   4.763   5.094   2.197
  346WAT      O 1279   1.925   8.623   2.591
  346WAT     H1 1280   1.921   8.616   2.491
  346WAT     H2 1281   2.020   8.639   2.619
  347WAT      O 1282   2.596   2.097   6.170
  347WAT     H1 1283   2.666   2.075   6.238
  347WAT     H2 1284   2.510   2.119   6.217
  348WAT      O 1285   0.623   0.719   8.005
  348WAT     H1 1286   0.636   0.804   7.954
  348WAT     H2 1287   0.566   0.657   7.953
  349WAT      O 1288   7.180   4.359   8.197
  349WAT     H1 1289   7.262   4.412   8.220
  349WAT     H2 1290   7.198   4.262   8.215
  350WAT      O 1291   7.494   8.860   8.360
  350WAT     H1 1292   7.480   8.950   8.402
  350WAT     H2 1293   7.449   8.857   8.271
  351WAT      O 1294   5.236   4.931   8.364
  351WAT     H1 1295   5.309   4.863   8.371
  351WAT     H2 1296   5.254   4.990   8.285
  352WAT      O 1297   6.600   2.826   5.090
  352WAT     H1 1298   6.518   2.850   5.038
  352WAT     H2 1299   6.636   2.739   5.055
  353WAT      O 1300   9.382   1.927   4.836
  353WAT     H1 1301   9.394   1.965   4.744
  353WAT     H2 1302   9.452   1.964   4.897
  354WAT      O 1303   9.159   0.357   8.118
  354WAT     H1 1304   9.084   0.297   8.091
  354WAT     H2 1305   9.140   0.450   8.085
  355WAT      O 1306   2.574   8.524   2.772
  355WAT     H1 1307   2.587   8.547   2.676
  355WAT     H2 1308   2.660   8.492   2.812
  356WAT      O 1309   7.124   0.603   3.872
  356WAT     H1 1310   7.158   0.580   3.963
  356WAT     H2 1311   7.063   0.530   3.840
  357WAT      O 1312   8.173   5.597   0.503
  357WAT     H1 1313   8.156   5.539   0.422
  357WAT     H2 1314   8.120   5.681   0.495
  358WAT      O 1315   3.886   1.472   9.018
  358WAT     H1 1316   3.981   1.502   9.019
  358WAT     H2 1317   3.845   1.489   9.108
  359WAT      O 1318   1.662   8.030   3.439
  359WAT     H1 1319   1.577   8.017   3.389
  359WAT     H2 1320   1.734   8.058   3.375
  360WAT      O 1321   8.314   4.659   6.309
  360WAT     H1 1322   8.347   4.738   6.257
  360WAT     H2 1323   8.253   4.605   6.251
  361WAT      O 1324   2.267   1.004   9.488
  361WAT     H1 1325   2.255   1.009   9.587
  361WAT     H2 1326   2.315   0.920   9.464
  362WAT      O 1327   9.485   6.242   2.620
  362WAT     H1 1328   9.548   6.318   2.605
  362WAT     H2 1329   9.396   6.277   2.648
  363WAT      O 1330   1.233   4.244   2.124
  363WAT     H1 1331   1.257   4.245   2.221
  363WAT     H2 1332   1.208   4.151   2.096
  364WAT      O 1333   3.594   9.485   5.014
  364WAT     H1 1334   3.562   9.447   5.101
  364WAT     H2 1335   3.593   9.414   4.944
  365WAT      O 1336   7.860   0.477   2.495
  365WAT     H1 1337   7.880   0.461   2.398
  365WAT     H2 1338   7.942   0.513   2.540
  366WAT      O 1339   8.598   4.765   8.196
  366WAT     H1 1340   8.594   4.809   8.106
  366WAT     H2 1341   8.591   4.666   8.184
  367WAT      O 1342   8.589   6.986   5.843
  367WAT     H1 1343   8.540   6.938   5.770
  367WAT     H2 1344   8.679   7.015   5.810
  368WAT      O 1345   6.124   9.426   9.636
  368WAT     H1 1346   6.177   9.503   9.670
  368WAT     H2 1347   6.185   9.349   9.615
  369WAT      O 1348   5.468   7.673   0.451
  369WAT     H1 1349   5.387   7.620   0.428
  369WAT     H2 1350   5.516   7.699   0.367
  370WAT      O 1351   3.243   1.115   7.172
  370WAT     H1 1352   3.245   1.204   7.127
  370WAT     H2 1353   3.269   1.044   7.107
  371WAT      O 1354   4.912   4.098   1.758
  371WAT     H1 1355   4.988   4.132   1.812
  371WAT     H2 1356   4.931   4.005   1.727
  372WAT      O 1357   6.815   6.513   6.464
  372WAT     H1 1358   6.824   6.542   6.368
  372WAT     H2 1359   6.862   6.578   6.523
  373WAT      O 1360   9.132   6.457   6.889
  373WAT     H1 1361   9.211   6.428   6.836
  373WAT     H2 1362   9.128   6.556   6.893
  374WAT      O 1363   5.168   2.714   0.481
  374WAT     H1 1364   5.091   2.688   0.540
  374WAT     H2 1365   5.241   2.752   0.537
  375WAT      O 1366   9.396   8.607   1.099
  375WAT     H1 1367   9.405   8.557   1.185
  375WAT     H2 1368   9.421   8.547   1.022
  376WAT      O 1369   4.473   2.145   2.492
  376WAT     H1 1370   4.493   2.143   2.590
  376WAT     H2 1371   4.407   2.073   2.470
  377WAT      O 1372   5.288   1.085   9.227
  377WAT     H1 1373   5.324   0.996   9.198
  377WAT     H2 1374   5.275   1.143   9.147
  378WAT      O 1375   0.035   2.004   0.429
  378WAT     H1 1376  -0.034   2.069   0.397
  378WAT     H2 1377   0.102   1.987   0.356
  379WAT      O 1378   6.610   2.416   1.119
  379WAT     H1 1379   6.631   2.325   1.154
  379WAT     H2 1380   6.680   2.443   1.052
  380WAT      O 1381   1.289   2.417   1.943
  380WAT     H1 1382   1.336   2.439   1.858
  380WAT     H2 1383   1.291   2.319   1.959
  381WAT      O 1384   0.771   8.664   8.283
  381WAT     H1 1385   0.867   8.661   8.310
  381WAT     H2 1386   0.748   8.582   8.232
  382WAT      O 1387   8.703   9.335   0.803
  382WAT     H1 1388   8.614   9.378   0.785
  382WAT     H2 1389   8.714   9.255   0.743
  383WAT      O 1390   7.492   7.614   9.416
  383WAT     H1 1391   7.414   7.667   9.448
  383WAT     H2 1392   7.522   7.551   9.488
  384WAT      O 1393   7.960   8.710   0.658
  384WAT     H1 1394   8.043   8.731   0.606
  384WAT     H2 1395   7.970   8.621   0.702
  385WAT      O 1396   5.558   7.566   6.292
  385WAT     H1 1397   5.484   7.614   6.340
  385WAT     H2 1398   5.531   7.549   6.197
  386WAT      O 1399   8.914   8.118   5.081
  386WAT     H1 1400   8.854   8.049   5.121
  386WAT     H2 1401   8.859   8.193   5.045
  387WAT      O 1402   1.608   0.024   1.031
  387WAT     H1 1403   1.551   0.105   1.017
  387WAT     H2 1404   1.596  -0.010   1.124
  388WAT      O 1405   2.672   7.959   4.052
  388WAT     H1 1406   2.576   7.930   4.046
  388WAT     H2 1407   2.699   8.001   3.965
  389WAT      O 1408   6.550   7.797   6.272
  389WAT     H1 1409   6.607   7.811   6.191
  389WAT     H2 1410   6.468   7.853   6.264
  390WAT      O 1411   9.520   0.042   4.648
  390WAT     H1 1412   9.618   0.039   4.664
  390WAT     H2 1413   9.485   0.133   4.669
  391WAT      O 1414   5.965   5.372   4.673
  391WAT     H1 1415   5.947   5.463   4.710
  391WAT     H2 1416   6.058   5.343   4.698
  392WAT      O 1417   7.947   2.774   1.994
  392WAT     H1 1418   7.974   2.865   1.962
  392WAT     H2 1419   7.849   2.760   1.979
  393WAT      O 1420   5.125   6.888   3.457
  393WAT     H1 1421   5.207   6.846   3.495
  393WAT     H2 1422   5.075   6.821   3.402
  394WAT      O 1423   7.698   5.716   2.163
  394WAT     H1 1424   7.669   5.762   2.247
  394WAT     H2 1425   7.795   5.733   2.147
  395WAT      O 1426   5.134   8.687   6.983
  395WAT     H1 1427   5.068   8.757   7.008
  395WAT     H2 1428   5.104   8.641   6.900
  396WAT      O 1429   9.007   3.350   8.700
  396WAT     H1 1430   9.097   3.382   8.671
  396WAT     H2 1431   8.997   3.363   8.799
  397WAT      O 1432   7.826   1.340   1.973
  397WAT     H1 1433   7.814   1.439   1.975
  397WAT     H2 1434   7.755   1.299   1.917
  398WAT      O 1435   6.351   9.641   8.977
  398WAT     H1 1436   6.383   9.736   8.981
  398WAT     H2 1437   6.295   9.629   8.895
  399WAT      O 1438   9.579   3.780   5.343
  399WAT     H1 1439   9.498   3.819   5.298
  399WAT     H2 1440   9.573   3.796   5.442
  400WAT      O 1441   1.810   3.922   2.083
  400WAT     H1 1442   1.812   3.910   2.182
  400WAT     H2 1443   1.779   3.837   2.040
  401WAT      O 1444   6.130   3.454   1.144
  401WAT     H1 1445   6.220   3.412   1.130
  401WAT     H2 1446   6.082   3.408   1.218
  402WAT      O 1447   3.049   5.449   8.363
  402WAT     H1 1448   3.135   5.400   8.352
  402WAT     H2 1449   3.066   5.535   8.411
  403WAT      O 1450   8.751   1.886   6.444
  403WAT     H1 1451   8.830   1.879   6.506
  403WAT     H2 1452   8.754   1.975   6.398
  404WAT      O 1453   6.330   5.781   4.191
  404WAT     H1 1454   6.319   5.730   4.276
  404WAT     H2 1455   6.424   5.774   4.160
  405WAT      O 1456   1.384   6.472   4.925
  405WAT     H1 1457   1.462   6.423   4.965
  405WAT     H2 1458   1.394   6.474   4.826
  406WAT      O 1459   5.693   0.019   3.669
  406WAT     H1 1460   5.643   0.039   3.754
  406WAT     H2 1461   5.699   0.102   3.614
  407WAT      O 1462   0.545   9.341   8.941
  407WAT     H1 1463   0.466   9.287   8.971
  407WAT     H2 1464   0.569   9.315   8.847
  408WAT      O 1465   8.554   5.070   0.851
  408WAT     H1 1466   8.626   5.050   0.784
  408WAT     H2 1467   8.585   5.042   0.942
  409WAT      O 1468   7.496   3.489   0.842
  409WAT     H1 1469   7.448   3.465   0.926
  409WAT     H2 1470   7.434   3.542   0.783
  410WAT      O 1471   3.793   4.889   5.698
  410WAT     H1 1472   3.743   4.803   5.711
  410WAT     H2 1473   3.867   4.875   5.632
  411WAT      O 1474   6.862   1.367   1.084
  411WAT     H1 1475   6.934   1.367   1.015
  411WAT     H2 1476   6.890   1.310   1.162
  412WAT      O 1477   0.185   6.895   8.401
  412WAT     H1 1478   0.208   6.936   8.489
  412WAT     H2 1479   0.269   6.868   8.353
  413WAT      O 1480   3.246   1.802   4.866
  413WAT     H1 1481   3.249   1.841   4.958
  413WAT     H2 1482   3.158   1.823   4.824
  414WAT      O 1483   8.777   8.143   9.163
  414WAT     H1 1484   8.839   8.218   9.137
  414WAT     H2 1485   8.754   8.089   9.082
  415WAT      O 1486   0.238   8.622   6.091
  415WAT     H1 1487   0.208   8.714   6.064
  415WAT     H2 1488   0.164   8.556   6.075
  416WAT      O 1489   6.054   2.805   1.981
  416WAT     H1 1490   6.002   2.779   2.063
  416WAT     H2 1491   6.108   2.726   1.950
  417WAT      O 1492   7.395   3.346   6.970
  417WAT     H1 1493   7.431   3.305   6.887
  417WAT     H2 1494   7.421   3.442   6.975
  418WAT      O 1495   8.071   4.996   9.387
  418WAT     H1 1496   8.116   5.084   9.372
  418WAT     H2 1497   8.110   4.953   9.468
  419WAT      O 1498   1.311   9.088   7.171
  419WAT     H1 1499   1.293   9.110   7.267
  419WAT     H2 1500   1.316   9.173   7.118
  420WAT      O 1501   0.712   2.538   6.137
  420WAT     H1 1502   0.744   2.562   6.228
  420WAT     H2 1503   0.634   2.476   6.143
  421WAT      O 1504   9.297   1.794   2.354
  421WAT     H1 1505   9.355   1.722   2.393
  421WAT     H2 1506   9.276   1.862   2.424
  422WAT      O 1507   7.746   7.373   6.482
  422WAT     H1 1508   7.779   7.329   6.399
  422WAT     H2 1509   7.756   7.311   6.559
  423WAT      O 1510   4.099   5.362   2.096
  423WAT     H1 1511   4.046   5.306   2.159
  423WAT     H2 1512   4.146   5.303   2.031
  424WAT      O 1513   1.092   9.786   3.310
  424WAT     H1 1514   1.028   9.711   3.294
  424WAT     H2 1515   1.123   9.823   3.222
  425WAT      O 1516   4.975   3.284   1.187
  425WAT     H1 1517   5.048   3.324   1.241
  425WAT     H2 1518   4.997   3.188   1.166
  426WAT      O 1519   4.893   1.200   4.496
  426WAT     H1 1520   4.907   1.102   4.483
  426WAT     H2 1521   4.868   1.218   4.591
  427WAT      O 1522   6.850   8.150   1.790
  427WAT     H1 1523   6.898   8.148   1.878
  427WAT     H2 1524   6.777   8.082   1.790
  428WAT      O 1525   9.177   5.731   9.371
  428WAT     H1 1526   9.103   5.785   9.411
  428WAT     H2 1527   9.250   5.793   9.341
  429WAT      O 1528   3.030   8.354   8.289
  429WAT     H1 1529   3.086   8.372   8.370
  429WAT     H2 1530   3.043   8.428   8.223
  430WAT      O 1531   0.424   1.309   1.872
  430WAT     H1 1532   0.459   1.362   1.795
  430WAT     H2 1533   0.458   1.215   1.867
  431WAT      O 1534   7.978   9.117   5.140
  431WAT     H1 1535   7.996   9.215   5.147
  431WAT     H2 1536   7.882   9.099   5.160
  432WAT      O 1537   4.751   5.907   4.689
  432WAT     H1 1538   4.730   5.811   4.670
  432WAT     H2 1539   4.675   5.965   4.657
  433WAT      O 1540   3.220   0.207   0.932
  433WAT     H1 1541   3.205   0.175   1.026
  433WAT     H2 1542   3.268   0.294   0.934
  434WAT      O 1543   6.683   0.916   8.780
  434WAT     H1 1544   6.593   0.931   8.738
  434WAT     H2 1545   6.697   0.818   8.795
  435WAT      O 1546   1.505   7.314   0.615
  435WAT     H1 1547   1.444   7.319   0.695
  435WAT     H2 1548   1.472   7.242   0.553
  436WAT      O 1549   6.998   2.751   3.332
  436WAT     H1 1550   7.057   2.682   3.291
  436WAT     H2 1551   7.030   2.842   3.305
  437WAT      O 1552   4.383   1.833   2.712
  437WAT     H1 1553   4.323   1.868   2.640
  437WAT     H2 1554   4.431   1.752   2.679
  438WAT      O 1555   3.175   9.544   1.207
  438WAT     H1 1556   3.157   9.482   1.131
  438WAT     H2 1557   3.114   9.623   1.200
  439WAT      O 1558   8.127   4.621   4.564
  439WAT     H1 1559   8.223   4.621   4.535
  439WAT     H2 1560   8.111   4.700   4.624
  440WAT      O 1561   2.665   8.765   4.510
  440WAT     H1 1562   2.652   8.722   4.421
  440WAT     H2 1563   2.581   8.757   4.564
  441WAT      O 1564   2.890   2.501   6.415
  441WAT     H1 1565   2.972   2.466   6.370
  441WAT     H2 1566   2.915   2.546   6.500
  442WAT      O 1567   5.714   2.767   6.231
  442WAT     H1 1568   5.790   2.734   6.286
  442WAT     H2 1569   5.728   2.740   6.135
  443WAT      O 1570   4.794   4.030   9.844
  443WAT     H1 1571   4.846   3.947   9.824
  443WAT     H2 1572   4.817   4.100   9.776
  444WAT      O 1573   4.161   4.775   0.020
  444WAT     H1 1574   4.188   4.839  -0.052
  444WAT     H2 1575   4.121   4.826   0.096
  445WAT      O 1576   5.057   3.154   4.396
  445WAT     H1 1577   5.113   3.072   4.407
  445WAT     H2 1578   4.968   3.139   4.438
  446WAT      O 1579   3.685   5.911   4.420
  446WAT     H1 1580   3.673   5.930   4.518
  446WAT     H2 1581   3.605   5.861   4.386
  447WAT      O 1582   2.716   1.428   7.723
  447WAT     H1 1583   2.684   1.518   7.755
  447WAT     H2 1584   2.666   1.402   7.640
  448WAT      O 1585   7.969   8.609   4.537
  448WAT     H1 1586   7.901   8.621   4.465
  448WAT     H2 1587   8.060   8.607   4.497
  449WAT      O 1588   6.188   4.970   2.151
  449WAT     H1 1589   6.186   5.070   2.148
  449WAT     H2 1590   6.170   4.938   2.244
  450WAT      O 1591   8.677   7.972   6.965
  450WAT     H1 1592   8.593   7.920   6.979
  450WAT     H2 1593   8.751   7.909   6.938
  451WAT      O 1594   8.190   4.639   8.428
  451WAT     H1 1595   8.222   4.696   8.504
  451WAT     H2 1596   8.155   4.698   8.355
  452WAT      O 1597   8.588   4.077   4.412
  452WAT     H1 1598   8.623   3.993   4.371
  452WAT     H2 1599   8.576   4.063   4.511
  453WAT      O 1600   2.325   0.410   3.943
  453WAT     H1 1601   2.290   0.431   3.851
  453WAT     H2 1602   2.279   0.468   4.010
  454WAT      O 1603   8.294   8.674   0.006
  454WAT     H1 1604   8.302   8.664  -0.093
  454WAT     H2 1605   8.356   8.610   0.051
  455WAT      O 1606   2.866   6.721   5.772
  455WAT     H1 1607   2.828   6.719   5.864
  455WAT     H2 1608   2.812   6.781   5.714
  456WAT      O 1609   6.744   6.788   7.139
  456WAT     H1 1610   6.751   6.691   7.163
  456WAT     H2 1611   6.747   6.798   7.040
  457WAT      O 1612   1.582   0.918   7.292
  457WAT     H1 1613   1.653   0.987   7.281
  457WAT     H2 1614   1.517   0.949   7.363
  458WAT      O 1615   0.514   7.436   3.065
  458WAT     H1 1616   0.587   7.401   3.124
  458WAT     H2 1617   0.482   7.524   3.100
  459WAT      O 1618   0.535   7.331   1.064
  459WAT     H1 1619   0.550   7.241   1.023
  459WAT     H2 1620   0.511   7.319   1.161
  460WAT      O 1621   1.966   5.577   1.437
  460WAT     H1 1622   2.037   5.639   1.469
  460WAT     H2 1623   1.892   5.572   1.504
  461WAT      O 1624   6.538   4.504   4.655
  461WAT     H1 1625   6.505   4.466   4.569
  461WAT     H2 1626   6.474   4.483   4.728
  462WAT      O 1627   2.745   1.457   0.828
  462WAT     H1 1628   2.804   1.519   0.881
  462WAT     H2 1629   2.653   1.495   0.823
  463WAT      O 1630   8.138   0.502   6.862
  463WAT     H1 1631   8.182   0.525   6.775
  463WAT     H2 1632   8.176   0.559   6.935
  464WAT      O 1633   7.531   5.665   7.974
  464WAT     H1 1634   7.519   5.717   7.889
  464WAT     H2 1635   7.507   5.569   7.958
  465WAT      O 1636   5.426   3.698   9.499
  465WAT     H1 1637   5.348   3.714   9.561
  465WAT     H2 1638   5.503   3.661   9.552
  466WAT      O 1639   8.638   4.670   7.674
  466WAT     H1 1640   8.692   4.742   7.630
  466WAT     H2 1641   8.696   4.618   7.736
  467WAT      O 1642   5.060   5.304   8.566
  467WAT     H1 1643   5.014   5.219   8.590
  467WAT     H2 1644   5.158   5.293   8.578
  468WAT      O 1645   6.781   2.911   6.682
  468WAT     H1 1646   6.874   2.898   6.716
  468WAT     H2 1647   6.784   2.930   6.584
  469WAT      O 1648   5.139   1.073   2.747
  469WAT     H1 1649   5.187   0.986   2.748
  469WAT     H2 1650   5.154   1.119   2.660
  470WAT      O 1651   7.057   6.565   1.883
  470WAT     H1 1652   6.967   6.526   1.864
  470WAT     H2 1653   7.055   6.664   1.870
  471WAT      O 1654   3.455   0.032   1.357
  471WAT     H1 1655   3.494   0.091   1.287
  471WAT     H2 1656   3.476  -0.064   1.335
  472WAT      O 1657   0.549   1.749   4.230
  472WAT     H1 1658   0.603   1.833   4.238
  472WAT     H2 1659   0.490   1.739   4.311
  473WAT      O 1660   1.646   1.828   9.109
  473WAT     H1 1661   1.598   1.895   9.051
  473WAT     H2 1662   1.587   1.749   9.123
  474WAT      O 1663   9.220   3.151   7.007
  474WAT     H1 1664   9.312   3.123   7.032
  474WAT     H2 1665   9.198   3.117   6.916
  475WAT      O 1666   0.826   2.029   1.907
  475WAT     H1 1667   0.860   1.982   1.989
  475WAT     H2 1668   0.847   2.126   1.914
  476WAT      O 1669   2.694   8.085   5.674
  476WAT     H1 1670   2.789   8.074   5.705
  476WAT     H2 1671   2.633   8.077   5.753
  477WAT      O 1672   1.070   5.146   4.293
  477WAT     H1 1673   1.118   5.072   4.340
  477WAT     H2 1674   1.014   5.197   4.359
  478WAT      O 1675   1.690   2.974   2.306
  478WAT     H1 1676   1.730   2.905   2.367
  478WAT     H2 1677   1.748   2.984   2.225
  479WAT      O 1678   1.399   1.610   3.419
  479WAT     H1 1679   1.423   1.518   3.387
  479WAT     H2 1680   1.434   1.622   3.512
  480WAT      O 1681   5.750   3.253   4.637
  480WAT     H1 1682   5.671   3.307   4.609
  480WAT     H2 1683   5.720   3.178   4.696
  481WAT      O 1684   9.467   0.100   2.340
  481WAT     H1 1685   9.542   0.074   2.401
  481WAT     H2 1686   9.392   0.138   2.394
  482WAT      O 1687   0.692   8.058   8.884
  482WAT     H1 1688   0.592   8.053   8.890
  482WAT     H2 1689   0.728   8.099   8.968
  483WAT      O 1690   4.371   3.748   7.088
  483WAT     H1 1691   4.278   3.778   7.068
  483WAT     H2 1692   4.435   3.823   7.071
  484WAT      O 1693   5.696   3.149   6.422
  484WAT     H1 1694   5.659   3.106   6.339
  484WAT     H2 1695   5.652   3.238   6.436
  485WAT      O 1696   0.979   0.383   1.442
  485WAT     H1 1697   1.042   0.316   1.403
  485WAT     H2 1698   0.954   0.354   1.535
  486WAT      O 1699   4.764   1.524   3.191
  486WAT     H1 1700   4.701   1.529   3.114
  486WAT     H2 1701   4.841   1.586   3.176
  487WAT      O 1702   2.809   7.937   4.892
  487WAT     H1 1703   2.845   7.886   4.815
  487WAT     H2 1704   2.711   7.952   4.880
  488WAT      O 1705   1.304   0.185   1.890
  488WAT     H1 1706   1.221   0.129   1.888
  488WAT     H2 1707   1.377   0.139   1.839
  489WAT      O 1708   1.854   0.685   8.813
  489WAT     H1 1709   1.896   0.758   8.760
  489WAT     H2 1710   1.756   0.703   8.823
  490WAT      O 1711   8.033   5.343   8.277
  490WAT     H1 1712   7.967   5.320   8.206
  490WAT     H2 1713   8.084   5.425   8.250
  491WAT      O 1714   3.659   6.184   5.451
  491WAT     H1 1715   3.709   6.226   5.375
  491WAT     H2 1716   3.570   6.229   5.460
  492WAT      O 1717   8.254   0.288   9.377
  492WAT     H1 1718   8.263   0.387   9.379
  492WAT     H2 1719   8.197   0.262   9.299
  493WAT      O 1720   1.649   4.313   9.388
  493WAT     H1 1721   1.660   4.235   9.326
  493WAT     H2 1722   1.697   4.392   9.351
  494WAT      O 1723   0.053   5.167   8.611
  494WAT     H1 1724  -0.045   5.175   8.626
  494WAT     H2 1725   0.075   5.072   8.586
  495WAT      O 1726   5.494   8.722   6.756
  495WAT     H1 1727   5.415   8.781   6.735
  495WAT     H2 1728   5.471   8.664   6.834
  496WAT      O 1729   6.847   7.071   0.698
  496WAT     H1 1730   6.748   7.058   0.689
  496WAT     H2 1731   6.879   7.135   0.628
  497WAT      O 1732   0.467   1.483   2.679
  497WAT     H1 1733   0.497   1.389   2.695
  497WAT     H2 1734   0.543   1.536   2.642
  498WAT      O 1735   1.870   2.045   9.854
  498WAT     H1 1736   1.953   2.016   9.806
  498WAT     H2 1737   1.872   2.011   9.948
  499WAT      O 1738   1.625   9.370   3.846
  499WAT     H1 1739   1.617   9.338   3.752
  499WAT     H2 1740   1.718   9.405   3.861
  500WAT      O 1741   4.810   4.078   5.153
  500WAT     H1 1742   4.854   4.020   5.084
  500WAT     H2 1743   4.713   4.086   5.132
  501WAT      O 1744   8.614   4.993   9.611
  501WAT     H1 1745   8.640   5.084   9.581
  501WAT     H2 1746   8.662   4.924   9.558
  502WAT      O 1747   3.988   9.524   6.985
  502WAT     H1 1748   3.921   9.599   6.985
  502WAT     H2 1749   3.941   9.436   6.980
  503WAT      O 1750   8.348   6.109   1.502
  503WAT     H1 1751   8.286   6.089   1.577
  503WAT     H2 1752   8.325   6.198   1.463
  504WAT      O 1753   4.387   8.647   4.775
  504WAT     H1 1754   4.342   8.736   4.765
  504WAT     H2 1755   4.319   8.577   4.794
  505WAT      O 1756   6.893   9.482   1.509
  505WAT     H1 1757   6.899   9.460   1.412
  505WAT     H2 1758   6.866   9.578   1.519
  506WAT      O 1759   4.775   7.840   2.530
  506WAT     H1 1760   4.718   7.904   2.479
  506WAT     H2 1761   4.799   7.879   2.619
  507WAT      O 1762   2.869   9.094   3.297
  507WAT     H1 1763   2.969   9.101   3.306
  507WAT     H2 1764   2.833   9.178   3.257
  508WAT      O 1765   9.381   0.212   6.635
  508WAT     H1 1766   9.398   0.117   6.661
  508WAT     H2 1767   9.301   0.246   6.685
  509WAT      O 1768   8.402   7.184   7.757
  509WAT     H1 1769   8.458   7.178   7.840
  509WAT     H2 1770   8.416   7.102   7.702
  510WAT      O 1771   8.973   5.090   3.973
  510WAT     H1 1772   8.942   4.997   3.952
  510WAT     H2 1773   8.973   5.145   3.890
  511WAT      O 1774   3.987   9.358   5.645
  511WAT     H1 1775   3.992   9.291   5.571
  511WAT     H2 1776   4.013   9.314   5.731
  512WAT      O 1777   4.054   3.722   2.627
  512WAT     H1 1778   4.106   3.653   2.576
  512WAT     H2 1779   4.001   3.778   2.563
  513WAT      O 1780   7.421   2.114   7.797
  513WAT     H1 1781   7.442   2.019   7.824
  513WAT     H2 1782   7.325   2.133   7.813
  514WAT      O 1783   6.755   6.994   5.541
  514WAT     H1 1784   6.750   7.093   5.544
  514WAT     H2 1785   6.808   6.965   5.461
  515WAT      O 1786   6.769   1.181   0.499
  515WAT     H1 1787   6.827   1.248   0.453
  515WAT     H2 1788   6.825   1.124   0.559
  516WAT      O 1789   0.301   4.812   1.088
  516WAT     H1 1790   0.324   4.733   1.144
  516WAT     H2 1791   0.374   4.879   1.092
  517WAT      O 1792   0.740   5.914   0.584
  517WAT     H1 1793   0.766   5.881   0.493
  517WAT     H2 1794   0.692   5.842   0.634
  518WAT      O 1795   7.937   6.782   6.093
  518WAT     H1 1796   7.929   6.755   5.997
  518WAT     H2 1797   7.865   6.740   6.146
  519WAT      O 1798   5.992   4.992   7.454
  519WAT     H1 1799   5.950   5.028   7.538
  519WAT     H2 1800   6.075   5.044   7.434
  520WAT      O 1801   1.436   2.892   6.695
  520WAT     H1 1802   1.529   2.924   6.681
  520WAT     H2 1803   1.436   2.815   6.759
  521WAT      O 1804   5.473   8.093   0.037
  521WAT     H1 1805   5.564   8.097   0.079
  521WAT     H2 1806   5.405   8.074   0.108
  522WAT      O 1807   6.181   6.664   6.953
  522WAT     H1 1808   6.123   6.722   7.011
  522WAT     H2 1809   6.274   6.699   6.953
  523WAT      O 1810   0.393   0.380   4.068
  523WAT     H1 1811   0.322   0.357   4.135
  523WAT     H2 1812   0.483   0.374   4.111
  524WAT      O 1813   0.945   2.307   9.185
  524WAT     H1 1814   1.002   2.390   9.188
  524WAT     H2 1815   0.869   2.316   9.250
  525WAT      O 1816   6.692   5.743   0.081
  525WAT     H1 1817   6.705   5.758  -0.017
  525WAT     H2 1818   6.658   5.650   0.096
  526WAT      O 1819   4.368   0.268   1.636
  526WAT     H1 1820   4.449   0.324   1.621
  526WAT     H2 1821   4.396   0.176   1.663
  527WAT      O 1822   6.108   0.962   8.719
  527WAT     H1 1823   6.108   1.058   8.748
  527WAT     H2 1824   6.031   0.947   8.656
  528WAT      O 1825   1.838   7.330   7.946
  528WAT     H1 1826   1.871   7.240   7.973
  528WAT     H2 1827   1.830   7.335   7.847
  529WAT      O 1828   2.354   7.010   4.092
  529WAT     H1 1829   2.370   6.973   4.000
  529WAT     H2 1830   2.276   6.964   4.134
  530WAT      O 1831   6.555   1.592   9.492
  530WAT     H1 1832   6.566   1.653   9.571
  530WAT     H2 1833   6.461   1.557   9.489
  531WAT      O 1834   2.454   1.589   5.845
  531WAT     H1 1835   2.525   1.600   5.775
  531WAT     H2 1836   2.446   1.492   5.868
  532WAT      O 1837   0.805   0.750   9.496
  532WAT     H1 1838   0.786   0.654   9.518
  532WAT     H2 1839   0.780   0.769   9.401
  533WAT      O 1840   5.581   1.837   8.645
  533WAT     H1 1841   5.658   1.791   8.687
  533WAT     H2 1842   5.609   1.875   8.556
  534WAT      O 1843   5.327   4.226   2.868
  534WAT     H1 1844   5.426   4.219   2.861
  534WAT     H2 1845   5.285   4.177   2.792
  535WAT      O 1846   0.608   4.857   4.111
  535WAT     H1 1847   0.570   4.781   4.164
  535WAT     H2 1848   0.541   4.930   4.103
  536WAT      O 1849   8.171   5.270   4.896
  536WAT     H1 1850   8.150   5.341   4.963
  536WAT     H2 1851   8.100   5.200   4.899
  537WAT      O 1852   1.053   1.360   8.602
  537WAT     H1 1853   1.090   1.268   8.618
  537WAT     H2 1854   0.960   1.366   8.639
  538WAT      O 1855   5.047   3.343   2.490
  538WAT     H1 1856   5.008   3.252   2.473
  538WAT     H2 1857   5.143   3.334   2.515
  539WAT      O 1858   2.839   2.931   5.446
  539WAT     H1 1859   2.760   2.956   5.389
  539WAT     H2 1860   2.868   2.838   5.423
  540WAT      O 1861   1.571   5.609   9.289
  540WAT     H1 1862   1.640   5.606   9.217
  540WAT     H2 1863   1.523   5.521   9.292
  541WAT      O 1864   7.874   1.415   0.335
  541WAT     H1 1865   7.935   1.450   0.264
  541WAT     H2 1866   7.922   1.347   0.390
  542WAT      O 1867   9.682   6.706   3.085
  542WAT     H1 1868   9.627   6.763   3.147
  542WAT     H2 1869   9.675   6.611   3.113
  543WAT      O 1870   1.120   9.616   2.530
  543WAT     H1 1871   1.161   9.621   2.621
  543WAT     H2 1872   1.106   9.708   2.494
  544WAT      O 1873   9.837   9.388   1.293
  544WAT     H1 1874   9.846   9.416   1.388
  544WAT     H2 1875   9.927   9.362   1.257
  545WAT      O 1876   9.493   4.752   0.430
  545WAT     H1 1877   9.408   4.795   0.397
  545WAT     H2 1878   9.470   4.674   0.488
  546WAT      O 1879   6.811   6.152   7.087
  546WAT     H1 1880   6.847   6.137   7.179
  546WAT     H2 1881   6.714   6.128   7.085
  547WAT      O 1882   0.481   3.417   0.294
  547WAT     H1 1883   0.398   3.404   0.349
  547WAT     H2 1884   0.461   3.480   0.219
  548WAT      O 1885   6.077   6.162   8.769
  548WAT     H1 1886   6.012   6.203   8.705
  548WAT     H2 1887   6.125   6.234   8.818
  549WAT      O 1888   6.355   6.822   7.778
  549WAT     H1 1889   6.317   6.907   7.814
  549WAT     H2 1890   6.370   6.830   7.680
  550WAT      O 1891   2.824   8.250   1.872
  550WAT     H1 1892   2.822   8.184   1.947
  550WAT     H2 1893   2.766   8.329   1.895
  551WAT      O 1894   1.774   7.242   5.490
  551WAT     H1 1895   1.872   7.229   5.472
  551WAT     H2 1896   1.757   7.337   5.514
  552WAT      O 1897   4.248   1.661   2.143
  552WAT     H1 1898   4.321   1.662   2.211
  552WAT     H2 1899   4.164   1.627   2.184
  553WAT      O 1900   0.097   0.837   9.887
  553WAT     H1 1901   0.029   0.793   9.828
  553WAT     H2 1902   0.051   0.887   9.960
  554WAT      O 1903   0.672   8.051   4.149
  554WAT     H1 1904   0.762   8.035   4.191
  554WAT     H2 1905   0.679   8.038   4.050
  555WAT      O 1906   9.733   0.724   7.746
  555WAT     H1 1907   9.820   0.731   7.795
  555WAT     H2 1908   9.675   0.802   7.769
  556WAT      O 1909   7.715   0.384   3.792
  556WAT     H1 1910   7.792   0.397   3.855
  556WAT     H2 1911   7.673   0.294   3.808
  557WAT      O 1912   5.321   5.806   6.471
  557WAT     H1 1913   5.265   5.801   6.388
  557WAT     H2 1914   5.395   5.871   6.457
  558WAT      O 1915   5.596   4.294   2.797
  558WAT     H1 1916   5.627   4.358   2.867
  558WAT     H2 1917   5.546   4.343   2.725
  559WAT      O 1918   3.654   5.135   2.726
  559WAT     H1 1919   3.578   5.079   2.757
  559WAT     H2 1920   3.629   5.232   2.730
  560WAT      O 1921   5.485   1.972   3.118
  560WAT     H1 1922   5.527   1.936   3.201
  560WAT     H2 1923   5.407   2.029   3.142
  561WAT      O 1924   8.508   2.968   9.668
  561WAT     H1 1925   8.438   2.973   9.740
  561WAT     H2 1926   8.482   3.029   9.593
  562WAT      O 1927   9.373   6.537   6.015
  562WAT     H1 1928   9.386   6.635   6.001
  562WAT     H2 1929   9.298   6.522   6.079
  563WAT      O 1930   8.645   8.100   1.423
  563WAT     H1 1931   8.732   8.096   1.472
  563WAT     H2 1932   8.587   8.172   1.461
  564WAT      O 1933   1.527   4.134   2.257
  564WAT     H1 1934   1.512   4.118   2.160
  564WAT     H2 1935   1.456   4.089   2.311
  565WAT      O 1936   7.045   1.940   3.163
  565WAT     H1 1937   6.977   1.890   3.215
  565WAT     H2 1938   7.008   2.030   3.139
  566WAT      O 1939   4.322   9.282   1.307
  566WAT     H1 1940   4.396   9.346   1.325
  566WAT     H2 1941   4.239   9.312   1.353
  567WAT      O 1942   4.981   1.315   6.311
  567WAT     H1 1943   4.917   1.339   6.384
  567WAT     H2 1944   4.935   1.323   6.222
  568WAT      O 1945   9.630   8.792   9.630
  568WAT     H1 1946   9.623   8.766   9.534
  568WAT     H2 1947   9.563   8.739   9.683
  569WAT      O 1948   4.939   3.579   0.086
  569WAT     H1 1949   4.964   3.513   0.015
  569WAT     H2 1950   4.971   3.547   0.175
  570WAT      O 1951   1.274   3.262   6.463
  570WAT     H1 1952   1.353   3.202   6.466
  570WAT     H2 1953   1.221   3.252   6.547
  571WAT      O 1954   3.704   1.580   4.720
  571WAT     H1 1955   3.645   1.645   4.768
  571WAT     H2 1956   3.714   1.610   4.624
  572WAT      O 1957   7.194   8.714   2.535
  572WAT     H1 1958   7.170   8.791   2.474
  572WAT     H2 1959   7.132   8.638   2.518
  573WAT      O 1960   7.902   1.301   7.461
  573WAT     H1 1961   7.912   1.204   7.441
  573WAT     H2 1962   7.810   1.319   7.498
  574WAT      O 1963   0.194   5.314   3.444
  574WAT     H1 1964   0.164   5.312   3.540
  574WAT     H2 1965   0.139   5.250   3.391
  575WAT      O 1966   0.401   8.813   5.594
  575WAT     H1 1967   0.456   8.782   5.672
  575WAT     H2 1968   0.450   8.886   5.546
  576WAT      O 1969   4.839   5.726   3.124
  576WAT     H1 1970   4.797   5.803   3.172
  576WAT     H2 1971   4.811   5.728   3.027
  577WAT      O 1972   6.047   8.580   7.495
  577WAT     H1 1973   6.108   8.507   7.463
  577WAT     H2 1974   5.956   8.566   7.457
  578WAT      O 1975   9.724   0.811   8.793
  578WAT     H1 1976   9.814   0.848   8.770
  578WAT     H2 1977   9.674   0.877   8.849
  579WAT      O 1978   9.632   2.098   1.021
  579WAT     H1 1979   9.605   2.189   0.991
  579WAT     H2 1980   9.555   2.052   1.065
  580WAT      O 1981   3.251   1.295   1.859
  580WAT     H1 1982   3.158   1.304   1.822
  580WAT     H2 1983   3.310   1.254   1.789
  581WAT      O 1984   5.955   1.297   8.405
  581WAT     H1 1985   5.942   1.298   8.504
  581WAT     H2 1986   6.032   1.238   8.382
  582WAT      O 1987   3.329   3.556   0.919
  582WAT     H1 1988   3.232   3.548   0.942
  582WAT     H2 1989   3.385   3.530   0.998
  583WAT      O 1990   1.417   8.659   7.936
  583WAT     H1 1991   1.444   8.720   8.011
  583WAT     H2 1992   1.487   8.661   7.865
  584WAT      O 1993   8.600   2.504   4.530
  584WAT     H1 1994   8.511   2.522   4.573
  584WAT     H2 1995   8.608   2.407   4.508
  585WAT      O 1996   8.426   7.037   8.761
  585WAT     H1 1997   8.387   7.104   8.697
  585WAT     H2 1998   8.407   6.945   8.728
  586WAT      O 1999   5.012   7.931   8.870
  586WAT     H1 2000   5.002   7.962   8.776
  586WAT     H2 2001   5.019   8.009   8.931
  587WAT      O 2002   1.873   3.459   6.561
  587WAT     H1 2003   1.848   3.381   6.618
  587WAT     H2 2004   1.815   3.538   6.583
  588WAT      O 2005   5.293   0.363   5.267
  588WAT     H1 2006   5.329   0.391   5.177
  588WAT     H2 2007   5.369   0.357   5.332
  589WAT      O 2008   2.766   3.118   9.690
  589WAT     H1 2009   2.671   3.102   9.664
  589WAT     H2 2010   2.770   3.189   9.760
  590WAT      O 2011   3.387   3.005   8.906
  590WAT     H1 2012   3.439   3.072   8.959
  590WAT     H2 2013   3.289   3.026   8.912
  591WAT      O 2014   7.199   1.381   0.149
  591WAT     H1 2015   7.249   1.397   0.064
  591WAT     H2 2016   7.241   1.306   0.200
  592WAT      O 2017   2.785   3.620   9.657
  592WAT     H1 2018   2.720   3.544   9.651
  592WAT     H2 2019   2.745   3.701   9.614
  593WAT      O 2020   4.368   0.734   1.745
  593WAT     H1 2021   4.323   0.729   1.655
  593WAT     H2 2022   4.306   0.700   1.815
  594WAT      O 2023   4.206   8.798   2.498
  594WAT     H1 2024   4.285   8.792   2.436
  594WAT     H2 2025   4.235   8.772   2.590
  595WAT      O 2026   7.782   7.759   7.772
  595WAT     H1 2027   7.863   7.806   7.807
  595WAT     H2 2028   7.700   7.807   7.800
  596WAT      O 2029   8.655   3.246   1.153
  596WAT     H1 2030   8.602   3.193   1.087
  596WAT     H2 2031   8.731   3.191   1.188
  597WAT      O 2032   8.884   5.958   3.578
  597WAT     H1 2033   8.922   5.898   3.648
  597WAT     H2 2034   8.913   5.926   3.487
  598WAT      O 2035   9.562   9.160   5.691
  598WAT     H1 2036   9.594   9.155   5.785
  598WAT     H2 2037   9.510   9.078   5.669
  599WAT      O 2038   3.551   3.400   6.041
  599WAT     H1 2039   3.505   3.488   6.049
  599WAT     H2 2040   3.614   3.403   5.963
  600WAT      O 2041   7.225   1.828   5.658
  600WAT     H1 2042   7.174   1.783   5.732
  600WAT     H2 2043   7.160   1.866   5.592
  601WAT      O 2044   9.139   2.360   0.568
  601WAT     H1 2045   9.226   2.358   0.617
  601WAT     H2 2046   9.155   2.391   0.474
  602WAT      O 2047   7.060   2.550   9.623
  602WAT     H1 2048   7.120   2.482   9.581
  602WAT     H2 2049   6.965   2.527   9.603
  603WAT      O 2050   6.521   8.829   3.017
  603WAT     H1 2051   6.499   8.926   3.017
  603WAT     H2 2052   6.451   8.779   3.068
  604WAT      O 2053   0.316   5.765   9.441
  604WAT     H1 2054   0.234   5.791   9.492
  604WAT     H2 2055   0.393   5.758   9.504
  605WAT      O 2056   7.971   8.278   6.688
  605WAT     H1 2057   7.956   8.181   6.672
  605WAT     H2 2058   7.906   8.332   6.633
  606WAT      O 2059   5.711   9.767   6.930
  606WAT     H1 2060   5.644   9.720   6.987
  606WAT     H2 2061   5.727   9.714   6.847
  607WAT      O 2062   0.227   7.746   8.326
  607WAT     H1 2063   0.159   7.685   8.287
  607WAT     H2 2064   0.317   7.727   8.286
  608WAT      O 2065   0.727   3.221   8.227
  608WAT     H1 2066   0.807   3.273   8.254
  608WAT     H2 2067   0.753   3.126   8.208
  609WAT      O 2068   8.096   0.225   6.185
  609WAT     H1 2069   8.095   0.215   6.085
  609WAT     H2 2070   8.095   0.134   6.227
  610WAT      O 2071   3.116   6.239   6.257
  610WAT     H1 2072   3.194   6.294   6.286
  610WAT     H2 2073   3.091   6.177   6.331
  611WAT      O 2074   3.922   8.996   8.690
  611WAT     H1 2075   3.889   9.082   8.652
  611WAT     H2 2076   3.998   8.962   8.635
  612WAT      O 2077   2.125   9.608   0.729
  612WAT     H1 2078   2.062   9.530   0.737
  612WAT     H2 2079   2.162   9.630   0.819
  613WAT      O 2080   9.710   6.164   8.992
  613WAT     H1 2081   9.799   6.132   9.024
  613WAT     H2 2082   9.649   6.178   9.071
  614WAT      O 2083   1.612   4.039   5.912
  614WAT     H1 2084   1.649   4.119   5.957
  614WAT     H2 2085   1.512   4.044   5.911
  615WAT      O 2086   9.121   4.719   0.080
  615WAT     H1 2087   9.068   4.711  -0.004
  615WAT     H2 2088   9.158   4.812   0.088
  616WAT      O 2089   1.023   4.740   7.904
  616WAT     H1 2090   1.047   4.668   7.969
  616WAT     H2 2091   0.992   4.821   7.953
  617WAT      O 2092   4.002   6.353   8.074
  617WAT     H1 2093   4.077   6.370   8.137
  617WAT     H2 2094   3.915   6.353   8.125
  618WAT      O 2095   1.390   4.651   7.366
  618WAT     H1 2096   1.299   4.692   7.362
  618WAT     H2 2097   1.444   4.697   7.436
  619WAT      O 2098   6.188   0.619   3.251
  619WAT     H1 2099   6.135   0.689   3.299
  619WAT     H2 2100   6.160   0.617   3.155
  620WAT      O 2101   2.876   8.879   3.107
  620WAT     H1 2102   2.960   8.834   3.138
  620WAT     H2 2103   2.865   8.966   3.155
  621WAT      O 2104   4.592   9.511   2.455
  621WAT     H1 2105   4.584   9.482   2.360
  621WAT     H2 2106   4.614   9.609   2.459
  622WAT      O 2107   2.949   3.354   4.059
  622WAT     H1 2108   2.867   3.364   4.116
  622WAT     H2 2109   2.987   3.444   4.038
  623WAT      O 2110   3.157   1.410   3.743
  623WAT     H1 2111   3.100   1.452   3.672
  623WAT     H2 2112   3.105   1.338   3.789
  624WAT      O 2113   8.052   2.395   4.176
  624WAT     H1 2114   8.038   2.323   4.108
  624WAT     H2 2115   7.968   2.446   4.189
  625WAT      O 2116   8.947   5.727   4.437
  625WAT     H1 2117   9.004   5.678   4.503
  625WAT     H2 2118   9.004   5.760   4.361
  626WAT      O 2119   3.840   6.772   5.890
  626WAT     H1 2120   3.777   6.695   5.883
  626WAT     H2 2121   3.789   6.858   5.879
  627WAT      O 2122   1.475   2.933   5.013
  627WAT     H1 2123   1.423   2.848   5.007
  627WAT     H2 2124   1.413   3.009   5.031
  628WAT      O 2125   8.315   0.249   1.794
  628WAT     H1 2126   8.364   0.231   1.879
  628WAT     H2 2127   8.348   0.187   1.723
  629WAT      O 2128   9.740   6.587   1.491
  629WAT     H1 2129   9.686   6.595   1.407
  629WAT     H2 2130   9.732   6.672   1.543
  630WAT      O 2131   1.212   6.289   5.158
  630WAT     H1 2132   1.138   6.286   5.091
  630WAT     H2 2133   1.290   6.235   5.124
  631WAT      O 2134   2.174   1.088   8.199
  631WAT     H1 2135   2.098   1.065   8.260
  631WAT     H2 2136   2.222   1.004   8.172
  632WAT      O 2137   8.359   1.538   9.309
  632WAT     H1 2138   8.272   1.490   9.318
  632WAT     H2 2139   8.344   1.625   9.261
  633WAT      O 2140   2.188   7.759   3.009
  633WAT     H1 2141   2.284   7.786   3.003
  633WAT     H2 2142   2.159   7.720   2.921
  634WAT      O 2143   5.697   7.428   1.284
  634WAT     H1 2144   5.654   7.483   1.213
  634WAT     H2 2145   5.791   7.407   1.256
  635WAT      O 2146   3.306   9.778   9.641
  635WAT     H1 2147   3.359   9.773   9.726
  635WAT     H2 2148   3.305   9.688   9.597
  636WAT      O 2149   2.962   7.289   3.293
  636WAT     H1 2150   3.040   7.227   3.281
  636WAT     H2 2151   2.884   7.237   3.329
  637WAT      O 2152   3.477   0.291   4.084
  637WAT     H1 2153   3.385   0.252   4.078
  637WAT     H2 2154   3.502   0.303   4.180
  638WAT      O 2155   3.661   8.568   3.275
  638WAT     H1 2156   3.595   8.641   3.258
  638WAT     H2 2157   3.704   8.582   3.364
  639WAT      O 2158   6.442   3.535   4.602
  639WAT     H1 2159   6.494   3.509   4.521
  639WAT     H2 2160   6.347   3.556   4.576
  640WAT      O 2161   0.715   5.399   3.637
  640WAT     H1 2162   0.803   5.378   3.593
  640WAT     H2 2163   0.643   5.401   3.568
  641WAT      O 2164   1.072   7.627   4.714
  641WAT     H1 2165   1.096   7.716   4.675
  641WAT     H2 2166   1.059   7.561   4.640
  642WAT      O 2167   9.119   8.399   1.284
  642WAT     H1 2168   9.106   8.443   1.373
  642WAT     H2 2169   9.213   8.414   1.253
  643WAT      O 2170   6.581   8.159   9.090
  643WAT     H1 2171   6.675   8.137   9.065
  643WAT     H2 2172   6.522   8.081   9.069
  644WAT      O 2173   9.461   3.101   5.066
  644WAT     H1 2174   9.400   3.026   5.095
  644WAT     H2 2175   9.529   3.117   5.137
  645WAT      O 2176   1.310   7.221   1.376
  645WAT     H1 2177   1.259   7.211   1.462
  645WAT     H2 2178   1.281   7.149   1.313
  646WAT      O 2179   5.537   9.359   6.758
  646WAT     H1 2180   5.533   9.319   6.850
  646WAT     H2 2181   5.584   9.447   6.762
  647WAT      O 2182   1.150   8.493   3.503
  647WAT     H1 2183   1.230   8.550   3.519
  647WAT     H2 2184   1.148   8.420   3.571
  648WAT      O 2185   9.099   6.506   9.597
  648WAT     H1 2186   9.123   6.420   9.641
  648WAT     H2 2187   9.010   6.498   9.553
  649WAT      O 2188   0.594   0.443   4.375
  649WAT     H1 2189   0.639   0.424   4.288
  649WAT     H2 2190   0.656   0.418   4.451
  650WAT      O 2191   3.437   9.282   2.602
  650WAT     H1 2192   3.369   9.246   2.538
  650WAT     H2 2193   3.473   9.369   2.566
  651WAT      O 2194   0.712   4.615   8.276
  651WAT     H1 2195   0.762   4.702   8.276
  651WAT     H2 2196   0.740   4.561   8.355
  652WAT      O 2197   1.493   4.831   2.521
  652WAT     H1 2198   1.508   4.812   2.424
  652WAT     H2 2199   1.433   4.760   2.560
  653WAT      O 2200   5.633   5.921   2.235
  653WAT     H1 2201   5.598   5.896   2.325
  653WAT     H2 2202   5.683   5.844   2.196
  654WAT      O 2203   3.118   0.861   8.221
  654WAT     H1 2204   3.188   0.924   8.186
  654WAT     H2 2205   3.153   0.767   8.217
  655WAT      O 2206   8.304   8.186   7.333
  655WAT     H1 2207   8.353   8.217   7.252
  655WAT     H2 2208   8.269   8.093   7.318
  656WAT      O 2209   6.495   0.876   9.737
  656WAT     H1 2210   6.521   0.956   9.790
  656WAT     H2 2211   6.577   0.828   9.707
  657WAT      O 2212   5.681   6.941   3.375
  657WAT     H1 2213   5.746   6.865   3.380
  657WAT     H2 2214   5.645   6.960   3.467
  658WAT      O 2215   8.842   3.672   2.785
  658WAT     H1 2216   8.858   3.731   2.865
  658WAT     H2 2217   8.796   3.589   2.814
  659WAT      O 2218   8.562   2.864   2.768
  659WAT     H1 2219   8.594   2.864   2.674
  659WAT     H2 2220   8.628   2.911   2.826
  660WAT      O 2221   1.701   3.656   6.634
  660WAT     H1 2222   1.613   3.626   6.670
  660WAT     H2 2223   1.751   3.706   6.705
  661WAT      O 2224   5.756   2.626   9.039
  661WAT     H1 2225   5.797   2.537   9.058
  661WAT     H2 2226   5.758   2.644   8.941
  662WAT      O 2227   3.391   3.651   6.011
  662WAT     H1 2228   3.325   3.670   5.938
  662WAT     H2 2229   3.400   3.733   6.069
  663WAT      O 2230   2.793   3.840   9.007
  663WAT     H1 2231   2.866   3.857   8.942
  663WAT     H2 2232   2.810   3.753   9.054
  664WAT      O 2233   5.532   3.287   2.723
  664WAT     H1 2234   5.625   3.285   2.759
  664WAT     H2 2235   5.527   3.228   2.642
  665WAT      O 2236   9.697   3.211   7.928
  665WAT     H1 2237   9.632   3.266   7.980
  665WAT     H2 2238   9.654   3.180   7.843
  666WAT      O 2239   7.194   3.768   3.562
  666WAT     H1 2240   7.127   3.707   3.605
  666WAT     H2 2241   7.172   3.779   3.465
  667WAT      O 2242   8.956   6.591   5.955
  667WAT     H1 2243   8.873   6.596   6.011
  667WAT     H2 2244   9.024   6.654   5.991
  668WAT      O 2245   8.461   4.491   8.625
  668WAT     H1 2246   8.516   4.575   8.629
  668WAT     H2 2247   8.445   4.466   8.530
  669WAT      O 2248   7.745   3.041   7.544
  669WAT     H1 2249   7.811   3.110   7.574
  669WAT     H2 2250   7.788   2.951   7.546
  670WAT      O 2251   0.273   1.640   2.485
  670WAT     H1 2252   0.260   1.738   2.469
  670WAT     H2 2253   0.323   1.626   2.571
  671WAT      O 2254   4.184   9.690   1.396
  671WAT     H1 2255   4.090   9.680   1.429
  671WAT     H2 2256   4.245   9.713   1.472
  672WAT      O 2257   5.040   1.473   7.976
  672WAT     H1 2258   5.121   1.438   8.022
  672WAT     H2 2259   4.966   1.405   7.981
  673WAT      O 2260   7.039   4.630   4.558
  673WAT     H1 2261   7.001   4.720   4.580
  673WAT     H2 2262   7.122   4.615   4.612
  674WAT      O 2263   7.645   8.252   8.132
  674WAT     H1 2264   7.741   8.241   8.158
  674WAT     H2 2265   7.588   8.189   8.185
  675WAT      O 2266   1.117   7.900   8.873
  675WAT     H1 2267   1.090   7.834   8.943
  675WAT     H2 2268   1.047   7.904   8.802
  676WAT      O 2269   8.094   2.710   2.864
  676WAT     H1 2270   8.097   2.702   2.765
  676WAT     H2 2271   8.183   2.741   2.898
  677WAT      O 2272   5.478   5.718   9.576
  677WAT     H1 2273   5.556   5.778   9.593
  677WAT     H2 2274   5.509   5.637   9.526
  678WAT      O 2275   1.662   4.158   8.239
  678WAT     H1 2276   1.639   4.253   8.216
  678WAT     H2 2277   1.750   4.135   8.198
  679WAT      O 2278   3.608   8.757   4.356
  679WAT     H1 2279   3.676   8.686   4.339
  679WAT     H2 2280   3.605   8.776   4.455
  680WAT      O 2281   1.750   4.932   3.719
  680WAT     H1 2282   1.739   4.856   3.655
  680WAT     H2 2283   1.690   4.918   3.798
  681WAT      O 2284   8.120   5.897   1.346
  681WAT     H1 2285   8.040   5.837   1.355
  681WAT     H2 2286   8.200   5.852   1.384
  682WAT      O 2287   2.197   4.653   4.436
  682WAT     H1 2288   2.284   4.649   4.486
  682WAT     H2 2289   2.157   4.744   4.444
  683WAT      O 2290   3.029   3.141   8.151
  683WAT     H1 2291   2.958   3.180   8.209
  683WAT     H2 2292   3.070   3.062   8.197
  684WAT      O 2293   5.293   3.151   5.099
  684WAT     H1 2294   5.386   3.124   5.125
  684WAT     H2 2295   5.256   3.084   5.034
  685WAT      O 2296   6.299   0.840   6.409
  685WAT     H1 2297   6.332   0.903   6.339
  685WAT     H2 2298   6.203   0.819   6.392
  686WAT      O 2299   6.741   5.951   5.965
  686WAT     H1 2300   6.770   6.023   6.027
  686WAT     H2 2301   6.814   5.931   5.900
  687WAT      O 2302   6.228   1.497   8.650
  687WAT     H1 2303   6.135   1.519   8.679
  687WAT     H2 2304   6.229   1.480   8.552
  688WAT      O 2305   0.568   4.088   7.799
  688WAT     H1 2306   0.634   4.064   7.729
  688WAT     H2 2307   0.527   4.177   7.777
  689WAT      O 2308   8.150   2.186   6.635
  689WAT     H1 2309   8.190   2.249   6.569
  689WAT     H2 2310   8.155   2.227   6.727
  690WAT      O 2311   4.098   3.336   0.582
  690WAT     H1 2312   4.047   3.405   0.530
  690WAT     H2 2313   4.036   3.290   0.646
  691WAT      O 2314   6.482   5.093   0.104
  691WAT     H1 2315   6.415   5.081   0.032
  691WAT     H2 2316   6.465   5.028   0.178
  692WAT      O 2317   9.436   5.838   7.684
  692WAT     H1 2318   9.381   5.921   7.684
  692WAT     H2 2319   9.420   5.787   7.599
  693WAT      O 2320   1.500   2.422   6.646
  693WAT     H1 2321   1.496   2.484   6.568
  693WAT     H2 2322   1.593   2.387   6.658
  694WAT      O 2323   8.844   1.249   4.234
  694WAT     H1 2324   8.844   1.159   4.190
  694WAT     H2 2325   8.768   1.254   4.299
  695WAT      O 2326   5.511   5.947   1.034
  695WAT     H1 2327   5.459   5.985   0.957
  695WAT     H2 2328   5.599   5.912   1.001
  696WAT      O 2329   1.802   4.686   8.330
  696WAT     H1 2330   1.851   4.640   8.257
  696WAT     H2 2331   1.808   4.632   8.414
  697WAT      O 2332   7.426   9.726   1.511
  697WAT     H1 2333   7.523   9.750   1.512
  697WAT     H2 2334   7.394   9.711   1.604
  698WAT      O 2335   2.488   9.247   7.458
  698WAT     H1 2336   2.502   9.155   7.421
  698WAT     H2 2337   2.412   9.245   7.523
  699WAT      O 2338   8.971   1.004   2.585
  699WAT     H1 2339   8.891   1.060   2.607
  699WAT     H2 2340   9.052   1.061   2.578
  700WAT      O 2341   4.398   2.281   0.114
  700WAT     H1 2342   4.451   2.258   0.195
  700WAT     H2 2343   4.338   2.359   0.134
  701WAT      O 2344   0.535   6.717   9.598
  701WAT     H1 2345   0.495   6.781   9.663
  701WAT     H2 2346   0.495   6.732   9.507
  702WAT      O 2347   4.955   8.442   8.437
  702WAT     H1 2348   5.015   8.522   8.426
  702WAT     H2 2349   4.925   8.411   8.348
  703WAT      O 2350   4.252   4.684   1.717
  703WAT     H1 2351   4.236   4.778   1.748
  703WAT     H2 2352   4.251   4.622   1.795
  704WAT      O 2353   5.832   6.032   1.513
  704WAT     H1 2354   5.881   6.045   1.426
  704WAT     H2 2355   5.898   6.018   1.587
  705WAT      O 2356   3.860   3.828   7.437
  705WAT     H1 2357   3.818   3.743   7.405
  705WAT     H2 2358   3.956   3.830   7.409
  706WAT      O 2359   1.748   2.216   6.919
  706WAT     H1 2360   1.673   2.243   6.979
  706WAT     H2 2361   1.764   2.287   6.851
  707WAT      O 2362   2.497   0.875   3.347
  707WAT     H1 2363   2.548   0.960   3.361
  707WAT     H2 2364   2.517   0.839   3.256
  708WAT      O 2365   3.704   4.058   7.482
  708WAT     H1 2366   3.747   3.971   7.456
  708WAT     H2 2367   3.615   4.065   7.438
  709WAT      O 2368   0.242   5.117   8.029
  709WAT     H1 2369   0.208   5.060   8.104
  709WAT     H2 2370   0.201   5.086   7.943
  710WAT      O 2371   3.752   9.762   2.682
  710WAT     H1 2372   3.657   9.760   2.649
  710WAT     H2 2373   3.804   9.827   2.627
  711WAT      O 2374   0.439   3.753   7.425
  711WAT     H1 2375   0.339   3.752   7.432
  711WAT     H2 2376   0.473   3.844   7.450
  712WAT      O 2377   1.118   4.754   6.593
  712WAT     H1 2378   1.064   4.837   6.605
  712WAT     H2 2379   1.058   4.679   6.566
  713WAT      O 2380   8.907   7.294   7.645
  713WAT     H1 2381   8.962   7.243   7.579
  713WAT     H2 2382   8.877   7.234   7.718
  714WAT      O 2383   0.331   7.273   9.455
  714WAT     H1 2384   0.360   7.361   9.494
  714WAT     H2 2385   0.389   7.200   9.491
  715WAT      O 2386   8.779   8.216   5.592
  715WAT     H1 2387   8.764   8.257   5.683
  715WAT     H2 2388   8.703   8.241   5.532
  716WAT      O 2389   8.271   4.277   3.590
  716WAT     H1 2390   8.367   4.302   3.577
  716WAT     H2 2391   8.262   4.218   3.670
  717WAT      O 2392   3.146   3.205   0.970
  717WAT     H1 2393   3.083   3.267   0.924
  717WAT     H2 2394   3.125   3.110   0.943
  718WAT      O 2395   1.029   0.373   0.299
  718WAT     H1 2396   1.003   0.427   0.219
  718WAT     H2 2397   0.971   0.398   0.376
  719WAT      O 2398   7.217   5.895   4.974
  719WAT     H1 2399   7.268   5.897   4.888
  719WAT     H2 2400   7.156   5.816   4.974
  720WAT      O 2401   3.918   1.001   6.752
  720WAT     H1 2402   3.941   1.095   6.778
  720WAT     H2 2403   3.987   0.939   6.789
  721WAT      O 2404   0.109   9.557   0.282
  721WAT     H1 2405   0.088   9.514   0.194
  721WAT     H2 2406   0.140   9.650   0.266
  722WAT      O 2407   2.511   8.419   9.351
  722WAT     H1 2408   2.518   8.502   9.406
  722WAT     H2 2409   2.602   8.391   9.320
  723WAT      O 2410   0.165   4.028   4.301
  723WAT     H1 2411   0.243   4.019   4.363
  723WAT     H2 2412   0.126   3.938   4.284
  724WAT      O 2413   5.932   7.842   4.398
  724WAT     H1 2414   5.863   7.873   4.463
  724WAT     H2 2415   5.890   7.779   4.333
  725WAT      O 2416   1.461   2.087   6.232
  725WAT     H1 2417   1.372   2.125   6.258
  725WAT     H2 2418   1.479   2.106   6.136
  726WAT      O 2419   1.050   7.691   1.115
  726WAT     H1 2420   1.124   7.670   1.179
  726WAT     H2 2421   0.998   7.770   1.149
  727WAT      O 2422   4.328   9.576   4.425
  727WAT     H1 2423   4.304   9.550   4.332
  727WAT     H2 2424   4.427   9.586   4.433
  728WAT      O 2425   5.760   3.067   1.930
  728WAT     H1 2426   5.753   3.163   1.958
  728WAT     H2 2427   5.754   3.061   1.831
  729WAT      O 2428   1.756   9.352   5.039
  729WAT     H1 2429   1.757   9.452   5.045
  729WAT     H2 2430   1.786   9.323   4.948
  730WAT      O 2431   0.914   7.694   3.350
  730WAT     H1 2432   0.962   7.728   3.269
  730WAT     H2 2433   0.952   7.605   3.377
  731WAT      O 2434   4.443   4.450   4.339
  731WAT     H1 2435   4.488   4.518   4.398
  731WAT     H2 2436   4.509   4.380   4.312
  732WAT      O 2437   0.188   6.131   8.214
  732WAT     H1 2438   0.139   6.149   8.300
  732WAT     H2 2439   0.283   6.164   8.222
  733WAT      O 2440   9.257   7.156   3.163
  733WAT     H1 2441   9.217   7.207   3.087
  733WAT     H2 2442   9.280   7.064   3.131
  734WAT      O 2443   3.960   7.727   9.845
  734WAT     H1 2444   3.971   7.813   9.795
  734WAT     H2 2445   3.904   7.743   9.926
  735WAT      O 2446   9.083   6.290   4.743
  735WAT     H1 2447   8.996   6.250   4.714
  735WAT     H2 2448   9.120   6.235   4.818
  736WAT      O 2449   6.103   7.914   1.455
  736WAT     H1 2450   6.003   7.913   1.457
  736WAT     H2 2451   6.137   7.823   1.431
  737WAT      O 2452   4.448   7.578   6.473
  737WAT     H1 2453   4.544   7.574   6.502
  737WAT     H2 2454   4.426   7.498   6.418
  738WAT      O 2455   2.219   4.714   6.592
  738WAT     H1 2456   2.277   4.788   6.624
  738WAT     H2 2457   2.124   4.733   6.616
  739WAT      O 2458   5.427   9.041   6.369
  739WAT     H1 2459   5.455   9.066   6.461
  739WAT     H2 2460   5.495   9.073   6.303
  740WAT      O 2461   2.812   0.000   8.211
  740WAT     H1 2462   2.845  -0.079   8.264
  740WAT     H2 2463   2.859   0.083   8.243
  741WAT      O 2464   4.448   0.974   7.677
  741WAT     H1 2465   4.416   0.955   7.770
  741WAT     H2 2466   4.525   1.038   7.680
  742WAT      O 2467   7.372   2.546   8.070
  742WAT     H1 2468   7.413   2.585   7.987
  742WAT     H2 2469   7.356   2.618   8.137
  743WAT      O 2470   9.360   9.454   1.752
  743WAT     H1 2471   9.331   9.459   1.847
  743WAT     H2 2472   9.312   9.524   1.698
  744WAT      O 2473   6.407   3.882   9.555
  744WAT     H1 2474   6.336   3.811   9.551
  744WAT     H2 2475   6.432   3.898   9.650
  745WAT      O 2476   5.992   5.066   1.980
  745WAT     H1 2477   6.057   5.021   2.040
  745WAT     H2 2478   5.899   5.048   2.012
  746WAT      O 2479   5.553   6.989   2.230
  746WAT     H1 2480   5.644   6.977   2.189
  746WAT     H2 2481   5.494   6.912   2.204
  747WAT      O 2482   7.407   7.571   1.500
  747WAT     H1 2483   7.401   7.542   1.404
  747WAT     H2 2484   7.469   7.649   1.507
  748WAT      O 2485   0.977   8.861   5.018
  748WAT     H1 2486   0.926   8.926   4.961
  748WAT     H2 2487   1.023   8.794   4.959
  749WAT      O 2488   0.803   5.494   0.544
  749WAT     H1 2489   0.782   5.398   0.561
  749WAT     H2 2490   0.893   5.516   0.582
  750WAT      O 2491   7.946   0.507   8.247
  750WAT     H1 2492   8.045   0.494   8.239
  750WAT     H2 2493   7.907   0.431   8.298
  751WAT      O 2494   1.810   6.372   2.213
  751WAT     H1 2495   1.779   6.323   2.294
  751WAT     H2 2496   1.731   6.409   2.164
  752WAT      O 2497   3.127   2.932   2.115
  752WAT     H1 2498   3.187   2.851   2.119
  752WAT     H2 2499   3.146   2.991   2.193
  753WAT      O 2500   5.539   9.573   6.524
  753WAT     H1 2501   5.448   9.532   6.529
  753WAT     H2 2502   5.593   9.524   6.454
  754WAT      O 2503   5.390   4.340   6.483
  754WAT     H1 2504   5.388   4.399   6.564
  754WAT     H2 2505   5.300   4.342   6.438
  755WAT      O 2506   1.309   2.752   8.238
  755WAT     H1 2507   1.215   2.719   8.231
  755WAT     H2 2508   1.309   2.851   8.252
  756WAT      O 2509   4.197   7.230   8.448
  756WAT     H1 2510   4.146   7.316   8.438
  756WAT     H2 2511   4.284   7.248   8.494
  757WAT      O 2512   2.830   6.428   3.322
  757WAT     H1 2513   2.887   6.483   3.383
  757WAT     H2 2514   2.735   6.455   3.333
  758WAT      O 2515   7.615   9.302   0.663
  758WAT     H1 2516   7.693   9.291   0.724
  758WAT     H2 2517   7.631   9.253   0.577
  759WAT      O 2518   4.755   2.498   2.627
  759WAT     H1 2519   4.761   2.515   2.529
  759WAT     H2 2520   4.726   2.404   2.644
  760WAT      O 2521   8.430   9.519   8.176
  760WAT     H1 2522   8.387   9.464   8.104
  760WAT     H2 2523   8.507   9.569   8.137
  761WAT      O 2524   6.329   6.830   9.860
  761WAT     H1 2525   6.291   6.922   9.870
  761WAT     H2 2526   6.374   6.802   9.945
  762WAT      O 2527   1.135   5.158   9.204
  762WAT     H1 2528   1.154   5.233   9.267
  762WAT     H2 2529   1.068   5.188   9.136
  763WAT      O 2530   0.170   1.658   7.491
  763WAT     H1 2531   0.085   1.615   7.523
  763WAT     H2 2532   0.219   1.595   7.432
  764WAT      O 2533   7.247   9.090   1.109
  764WAT     H1 2534   7.242   9.016   1.042
  764WAT     H2 2535   7.240   9.178   1.063
  765WAT      O 2536   7.348   1.004   2.276
  765WAT     H1 2537   7.397   0.944   2.340
  765WAT     H2 2538   7.340   1.095   2.315
  766WAT      O 2539   8.736   7.485   6.549
  766WAT     H1 2540   8.761   7.390   6.562
  766WAT     H2 2541   8.721   7.528   6.639
  767WAT      O 2542   7.643   6.769   8.597
  767WAT     H1 2543   7.668   6.855   8.642
  767WAT     H2 2544   7.572   6.723   8.650
  768WAT      O 2545   6.931   8.141   0.816
  768WAT     H1 2546   6.986   8.094   0.747
  768WAT     H2 2547   6.916   8.235   0.788
  769WAT      O 2548   1.952   2.665   1.280
  769WAT     H1 2549   1.874   2.711   1.323
  769WAT     H2 2550   2.009   2.734   1.233
  770WAT      O 2551   4.344   7.934   7.764
  770WAT     H1 2552   4.331   8.014   7.705
  770WAT     H2 2553   4.436   7.896   7.750
  771WAT      O 2554   4.413   4.111   5.796
  771WAT     H1 2555   4.368   4.200   5.790
  771WAT     H2 2556   4.359   4.044   5.744
  772WAT      O 2557   8.648   8.427   2.494
  772WAT     H1 2558   8.609   8.516   2.470
  772WAT     H2 2559   8.619   8.402   2.587
  773WAT      O 2560   1.955   5.085   6.027
  773WAT     H1 2561   1.869   5.055   5.985
  773WAT     H2 2562   1.995   5.009   6.079
  774WAT      O 2563   6.942   4.655   5.686
  774WAT     H1 2564   6.923   4.712   5.765
  774WAT     H2 2565   6.881   4.576   5.687
  775WAT      O 2566   0.762   1.792   1.139
  775WAT     H1 2567   0.760   1.840   1.052
  775WAT     H2 2568   0.857   1.773   1.166
  776WAT      O 2569   0.421   9.305   4.217
  776WAT     H1 2570   0.456   9.390   4.256
  776WAT     H2 2571   0.470   9.285   4.132
  777WAT      O 2572   9.478   2.318   3.533
  777WAT     H1 2573   9.403   2.257   3.510
  777WAT     H2 2574   9.449   2.413   3.518
  778WAT      O 2575   9.543   7.737   6.163
  778WAT     H1 2576   9.504   7.737   6.256
  778WAT     H2 2577   9.523   7.824   6.119
  779WAT      O 2578   7.830   8.350   4.284
  779WAT     H1 2579   7.916   8.341   4.335
  779WAT     H2 2580   7.777   8.426   4.321
  780WAT      O 2581   5.522   8.415   4.046
  780WAT     H1 2582   5.613   8.387   4.014
  780WAT     H2 2583   5.532   8.482   4.120
  781WAT      O 2584   0.959   4.366   7.887
  781WAT     H1 2585   1.049   4.386   7.851
  781WAT     H2 2586   0.890   4.382   7.817
  782WAT      O 2587   7.259   6.063   7.137
  782WAT     H1 2588   7.222   6.127   7.070
  782WAT     H2 2589   7.359   6.067   7.137
  783WAT      O 2590   3.702   3.882   1.173
  783WAT     H1 2591   3.662   3.907   1.085
  783WAT     H2 2592   3.728   3.786   1.172
  784WAT      O 2593   7.935   4.178   1.143
  784WAT     H1 2594   7.966   4.098   1.193
  784WAT     H2 2595   7.925   4.255   1.205
  785WAT      O 2596   4.681   4.449   8.349
  785WAT     H1 2597   4.760   4.392   8.373
  785WAT     H2 2598   4.676   4.458   8.249
  786WAT      O 2599   4.024   3.389   4.145
  786WAT     H1 2600   4.035   3.422   4.239
  786WAT     H2 2601   4.066   3.454   4.082
  787WAT      O 2602   8.104   0.448   1.643
  787WAT     H1 2603   8.072   0.405   1.558
  787WAT     H2 2604   8.187   0.401   1.674
  788WAT      O 2605   7.321   7.827   7.451
  788WAT     H1 2606   7.309   7.732   7.479
  788WAT     H2 2607   7.394   7.869   7.505
  789WAT      O 2608   0.011   8.720   9.044
  789WAT     H1 2609   0.085   8.654   9.055
  789WAT     H2 2610   0.026   8.798   9.105
  790WAT      O 2611   2.141   1.762   5.433
  790WAT     H1 2612   2.147   1.729   5.339
  790WAT     H2 2613   2.155   1.685   5.496
  791WAT      O 2614   3.665   0.049   0.337
  791WAT     H1 2615   3.579   0.089   0.304
  791WAT     H2 2616   3.686  -0.033   0.283
  792WAT      O 2617   4.388   7.227   0.290
  792WAT     H1 2618   4.444   7.271   0.220
  792WAT     H2 2619   4.355   7.139   0.255
  793WAT      O 2620   9.342   2.862   7.938
  793WAT     H1 2621   9.272   2.898   7.999
  793WAT     H2 2622   9.330   2.902   7.847
  794WAT      O 2623   7.442   3.221   6.740
  794WAT     H1 2624   7.490   3.137   6.765
  794WAT     H2 2625   7.360   3.198   6.687
  795WAT      O 2626   8.237   0.080   0.896
  795WAT     H1 2627   8.277   0.080   0.804
  795WAT     H2 2628   8.300   0.127   0.959
  796WAT      O 2629   6.518   6.953   9.246
  796WAT     H1 2630   6.556   7.045   9.243
  796WAT     H2 2631   6.419   6.958   9.251
  797WAT      O 2632   9.729   0.973   8.143
  797WAT     H1 2633   9.808   0.912   8.152
  797WAT     H2 2634   9.676   0.971   8.228
  798WAT      O 2635   3.184   6.567   6.065
  798WAT     H1 2636   3.136   6.485   6.033
  798WAT     H2 2637   3.144   6.648   6.022
  799WAT      O 2638   4.284   7.077   9.427
  799WAT     H1 2639   4.247   7.096   9.337
  799WAT     H2 2640   4.249   7.143   9.493
  800WAT      O 2641   1.821   2.925   4.770
  800WAT     H1 2642   1.882   2.961   4.841
  800WAT     H2 2643   1.755   2.996   4.744
  801WAT      O 2644   0.994   6.648   7.417
  801WAT     H1 2645   1.023   6.652   7.321
  801WAT     H2 2646   0.945   6.563   7.433
  802WAT      O 2647   9.800   3.855   2.482
  802WAT     H1 2648   9.751   3.877   2.398
  802WAT     H2 2649   9.850   3.935   2.514
  803WAT      O 2650   8.863   1.466   5.402
  803WAT     H1 2651   8.786   1.455   5.339
  803WAT     H2 2652   8.880   1.379   5.449
  804WAT      O 2653   7.228   4.068   6.212
  804WAT     H1 2654   7.162   4.044   6.141
  804WAT     H2 2655   7.200   4.155   6.254
  805WAT      O 2656   1.503   4.014   1.984
  805WAT     H1 2657   1.473   3.959   1.906
  805WAT     H2 2658   1.585   4.066   1.959
  806WAT      O 2659   6.590   3.065   3.135
  806WAT     H1 2660   6.507   3.120   3.138
  806WAT     H2 2661   6.605   3.024   3.225
  807WAT      O 2662   2.835   5.390   4.658
  807WAT     H1 2663   2.861   5.315   4.720
  807WAT     H2 2664   2.847   5.477   4.706
  808WAT      O 2665   6.266   5.988   6.036
  808WAT     H1 2666   6.198   5.949   5.974
  808WAT     H2 2667   6.356   5.949   6.015
  809WAT      O 2668   2.038   1.089   7.228
  809WAT     H1 2669   2.100   1.091   7.307
  809WAT     H2 2670   2.023   0.994   7.201
  810WAT      O 2671   8.194   3.495   6.436
  810WAT     H1 2672   8.129   3.556   6.481
  810WAT     H2 2673   8.172   3.488   6.339
  811WAT      O 2674   7.961   8.895   6.963
  811WAT     H1 2675   8.035   8.867   6.902
  811WAT     H2 2676   7.921   8.814   7.007
  812WAT      O 2677   6.466   9.323   0.458
  812WAT     H1 2678   6.392   9.340   0.393
  812WAT     H2 2679   6.494   9.227   0.452
  813WAT      O 2680   7.694   3.221   2.810
  813WAT     H1 2681   7.670   3.288   2.881
  813WAT     H2 2682   7.730   3.269   2.730
  814WAT      O 2683   4.272   1.540   6.630
  814WAT     H1 2684   4.280   1.597   6.712
  814WAT     H2 2685   4.253   1.598   6.551
  815WAT      O 2686   0.070   4.345   7.500
  815WAT     H1 2687  -0.022   4.319   7.469
  815WAT     H2 2688   0.063   4.426   7.558
  816WAT      O 2689   9.263   8.041   2.651
  816WAT     H1 2690   9.195   7.987   2.601
  816WAT     H2 2691   9.351   7.994   2.648
  817WAT      O 2692   7.518   2.951   6.532
  817WAT     H1 2693   7.509   2.953   6.632
  817WAT     H2 2694   7.511   2.857   6.500
  818WAT      O 2695   7.665   3.779   3.849
  818WAT     H1 2696   7.686   3.702   3.789
  818WAT     H2 2697   7.586   3.830   3.813
  819WAT      O 2698   2.899   3.781   8.572
  819WAT     H1 2699   2.915   3.877   8.549
  819WAT     H2 2700   2.833   3.742   8.508
  820WAT      O 2701   5.523   4.108   6.525
  820WAT     H1 2702   5.509   4.047   6.448
  820WAT     H2 2703   5.473   4.193   6.510
  821WAT      O 2704   0.673   2.158   5.836
  821WAT     H1 2705   0.598   2.173   5.772
  821WAT     H2 2706   0.687   2.059   5.848
  822WAT      O 2707   1.673   2.307   5.847
  822WAT     H1 2708   1.756   2.305   5.903
  822WAT     H2 2709   1.698   2.322   5.751
  823WAT      O 2710   9.252   6.783   8.452
  823WAT     H1 2711   9.215   6.691   8.469
  823WAT     H2 2712   9.307   6.811   8.531
  824WAT      O 2713   6.712   6.613   8.649
  824WAT     H1 2714   6.657   6.679   8.700
  824WAT     H2 2715   6.702   6.629   8.551
  825WAT      O 2716   4.919   8.206   9.419
  825WAT     H1 2717   4.912   8.117   9.375
  825WAT     H2 2718   4.979   8.265   9.365
  826WAT      O 2719   6.445   5.777   1.792
  826WAT     H1 2720   6.430   5.857   1.733
  826WAT     H2 2721   6.471   5.699   1.735
  827WAT      O 2722   6.495   0.013   0.663
  827WAT     H1 2723   6.584   0.040   0.626
  827WAT     H2 2724   6.440  -0.029   0.590
  828WAT      O 2725   7.772   6.210   4.784
  828WAT     H1 2726   7.849   6.259   4.743
  828WAT     H2 2727   7.803   6.119   4.814
  829WAT      O 2728   7.065   0.772   3.518
  829WAT     H1 2729   7.104   0.863   3.524
  829WAT     H2 2730   7.004   0.757   3.596
  830WAT      O 2731   7.554   6.606   2.925
  830WAT     H1 2732   7.524   6.699   2.904
  830WAT     H2 2733   7.528   6.544   2.851
  831WAT      O 2734   5.089   8.913   5.054
  831WAT     H1 2735   5.049   8.864   5.132
  831WAT     H2 2736   5.186   8.929   5.071
  832WAT      O 2737   8.005   0.414   7.449
  832WAT     H1 2738   8.024   0.417   7.548
  832WAT     H2 2739   7.996   0.507   7.414
  833WAT      O 2740   4.018   1.320   6.320
  833WAT     H1 2741   3.945   1.278   6.265
  833WAT     H2 2742   4.088   1.252   6.340
  834WAT      O 2743   8.489   0.541   3.897
  834WAT     H1 2744   8.433   0.505   3.972
  834WAT     H2 2745   8.461   0.635   3.877
  835WAT      O 2746   8.446   0.272   1.041
  835WAT     H1 2747   8.468   0.309   1.131
  835WAT     H2 2748   8.364   0.318   1.005
  836WAT      O 2749   8.570   0.044   0.983
  836WAT     H1 2750   8.651   0.042   1.040
  836WAT     H2 2751   8.521   0.130   0.998
  837WAT      O 2752   5.565   9.514   1.084
  837WAT     H1 2753   5.621   9.520   1.001
  837WAT     H2 2754   5.618   9.468   1.156
  838WAT      O 2755   3.609   3.158   2.111
  838WAT     H1 2756   3.683   3.224   2.102
  838WAT     H2 2757   3.541   3.173   2.039
  839WAT      O 2758   4.976   4.461   9.031
  839WAT     H1 2759   4.886   4.498   9.008
  839WAT     H2 2760   5.017   4.516   9.104
  840WAT      O 2761   5.692   2.359   3.272
  840WAT     H1 2762   5.705   2.457   3.286
  840WAT     H2 2763   5.715   2.336   3.178
  841WAT      O 2764   4.483   3.936   4.046
  841WAT     H1 2765   4.420   4.010   4.024
  841WAT     H2 2766   4.434   3.865   4.097
  842WAT      O 2767   5.004   0.405   3.852
  842WAT     H1 2768   4.979   0.386   3.946
  842WAT     H2 2769   4.940   0.360   3.790
  843WAT      O 2770   9.276   5.390   4.378
  843WAT     H1 2771   9.232   5.452   4.313
  843WAT     H2 2772   9.243   5.297   4.363
  844WAT      O 2773   7.818   2.335   3.651
  844WAT     H1 2774   7.743   2.297   3.705
  844WAT     H2 2775   7.875   2.393   3.709
  845WAT      O 2776   2.736   4.291   0.678
  845WAT     H1 2777   2.728   4.391   0.672
  845WAT     H2 2778   2.816   4.261   0.626
  846WAT      O 2779   3.763   5.349   8.376
  846WAT     H1 2780   3.800   5.280   8.314
  846WAT     H2 2781   3.830   5.422   8.388
  847WAT      O 2782   2.018   0.633   9.839
  847WAT     H1 2783   2.064   0.644   9.927
  847WAT     H2 2784   2.062   0.561   9.786
  848WAT      O 2785   4.355   8.591   0.069
  848WAT     H1 2786   4.354   8.567  -0.028
  848WAT     H2 2787   4.290   8.665   0.085
  849WAT      O 2788   4.429   7.018   8.357
  849WAT     H1 2789   4.346   7.052   8.314
  849WAT     H2 2790   4.423   6.918   8.368
  850WAT      O 2791   3.486   8.173   0.333
  850WAT     H1 2792   3.477   8.272   0.319
  850WAT     H2 2793   3.480   8.126   0.245
  851WAT      O 2794   2.281   8.756   7.530
  851WAT     H1 2795   2.203   8.713   7.484
  851WAT     H2 2796   2.282   8.730   7.626
  852WAT      O 2797   6.147   2.714   2.559
  852WAT     H1 2798   6.115   2.689   2.468
  852WAT     H2 2799   6.231   2.768   2.552
  853WAT      O 2800   2.679   7.252   9.707
  853WAT     H1 2801   2.734   7.250   9.623
  853WAT     H2 2802   2.645   7.345   9.722
  854WAT      O 2803   0.212   7.865   1.920
  854WAT     H1 2804   0.160   7.794   1.872
  854WAT     H2 2805   0.299   7.881   1.872
  855WAT      O 2806   9.377   4.419   7.350
  855WAT     H1 2807   9.285   4.438   7.314
  855WAT     H2 2808   9.370   4.396   7.447
  856WAT      O 2809   5.481   8.295   6.131
  856WAT     H1 2810   5.457   8.211   6.180
  856WAT     H2 2811   5.416   8.367   6.154
  857WAT      O 2812   2.191   2.826   8.365
  857WAT     H1 2813   2.112   2.799   8.310
  857WAT     H2 2814   2.257   2.751   8.368
  858WAT      O 2815   8.347   5.739   2.772
  858WAT     H1 2816   8.314   5.832   2.755
  858WAT     H2 2817   8.418   5.716   2.705
  859WAT      O 2818   3.462   3.360   0.003
  859WAT     H1 2819   3.555   3.325   0.016
  859WAT     H2 2820   3.460   3.458   0.024
  860WAT      O 2821   1.013   0.045   1.182
  860WAT     H1 2822   0.970   0.044   1.091
  860WAT     H2 2823   0.943   0.039   1.252
  861WAT      O 2824   6.651   2.646   9.883
  861WAT     H1 2825   6.736   2.669   9.837
  861WAT     H2 2826   6.629   2.717   9.951
  862WAT      O 2827   0.537   8.694   0.259
  862WAT     H1 2828   0.573   8.752   0.186
  862WAT     H2 2829   0.563   8.599   0.242
  863WAT      O 2830   4.765   5.107   8.896
  863WAT     H1 2831   4.810   5.134   8.811
  863WAT     H2 2832   4.795   5.016   8.922
  864WAT      O 2833   3.320   3.940   4.151
  864WAT     H1 2834   3.312   4.013   4.220
  864WAT     H2 2835   3.395   3.879   4.175
  865WAT      O 2836   0.085   8.886   7.835
  865WAT     H1 2837   0.057   8.856   7.926
  865WAT     H2 2838   0.090   8.807   7.774
  866WAT      O 2839   4.621   4.258   0.075
  866WAT     H1 2840   4.667   4.245   0.163
  866WAT     H2 2841   4.611   4.170   0.030
  867WAT      O 2842   2.421   6.083   6.553
  867WAT     H1 2843   2.388   6.034   6.634
  867WAT     H2 2844   2.492   6.148   6.580
  868WAT      O 2845   6.222   7.714   6.396
  868WAT     H1 2846   6.126   7.742   6.401
  868WAT     H2 2847   6.280   7.793   6.415
  869WAT      O 2848   3.322   6.703   4.189
  869WAT     H1 2849   3.364   6.699   4.099
  869WAT     H2 2850   3.237   6.650   4.189
  870WAT      O 2851   5.338   9.676   1.089
  870WAT     H1 2852   5.395   9.596   1.073
  870WAT     H2 2853   5.372   9.726   1.168
  871WAT      O 2854   8.226   7.131   8.539
  871WAT     H1 2855   8.316   7.172   8.529
  871WAT     H2 2856   8.158   7.190   8.496
  872WAT      O 2857   9.754   9.510   4.488
  872WAT     H1 2858   9.751   9.573   4.410
  872WAT     H2 2859   9.845   9.512   4.529
  873WAT      O 2860   0.596   8.970   1.818
  873WAT     H1 2861   0.551   8.919   1.745
  873WAT     H2 2862   0.686   8.930   1.836
  874WAT      O 2863   5.427   0.717   2.512
  874WAT     H1 2864   5.446   0.735   2.416
  874WAT     H2 2865   5.444   0.799   2.566
  875WAT      O 2866   1.365   6.679   8.541
  875WAT     H1 2867   1.311   6.656   8.460
  875WAT     H2 2868   1.306   6.681   8.621
  876WAT      O 2869   2.491   0.906   9.222
  876WAT     H1 2870   2.424   0.832   9.217
  876WAT     H2 2871   2.452   0.984   9.269
  877WAT      O 2872   3.164   8.104   3.016
  877WAT     H1 2873   3.257   8.128   3.044
  877WAT     H2 2874   3.167   8.052   2.931
  878WAT      O 2875   6.487   8.216   4.459
  878WAT     H1 2876   6.419   8.274   4.504
  878WAT     H2 2877   6.542   8.272   4.396
  879WAT      O 2878   3.119   1.689   0.409
  879WAT     H1 2879   3.176   1.690   0.491
  879WAT     H2 2880   3.035   1.740   0.427
  880WAT      O 2881   0.785   7.583   8.738
  880WAT     H1 2882   0.689   7.565   8.756
  880WAT     H2 2883   0.794   7.666   8.683
  881WAT      O 2884   2.039   4.709   3.834
  881WAT     H1 2885   2.060   4.799   3.873
  881WAT     H2 2886   2.124   4.660   3.816
  882WAT      O 2887   2.669   3.529   2.711
  882WAT     H1 2888   2.620   3.550   2.626
  882WAT     H2 2889   2.763   3.560   2.704
  883WAT      O 2890   5.949   1.592   0.585
  883WAT     H1 2891   5.860   1.563   0.550
  883WAT     H2 2892   5.986   1.521   0.645
  884WAT      O 2893   7.399   1.210   6.748
  884WAT     H1 2894   7.397   1.179   6.652
  884WAT     H2 2895   7.334   1.155   6.802
  885WAT      O 2896   3.501   3.189   5.336
  885WAT     H1 2897   3.587   3.206   5.384
  885WAT     H2 2898   3.425   3.186   5.401
  886WAT      O 2899   7.592   0.009   6.083
  886WAT     H1 2900   7.626  -0.085   6.075
  886WAT     H2 2901   7.532   0.016   6.162
  887WAT      O 2902   0.889   1.258   4.750
  887WAT     H1 2903   0.831   1.184   4.716
  887WAT     H2 2904   0.846   1.346   4.729
  888WAT      O 2905   4.185   7.794   6.313
  888WAT     H1 2906   4.156   7.709   6.357
  888WAT     H2 2907   4.139   7.872   6.356
  889WAT      O 2908   1.680   8.417   1.008
  889WAT     H1 2909   1.605   8.389   1.067
  889WAT     H2 2910   1.762   8.365   1.032
  890WAT      O 2911   9.001   3.518   1.097
  890WAT     H1 2912   9.098   3.544   1.091
  890WAT     H2 2913   8.986   3.464   1.179
  891WAT      O 2914   4.795   2.947   0.545
  891WAT     H1 2915   4.876   2.962   0.488
  891WAT     H2 2916   4.803   3.002   0.628
  892WAT      O 2917   2.728   4.599   5.816
  892WAT     H1 2918   2.783   4.583   5.898
  892WAT     H2 2919   2.786   4.635   5.743
  893WAT      O 2920   2.705   8.596   1.588
  893WAT     H1 2921   2.743   8.680   1.551
  893WAT     H2 2922   2.625   8.618   1.645
  894WAT      O 2923   7.893   1.332   0.630
  894WAT     H1 2924   7.985   1.372   0.626
  894WAT     H2 2925   7.828   1.396   0.589
  895WAT      O 2926   5.200   1.354   8.747
  895WAT     H1 2927   5.107   1.318   8.761
  895WAT     H2 2928   5.205   1.447   8.782
  896WAT      O 2929   9.746   6.745   2.194
  896WAT     H1 2930   9.812   6.795   2.249
  896WAT     H2 2931   9.675   6.808   2.163
  897WAT      O 2932   6.123   9.764   5.110
  897WAT     H1 2933   6.085   9.746   5.019
  897WAT     H2 2934   6.081   9.702   5.176
  898WAT      O 2935   0.393   1.168   4.176
  898WAT     H1 2936   0.454   1.101   4.218
  898WAT     H2 2937   0.445   1.225   4.113
  899WAT      O 2938   4.006   6.233   6.898
  899WAT     H1 2939   4.066   6.173   6.950
  899WAT     H2 2940   4.000   6.201   6.803
  900WAT      O 2941   8.535   4.197   9.270
  900WAT     H1 2942   8.491   4.156   9.190
  900WAT     H2 2943   8.521   4.296   9.269
  901WAT      O 2944   9.337   4.100   7.605
  901WAT     H1 2945   9.258   4.042   7.589
  901WAT     H2 2946   9.420   4.045   7.603
  902WAT      O 2947   7.028   0.260   4.450
  902WAT     H1 2948   7.024   0.349   4.496
  902WAT     H2 2949   6.947   0.207   4.473
  903WAT      O 2950   1.681   0.456   6.727
  903WAT     H1 2951   1.777   0.448   6.701
  903WAT     H2 2952   1.652   0.372   6.773
  904WAT      O 2953   7.869   9.380   9.196
  904WAT     H1 2954   7.901   9.335   9.280
  904WAT     H2 2955   7.869   9.313   9.121
  905WAT      O 2956   4.020   0.796   1.462
  905WAT     H1 2957   3.956   0.815   1.388
  905WAT     H2 2958   4.113   0.814   1.430
  906WAT      O 2959   7.042   7.382   0.309
  906WAT     H1 2960   7.066   7.467   0.356
  906WAT     H2 2961   7.008   7.403   0.218
  907WAT      O 2962   6.756   0.464   3.439
  907WAT     H1 2963   6.810   0.542   3.408
  907WAT     H2 2964   6.671   0.497   3.481
  908WAT      O 2965   3.169   2.071   9.736
  908WAT     H1 2966   3.213   2.160   9.731
  908WAT     H2 2967   3.077   2.081   9.775
  909WAT      O 2968   5.564   4.857   5.993
  909WAT     H1 2969   5.615   4.902   6.066
  909WAT     H2 2970   5.526   4.771   6.027
  910WAT      O 2971   2.343   1.418   6.208
  910WAT     H1 2972   2.402   1.484   6.255
  910WAT     H2 2973   2.250   1.425   6.244
  911WAT      O 2974   2.366   0.291   0.633
  911WAT     H1 2975   2.285   0.269   0.578
  911WAT     H2 2976   2.353   0.257   0.726
  912WAT      O 2977   9.424   8.194   5.088
  912WAT     H1 2978   9.472   8.193   5.001
  912WAT     H2 2979   9.326   8.178   5.073
  913WAT      O 2980   9.618   5.010   5.727
  913WAT     H1 2981   9.520   5.005   5.713
  913WAT     H2 2982   9.657   5.083   5.671
  914WAT      O 2983   7.890   1.155   4.549
  914WAT     H1 2984   7.839   1.098   4.485
  914WAT     H2 2985   7.976   1.185   4.508
  915WAT      O 2986   3.349   0.467   2.362
  915WAT     H1 2987   3.307   0.391   2.313
  915WAT     H2 2988   3.420   0.509   2.304
  916WAT      O 2989   9.417   5.053   2.747
  916WAT     H1 2990   9.319   5.062   2.762
  916WAT     H2 2991   9.453   4.977   2.801
  917WAT      O 2992   0.998   2.188   9.545
  917WAT     H1 2993   0.973   2.152   9.635
  917WAT     H2 2994   1.097   2.200   9.540
  918WAT      O 2995   7.206   2.450   8.647
  918WAT     H1 2996   7.180   2.520   8.581
  918WAT     H2 2997   7.160   2.364   8.625
  919WAT      O 2998   2.481   6.933   5.120
  919WAT     H1 2999   2.501   6.905   5.026
  919WAT     H2 3000   2.524   7.022   5.138
  920WAT      O 3001   1.179   7.706   6.252
  920WAT     H1 3002   1.258   7.767   6.266
  920WAT     H2 3003   1.146   7.673   6.340
  921WAT      O 3004   9.513   3.629   7.503
  921WAT     H1 3005   9.444   3.573   7.456
  921WAT     H2 3006   9.538   3.707   7.446
  922WAT      O 3007   4.235   9.153   1.928
  922WAT     H1 3008   4.190   9.109   2.006
  922WAT     H2 3009   4.224   9.252   1.935
  923WAT      O 3010   7.040   2.993   5.023
  923WAT     H1 3011   6.979   2.932   4.973
  923WAT     H2 3012   7.072   3.065   4.962
  924WAT      O 3013   3.257   4.436   7.192
  924WAT     H1 3014   3.272   4.534   7.180
  924WAT     H2 3015   3.161   4.414   7.174
  925WAT      O 3016   7.733   5.209   9.674
  925WAT     H1 3017   7.649   5.156   9.686
  925WAT     H2 3018   7.729   5.259   9.587
  926WAT      O 3019   1.865   0.888   7.853
  926WAT     H1 3020   1.910   0.974   7.876
  926WAT     H2 3021   1.897   0.816   7.916
  927WAT      O 3022   7.967   9.456   1.293
  927WAT     H1 3023   7.930   9.383   1.236
  927WAT     H2 3024   8.065   9.443   1.304
  928WAT      O 3025   5.803   9.248   2.177
  928WAT     H1 3026   5.814   9.164   2.123
  928WAT     H2 3027   5.893   9.284   2.202
  929WAT      O 3028   5.947   2.034   1.959
  929WAT     H1 3029   5.871   2.072   1.907
  929WAT     H2 3030   5.919   1.947   2.000
  930WAT      O 3031   9.564   7.538   9.596
  930WAT     H1 3032   9.610   7.513   9.511
  930WAT     H2 3033   9.466   7.519   9.588
  931WAT      O 3034   8.007   5.401   1.058
  931WAT     H1 3035   8.085   5.393   0.996
  931WAT     H2 3036   7.938   5.460   1.017
  932WAT      O 3037   5.043   0.431   0.820
  932WAT     H1 3038   5.111   0.459   0.888
  932WAT     H2 3039   5.090   0.397   0.738
  933WAT      O 3040   3.561   4.564   8.976
  933WAT     H1 3041   3.634   4.502   9.003
  933WAT     H2 3042   3.526   4.611   9.057
  934WAT      O 3043   4.370   1.901   5.741
  934WAT     H1 3044   4.402   1.889   5.835
  934WAT     H2 3045   4.343   1.813   5.703
  935WAT      O 3046   4.539   9.671  -0.004
  935WAT     H1 3047   4.444   9.660   0.025
  935WAT     H2 3048   4.596   9.693   0.075
  936WAT      O 3049   3.424   7.289   9.172
  936WAT     H1 3050   3.425   7.235   9.256
  936WAT     H2 3051   3.481   7.246   9.103
  937WAT      O 3052   3.691   1.955   0.942
  937WAT     H1 3053   3.668   2.002   1.028
  937WAT     H2 3054   3.683   2.019   0.866
  938WAT      O 3055   2.431   6.108   1.225
  938WAT     H1 3056   2.511   6.049   1.222
  938WAT     H2 3057   2.354   6.059   1.266
  939WAT      O 3058   2.288   6.790   3.103
  939WAT     H1 3059   2.202   6.744   3.124
  939WAT     H2 3060   2.343   6.797   3.186
  940WAT      O 3061   8.163   9.733   9.336
  940WAT     H1 3062   8.123   9.661   9.280
  940WAT     H2 3063   8.105   9.814   9.333
  941WAT      O 3064   3.037   8.647   0.602
  941WAT     H1 3065   3.116   8.658   0.541
  941WAT     H2 3066   2.963   8.707   0.571
  942WAT      O 3067   8.274   5.044   7.265
  942WAT     H1 3068   8.343   5.115   7.270
  942WAT     H2 3069   8.219   5.044   7.349
  943WAT      O 3070   6.191   8.820   1.490
  943WAT     H1 3071   6.286   8.822   1.461
  943WAT     H2 3072   6.186   8.829   1.589
  944WAT      O 3073   8.918   7.335   8.374
  944WAT     H1 3074   8.932   7.244   8.413
  944WAT     H2 3075   8.893   7.326   8.278
  945WAT      O 3076   9.344   4.536   0.572
  945WAT     H1 3077   9.318   4.509   0.479
  945WAT     H2 3078   9.418   4.477   0.604
  946WAT      O 3079   9.783   1.405   1.348
  946WAT     H1 3080   9.843   1.423   1.426
  946WAT     H2 3081   9.835   1.415   1.263
  947WAT      O 3082   7.902   8.209   9.837
  947WAT     H1 3083   7.898   8.294   9.890
  947WAT     H2 3084   7.981   8.155   9.865
  948WAT      O 3085   7.232   6.937   7.273
  948WAT     H1 3086   7.247   7.032   7.247
  948WAT     H2 3087   7.315   6.884   7.255
  949WAT      O 3088   0.007   2.041   4.914
  949WAT     H1 3089  -0.035   1.964   4.962
  949WAT     H2 3090   0.087   2.010   4.864
  950WAT      O 3091   7.121   6.477   6.090
  950WAT     H1 3092   7.052   6.446   6.024
  950WAT     H2 3093   7.098   6.443   6.181
  951WAT      O 3094   0.954   3.744   4.703
  951WAT     H1 3095   1.044   3.721   4.667
  951WAT     H2 3096   0.915   3.664   4.749
  952WAT      O 3097   6.424   9.720   3.881
  952WAT     H1 3098   6.519   9.748   3.894
  952WAT     H2 3099   6.413   9.678   3.791
  953WAT      O 3100   6.143   8.918   0.461
  953WAT     H1 3101   6.086   9.000   0.452
  953WAT     H2 3102   6.228   8.942   0.507
  954WAT      O 3103   8.062   7.356   0.485
  954WAT     H1 3104   8.115   7.304   0.418
  954WAT     H2 3105   7.987   7.403   0.438
  955WAT      O 3106   7.586   2.622   3.756
  955WAT     H1 3107   7.641   2.602   3.675
  955WAT     H2 3108   7.490   2.627   3.730
  956WAT      O 3109   4.272   1.039   0.802
  956WAT     H1 3110   4.286   0.940   0.816
  956WAT     H2 3111   4.286   1.087   0.888
  957WAT      O 3112   7.172   6.592   8.650
  957WAT     H1 3113   7.204   6.687   8.660
  957WAT     H2 3114   7.130   6.580   8.560
  958WAT      O 3115   1.592   0.500   9.369
  958WAT     H1 3116   1.509   0.455   9.336
  958WAT     H2 3117   1.614   0.468   9.461
  959WAT      O 3118   1.965   6.302   7.451
  959WAT     H1 3119   1.895   6.356   7.497
  959WAT     H2 3120   1.923   6.225   7.403
  960WAT      O 3121   3.641   3.927   0.567
  960WAT     H1 3122   3.550   3.893   0.543
  960WAT     H2 3123   3.641   3.957   0.663
  961WAT      O 3124   0.868   4.841   3.356
  961WAT     H1 3125   0.901   4.870   3.445
  961WAT     H2 3126   0.859   4.920   3.296
  962WAT      O 3127   4.291   5.756   3.706
  962WAT     H1 3128   4.388   5.767   3.688
  962WAT     H2 3129   4.278   5.695   3.785
  963WAT      O 3130   5.059   9.557   7.933
  963WAT     H1 3131   4.985   9.572   7.999
  963WAT     H2 3132   5.073   9.458   7.921
  964WAT      O 3133   2.530   8.454   0.665
  964WAT     H1 3134   2.493   8.546   0.658
  964WAT     H2 3135   2.455   8.388   0.673
  965WAT      O 3136   7.187   1.064   6.866
  965WAT     H1 3137   7.130   0.995   6.913
  965WAT     H2 3138   7.132   1.146   6.849
  966WAT      O 3139   9.506   3.077   7.788
  966WAT     H1 3140   9.423   3.110   7.832
  966WAT     H2 3141   9.481   3.008   7.719
  967WAT      O 3142   2.189   1.484   0.419
  967WAT     H1 3143   2.248   1.491   0.339
  967WAT     H2 3144   2.234   1.428   0.489
  968WAT      O 3145   4.152   3.831   8.988
  968WAT     H1 3146   4.173   3.826   9.085
  968WAT     H2 3147   4.166   3.741   8.946
  969WAT      O 3148   7.900   7.210   6.349
  969WAT     H1 3149   7.869   7.194   6.255
  969WAT     H2 3150   7.972   7.144   6.371
  970WAT      O 3151   8.311   3.628   2.034
  970WAT     H1 3152   8.332   3.632   1.936
  970WAT     H2 3153   8.395   3.635   2.087
  971WAT      O 3154   2.652   5.945   5.289
  971WAT     H1 3155   2.631   6.013   5.219
  971WAT     H2 3156   2.706   5.987   5.361
  972WAT      O 3157   9.694   0.506   2.659
  972WAT     H1 3158   9.661   0.467   2.745
  972WAT     H2 3159   9.786   0.543   2.673
  973WAT      O 3160   2.691   1.321   5.196
  973WAT     H1 3161   2.601   1.281   5.214
  973WAT     H2 3162   2.682   1.396   5.131
  974WAT      O 3163   2.895   6.994   8.704
  974WAT     H1 3164   2.868   6.898   8.704
  974WAT     H2 3165   2.830   7.046   8.649
  975WAT      O 3166   3.933   7.253   5.167
  975WAT     H1 3167   3.928   7.188   5.243
  975WAT     H2 3168   3.966   7.341   5.200
  976WAT      O 3169   9.686   8.526   3.107
  976WAT     H1 3170   9.653   8.544   3.200
  976WAT     H2 3171   9.608   8.525   3.044
  977WAT      O 3172   9.019   4.673   0.724
  977WAT     H1 3173   8.937   4.618   0.706
  977WAT     H2 3174   9.091   4.615   0.762
  978WAT      O 3175   5.882   5.884   7.043
  978WAT     H1 3176   5.882   5.907   7.140
  978WAT     H2 3177   5.830   5.800   7.028
  979WAT      O 3178   2.780   9.264   0.464
  979WAT     H1 3179   2.764   9.192   0.532
  979WAT     H2 3180   2.846   9.330   0.500
  980WAT      O 3181   5.394   9.625   6.043
  980WAT     H1 3182   5.382   9.539   6.092
  980WAT     H2 3183   5.340   9.623   5.959
  981WAT      O 3184   3.699   4.512   6.768
  981WAT     H1 3185   3.649   4.486   6.685
  981WAT     H2 3186   3.790   4.470   6.766
  982WAT      O 3187   8.927   6.038   7.378
  982WAT     H1 3188   8.921   6.057   7.475
  982WAT     H2 3189   8.843   5.993   7.347
  983WAT      O 3190   8.790   2.968   6.783
  983WAT     H1 3191   8.867   2.931   6.730
  983WAT     H2 3192   8.734   3.026   6.724
  984WAT      O 3193   4.114   5.238   7.065
  984WAT     H1 3194   4.107   5.139   7.071
  984WAT     H2 3195   4.029   5.280   7.097
  985WAT      O 3196   3.557   1.382   7.459
  985WAT     H1 3197   3.493   1.353   7.387
  985WAT     H2 3198   3.538   1.331   7.543
  986WAT      O 3199   9.643   3.200   4.851
  986WAT     H1 3200   9.559   3.171   4.897
  986WAT     H2 3201   9.620   3.265   4.778
  987WAT      O 3202   2.263   3.079   8.246
  987WAT     H1 3203   2.339   3.041   8.192
  987WAT     H2 3204   2.239   3.015   8.319
  988WAT      O 3205   4.426   4.848   4.874
  988WAT     H1 3206   4.474   4.910   4.935
  988WAT     H2 3207   4.402   4.764   4.923
  989WAT      O 3208   3.321   5.770   4.122
  989WAT     H1 3209   3.353   5.864   4.119
  989WAT     H2 3210   3.221   5.768   4.127
  990WAT      O 3211   2.507   1.114   0.105
  990WAT     H1 3212   2.435   1.160   0.053
  990WAT     H2 3213   2.596   1.136   0.066
  991WAT      O 3214   2.710   5.774   3.240
  991WAT     H1 3215   2.770   5.843   3.199
  991WAT     H2 3216   2.730   5.684   3.200
  992WAT      O 3217   3.124   4.714   4.116
  992WAT     H1 3218   3.125   4.641   4.047
  992WAT     H2 3219   3.044   4.773   4.100
  993WAT      O 3220   8.007   3.367   9.619
  993WAT     H1 3221   8.023   3.362   9.718
  993WAT     H2 3222   7.934   3.433   9.601
  994WAT      O 3223   9.430   3.192   1.050
  994WAT     H1 3224   9.507   3.244   1.013
  994WAT     H2 3225   9.364   3.173   0.977
  995WAT      O 3226   5.797   9.719   1.935
  995WAT     H1 3227   5.762   9.636   1.978
  995WAT     H2 3228   5.826   9.784   2.005
  996WAT      O 3229   2.618   7.903   1.902
  996WAT     H1 3230   2.522   7.873   1.898
  996WAT     H2 3231   2.624   7.989   1.952
  997WAT      O 3232   2.279   6.156   3.694
  997WAT     H1 3233   2.354   6.100   3.730
  997WAT     H2 3234   2.313   6.212   3.618
  998WAT      O 3235   5.952   2.275   5.792
  998WAT     H1 3236   5.923   2.189   5.834
  998WAT     H2 3237   5.939   2.271   5.693
  999WAT      O 3238   4.912   1.644   9.561
  999WAT     H1 3239   4.991   1.700   9.584
  999WAT     H2 3240   4.852   1.694   9.499
 1000WAT      O 3241   3.628   6.617   2.849
 1000WAT     H1 3242   3.621   6.678   2.928
 1000WAT     H2 3243   3.722   6.616   2.816
 1001WAT      O 3244   5.830   2.940   7.459
 1001WAT     H1 3245   5.784   2.907   7.377
 1001WAT     H2 3246   5.762   2.956   7.531
 1002WAT      O 3247   3.064   5.748   4.144
 1002WAT     H1 3248   3.039   5.768   4.239
 1002WAT     H2 3249   3.037   5.654   4.121
 1003WAT      O 3250   6.266   4.536   5.100
 1003WAT     H1 3251   6.355   4.513   5.139
 1003WAT     H2 3252   6.193   4.491   5.152
 1004WAT      O 3253   2.163   8.499   5.928
 1004WAT     H1 3254   2.243   8.507   5.987
 1004WAT     H2 3255   2.084   8.471   5.983
 1005WAT      O 3256   2.460   0.962   5.566
 1005WAT     H1 3257   2.408   0.896   5.621
 1005WAT     H2 3258   2.470   1.047   5.618
 1006WAT      O 3259   4.217   3.571   6.271
 1006WAT     H1 3260   4.130   3.606   6.235
 1006WAT     H2 3261   4.286   3.643   6.267
 1007WAT      O 3262   8.648   9.583   3.918
 1007WAT     H1 3263   8.562   9.540   3.891
 1007WAT     H2 3264   8.707   9.515   3.961
 1008WAT      O 3265   2.455   7.179   8.335
 1008WAT     H1 3266   2.409   7.267   8.317
 1008WAT     H2 3267   2.454   7.124   8.251
 1009WAT      O 3268   6.747   6.100   6.637
 1009WAT     H1 3269   6.816   6.028   6.650
 1009WAT     H2 3270   6.656   6.062   6.654
 1010WAT      O 3271   0.058   5.261   5.749
 1010WAT     H1 3272   0.034   5.164   5.754
 1010WAT     H2 3273   0.128   5.276   5.680
 1011WAT      O 3274   5.797   3.850   0.925
 1011WAT     H1 3275   5.772   3.945   0.944
 1011WAT     H2 3276   5.880   3.849   0.869
 1012WAT      O 3277   5.448   3.090   7.305
 1012WAT     H1 3278   5.471   3.121   7.397
 1012WAT     H2 3279   5.439   2.990   7.306
 1013WAT      O 3280   6.775   8.355   8.909
 1013WAT     H1 3281   6.751   8.261   8.883
 1013WAT     H2 3282   6.867   8.356   8.950
 1014WAT      O 3283   8.860   9.498   8.708
 1014WAT     H1 3284   8.954   9.476   8.733
 1014WAT     H2 3285   8.850   9.493   8.609
 1015WAT      O 3286   4.461   2.184   5.018
 1015WAT     H1 3287   4.375   2.150   4.981
 1015WAT     H2 3288   4.537   2.137   4.972
 1016WAT      O 3289   9.500   4.954   3.251
 1016WAT     H1 3290   9.538   5.046   3.236
 1016WAT     H2 3291   9.562   4.886   3.212
 1017WAT      O 3292   9.256   7.579   3.168
 1017WAT     H1 3293   9.204   7.657   3.205
 1017WAT     H2 3294   9.192   7.512   3.130
 1018WAT      O 3295   1.139   2.012   4.654
 1018WAT     H1 3296   1.150   1.963   4.568
 1018WAT     H2 3297   1.062   2.075   4.647
 1019WAT      O 3298   9.193   8.308   2.630
 1019WAT     H1 3299   9.225   8.221   2.667
 1019WAT     H2 3300   9.102   8.329   2.666
 1020WAT      O 3301   6.986   5.266   3.650
 1020WAT     H1 3302   7.036   5.197   3.598
 1020WAT     H2 3303   6.888   5.255   3.635
 1021WAT      O 3304   0.925   7.207   9.207
 1021WAT     H1 3305   0.934   7.216   9.108
 1021WAT     H2 3306   0.863   7.132   9.228
 1022WAT      O 3307   9.774   3.462   4.228
 1022WAT     H1 3308   9.688   3.485   4.272
 1022WAT     H2 3309   9.787   3.519   4.147
 1023WAT      O 3310   6.262   2.678   1.207
 1023WAT     H1 3311   6.207   2.719   1.280
 1023WAT     H2 3312   6.225   2.705   1.118
 1024WAT      O 3313   7.508   1.891   9.280
 1024WAT     H1 3314   7.460   1.847   9.356
 1024WAT     H2 3315   7.445   1.953   9.233
 1025WAT      O 3316   6.032   9.311   8.442
 1025WAT     H1 3317   6.011   9.222   8.482
 1025WAT     H2 3318   5.964   9.332   8.371
 1026WAT      O 3319   2.897   4.008   5.954
 1026WAT     H1 3320   2.865   3.961   6.036
 1026WAT     H2 3321   2.944   3.944   5.894
 1027WAT      O 3322   2.476   3.087   9.381
 1027WAT     H1 3323   2.479   3.081   9.481
 1027WAT     H2 3324   2.513   3.176   9.353
 1028WAT      O 3325   3.229   2.974   3.934
 1028WAT     H1 3326   3.299   3.039   3.965
 1028WAT     H2 3327   3.142   3.022   3.922
 1029WAT      O 3328   3.732   0.166   0.620
 1029WAT     H1 3329   3.719   0.251   0.569
 1029WAT     H2 3330   3.698   0.089   0.565
 1030WAT      O 3331   0.729   3.657   8.142
 1030WAT     H1 3332   0.720   3.684   8.238
 1030WAT     H2 3333   0.675   3.719   8.085
 1031WAT      O 3334   6.791   6.135   8.032
 1031WAT     H1 3335   6.724   6.178   8.093
 1031WAT     H2 3336   6.744   6.094   7.954
 1032WAT      O 3337   7.698   8.922   4.276
 1032WAT     H1 3338   7.703   8.904   4.178
 1032WAT     H2 3339   7.789   8.946   4.310
 1033WAT      O 3340   5.701   8.716   6.553
 1033WAT     H1 3341   5.664   8.649   6.488
 1033WAT     H2 3342   5.633   8.735   6.624
 1034WAT      O 3343   0.433   3.850   0.405
 1034WAT     H1 3344   0.352   3.815   0.453
 1034WAT     H2 3345   0.471   3.927   0.455
 1035WAT      O 3346   2.470   6.237   0.824
 1035WAT     H1 3347   2.411   6.298   0.876
 1035WAT     H2 3348   2.487   6.275   0.733
 1036WAT      O 3349   9.754   2.522   8.406
 1036WAT     H1 3350   9.830   2.581   8.377
 1036WAT     H2 3351   9.706   2.487   8.326
 1037WAT      O 3352   4.136   0.031   6.499
 1037WAT     H1 3353   4.205   0.100   6.477
 1037WAT     H2 3354   4.076   0.018   6.419
 1038WAT      O 3355   8.554   3.286   6.844
 1038WAT     H1 3356   8.591   3.211   6.789
 1038WAT     H2 3357   8.582   3.373   6.803
 1039WAT      O 3358   7.350   9.771   9.019
 1039WAT     H1 3359   7.260   9.772   9.062
 1039WAT     H2 3360   7.341   9.736   8.926
 1040WAT      O 3361   6.336   1.215   5.958
 1040WAT     H1 3362   6.314   1.119   5.971
 1040WAT     H2 3363   6.420   1.237   6.008
 1041WAT      O 3364   2.514   5.390   8.389
 1041WAT     H1 3365   2.489   5.352   8.300
 1041WAT     H2 3366   2.591   5.339   8.427
 1042WAT      O 3367   0.374   4.099   4.746
 1042WAT     H1 3368   0.454   4.115   4.804
 1042WAT     H2 3369   0.291   4.107   4.801
 1043WAT      O 3370   5.411   5.759   3.768
 1043WAT     H1 3371   5.407   5.732   3.671
 1043WAT     H2 3372   5.443   5.682   3.823
 1044WAT      O 3373   8.076   4.135   6.960
 1044WAT     H1 3374   7.990   4.121   7.008
 1044WAT     H2 3375   8.102   4.051   6.912
 1045WAT      O 3376   0.408   8.382   4.867
 1045WAT     H1 3377   0.359   8.410   4.784
 1045WAT     H2 3378   0.438   8.287   4.857
 1046WAT      O 3379   9.299   5.955   6.735
 1046WAT     H1 3380   9.247   5.942   6.650
 1046WAT     H2 3381   9.237   5.954   6.813
 1047WAT      O 3382   9.591   1.021   8.371
 1047WAT     H1 3383   9.668   1.037   8.433
 1047WAT     H2 3384   9.511   1.070   8.406
 1048WAT      O 3385   6.482   9.529   1.230
 1048WAT     H1 3386   6.462   9.432   1.213
 1048WAT     H2 3387   6.576   9.548   1.203
 1049WAT      O 3388   4.853   0.109   6.180
 1049WAT     H1 3389   4.838   0.095   6.278
 1049WAT     H2 3390   4.951   0.125   6.163
 1050WAT      O 3391   5.346   8.334   6.984
 1050WAT     H1 3392   5.330   8.236   6.994
 1050WAT     H2 3393   5.268   8.384   7.023
 1051WAT      O 3394   9.504   9.790   9.125
 1051WAT     H1 3395   9.586   9.774   9.180
 1051WAT     H2 3396   9.510   9.735   9.041
 1052WAT      O 3397   9.577   4.044   7.144
 1052WAT     H1 3398   9.662   4.076   7.186
 1052WAT     H2 3399   9.599   3.983   7.067
 1053WAT      O 3400   1.143   4.592   3.001
 1053WAT     H1 3401   1.072   4.523   2.987
 1053WAT     H2 3402   1.128   4.668   2.938
 1054WAT      O 3403   6.382   5.341   0.263
 1054WAT     H1 3404   6.369   5.278   0.186
 1054WAT     H2 3405   6.425   5.292   0.339
 1055WAT      O 3406   4.199   0.988   2.758
 1055WAT     H1 3407   4.245   0.900   2.749
 1055WAT     H2 3408   4.100   0.974   2.760
 1056WAT      O 3409   5.591   0.685   6.869
 1056WAT     H1 3410   5.615   0.669   6.773
 1056WAT     H2 3411   5.588   0.598   6.918
 1057WAT      O 3412   1.458   8.857   0.283
 1057WAT     H1 3413   1.520   8.816   0.349
 1057WAT     H2 3414   1.456   8.956   0.296
 1058WAT      O 3415   8.946   0.866   8.256
 1058WAT     H1 3416   8.895   0.814   8.188
 1058WAT     H2 3417   9.034   0.893   8.217
 1059WAT      O 3418   6.032   9.386   2.669
 1059WAT     H1 3419   6.073   9.327   2.600
 1059WAT     H2 3420   5.932   9.386   2.657
 1060WAT      O 3421   7.506   2.285   1.997
 1060WAT     H1 3422   7.457   2.200   2.020
 1060WAT     H2 3423   7.602   2.276   2.023
 1061WAT      O 3424   4.180   1.864   8.315
 1061WAT     H1 3425   4.087   1.870   8.279
 1061WAT     H2 3426   4.229   1.791   8.269
 1062WAT      O 3427   0.137   9.576   8.474
 1062WAT     H1 3428   0.147   9.477   8.476
 1062WAT     H2 3429   0.227   9.619   8.471
 1063WAT      O 3430   9.365   5.771   9.832
 1063WAT     H1 3431   9.432   5.839   9.802
 1063WAT     H2 3432   9.411   5.697   9.881
 1064WAT      O 3433   2.247   0.562   1.350
 1064WAT     H1 3434   2.321   0.625   1.375
 1064WAT     H2 3435   2.160   0.612   1.348
 1065WAT      O 3436   8.512   6.131   2.556
 1065WAT     H1 3437   8.586   6.074   2.593
 1065WAT     H2 3438   8.469   6.182   2.629
 1066WAT      O 3439   5.608   2.077   4.094
 1066WAT     H1 3440   5.543   2.046   4.163
 1066WAT     H2 3441   5.607   2.177   4.090
 1067WAT      O 3442   8.237   3.667   5.371
 1067WAT     H1 3443   8.226   3.764   5.388
 1067WAT     H2 3444   8.325   3.651   5.326
 1068WAT      O 3445   3.299   9.598   7.367
 1068WAT     H1 3446   3.381   9.651   7.389
 1068WAT     H2 3447   3.301   9.511   7.416
 1069WAT      O 3448   8.724   5.632   3.319
 1069WAT     H1 3449   8.807   5.687   3.305
 1069WAT     H2 3450   8.724   5.596   3.413
 1070WAT      O 3451   8.408   5.371   1.117
 1070WAT     H1 3452   8.481   5.402   1.056
 1070WAT     H2 3453   8.378   5.447   1.174
 1071WAT      O 3454   3.693   8.834   7.855
 1071WAT     H1 3455   3.731   8.742   7.867
 1071WAT     H2 3456   3.735   8.877   7.775
 1072WAT      O 3457   0.313   8.517   4.318
 1072WAT     H1 3458   0.324   8.589   4.386
 1072WAT     H2 3459   0.254   8.550   4.244
 1073WAT      O 3460   7.944   6.459   5.183
 1073WAT     H1 3461   7.945   6.421   5.090
 1073WAT     H2 3462   7.998   6.543   5.185
 1074WAT      O 3463   9.246   7.565   7.800
 1074WAT     H1 3464   9.340   7.564   7.766
 1074WAT     H2 3465   9.232   7.490   7.864
 1075WAT      O 3466   6.800   5.158   9.085
 1075WAT     H1 3467   6.750   5.198   9.008
 1075WAT     H2 3468   6.750   5.173   9.170
 1076WAT      O 3469   7.434   0.187   8.741
 1076WAT     H1 3470   7.430   0.088   8.730
 1076WAT     H2 3471   7.525   0.213   8.773
 1077WAT      O 3472   5.210   3.396   2.043
 1077WAT     H1 3473   5.128   3.406   2.099
 1077WAT     H2 3474   5.201   3.452   1.961
 1078WAT      O 3475   6.482   3.463   2.490
 1078WAT     H1 3476   6.407   3.506   2.541
 1078WAT     H2 3477   6.446   3.420   2.408
 1079WAT      O 3478   8.072   7.392   4.017
 1079WAT     H1 3479   7.999   7.352   3.962
 1079WAT     H2 3480   8.155   7.337   4.008
 1080WAT      O 3481   1.635   7.116   7.934
 1080WAT     H1 3482   1.699   7.060   7.986
 1080WAT     H2 3483   1.639   7.211   7.967
 1081WAT      O 3484   2.688   1.216   6.045
 1081WAT     H1 3485   2.648   1.200   6.136
 1081WAT     H2 3486   2.764   1.154   6.030
 1082WAT      O 3487   3.451   4.480   6.895
 1082WAT     H1 3488   3.422   4.398   6.944
 1082WAT     H2 3489   3.547   4.471   6.868
 1083WAT      O 3490   8.850   6.188   6.587
 1083WAT     H1 3491   8.848   6.112   6.522
 1083WAT     H2 3492   8.939   6.233   6.583
 1084WAT      O 3493   7.905   7.216   8.809
 1084WAT     H1 3494   7.863   7.303   8.784
 1084WAT     H2 3495   7.955   7.226   8.895
 1085WAT      O 3496   3.397   0.060   9.430
 1085WAT     H1 3497   3.369   0.006   9.510
 1085WAT     H2 3498   3.320   0.068   9.367
 1086WAT      O 3499   5.767   5.600   5.709
 1086WAT     H1 3500   5.730   5.534   5.774
 1086WAT     H2 3501   5.863   5.618   5.730
 1087WAT      O 3502   6.155   4.201   9.746
 1087WAT     H1 3503   6.090   4.270   9.713
 1087WAT     H2 3504   6.239   4.246   9.776
 1088WAT      O 3505   6.078   6.658   5.367
 1088WAT     H1 3506   6.035   6.610   5.290
 1088WAT     H2 3507   6.081   6.756   5.347
 1089WAT      O 3508   4.760   3.146   0.117
 1089WAT     H1 3509   4.785   3.232   0.162
 1089WAT     H2 3510   4.840   3.086   0.115
 1090WAT      O 3511   4.359   0.252   7.472
 1090WAT     H1 3512   4.431   0.247   7.402
 1090WAT     H2 3513   4.377   0.182   7.542
 1091WAT      O 3514   0.292   8.663   0.879
 1091WAT     H1 3515   0.388   8.685   0.861
 1091WAT     H2 3516   0.276   8.566   0.860
 1092WAT      O 3517   0.287   4.850   0.815
 1092WAT     H1 3518   0.212   4.812   0.761
 1092WAT     H2 3519   0.273   4.827   0.912
 1093WAT      O 3520   0.752   8.679   1.458
 1093WAT     H1 3521   0.698   8.632   1.388
 1093WAT     H2 3522   0.736   8.777   1.453
 1094WAT      O 3523   4.381   5.936   7.235
 1094WAT     H1 3524   4.422   5.932   7.326
 1094WAT     H2 3525   4.453   5.937   7.166
 1095WAT      O 3526   1.726   8.654   0.182
 1095WAT     H1 3527   1.724   8.701   0.094
 1095WAT     H2 3528   1.667   8.573   0.178
 1096WAT      O 3529   9.720   1.550   7.068
 1096WAT     H1 3530   9.628   1.589   7.059
 1096WAT     H2 3531   9.748   1.513   6.979
 1097WAT      O 3532   5.246   8.018   0.706
 1097WAT     H1 3533   5.201   8.107   0.706
 1097WAT     H2 3534   5.273   7.994   0.799
 1098WAT      O 3535   4.887   5.884   0.109
 1098WAT     H1 3536   4.924   5.899   0.201
 1098WAT     H2 3537   4.826   5.959   0.085
 1099WAT      O 3538   9.299   8.165   8.922
 1099WAT     H1 3539   9.233   8.203   8.857
 1099WAT     H2 3540   9.266   8.077   8.956
 1100WAT      O 3541   6.300   7.867   6.150
 1100WAT     H1 3542   6.253   7.911   6.074
 1100WAT     H2 3543   6.253   7.889   6.235
 1101WAT      O 3544   7.238   0.595   2.579
 1101WAT     H1 3545   7.212   0.689   2.555
 1101WAT     H2 3546   7.196   0.570   2.666
 1102WAT      O 3547   4.458   7.146   4.374
 1102WAT     H1 3548   4.397   7.195   4.436
 1102WAT     H2 3549   4.407   7.120   4.291
 1103WAT      O 3550   0.862   6.938   9.133
 1103WAT     H1 3551   0.776   6.957   9.085
 1103WAT     H2 3552   0.913   6.868   9.084
 1104WAT      O 3553   0.103   2.944   2.470
 1104WAT     H1 3554   0.020   2.998   2.482
 1104WAT     H2 3555   0.107   2.872   2.539
 1105WAT      O 3556   7.490   5.789   7.248
 1105WAT     H1 3557   7.446   5.823   7.165
 1105WAT     H2 3558   7.436   5.813   7.327
 1106WAT      O 3559   5.325   8.239   4.193
 1106WAT     H1 3560   5.249   8.235   4.128
 1106WAT     H2 3561   5.398   8.295   4.156
 1107WAT      O 3562   4.806   3.588   2.366
 1107WAT     H1 3563   4.711   3.557   2.374
 1107WAT     H2 3564   4.855   3.569   2.451
 1108WAT      O 3565   1.001   2.170   4.289
 1108WAT     H1 3566   0.978   2.080   4.251
 1108WAT     H2 3567   1.049   2.224   4.221
 1109WAT      O 3568   5.460   3.751   3.934
 1109WAT     H1 3569   5.504   3.684   3.993
 1109WAT     H2 3570   5.528   3.819   3.905
 1110WAT      O 3571   3.345   0.153   6.263
 1110WAT     H1 3572   3.339   0.249   6.239
 1110WAT     H2 3573   3.255   0.119   6.291
 1111WAT      O 3574   5.654   3.533   8.109
 1111WAT     H1 3575   5.611   3.444   8.092
 1111WAT     H2 3576   5.688   3.570   8.022
 1112WAT      O 3577   3.510   6.876   5.412
 1112WAT     H1 3578   3.488   6.810   5.340
 1112WAT     H2 3579   3.564   6.951   5.373
 1113WAT      O 3580   5.390   9.599   9.304
 1113WAT     H1 3581   5.298   9.576   9.335
 1113WAT     H2 3582   5.385   9.661   9.225
 1114WAT      O 3583   7.449   4.189   4.964
 1114WAT     H1 3584   7.530   4.247   4.958
 1114WAT     H2 3585   7.422   4.160   4.872
 1115WAT      O 3586   3.446   1.728   8.032
 1115WAT     H1 3587   3.453   1.810   7.976
 1115WAT     H2 3588   3.529   1.673   8.021
 1116WAT      O 3589   3.423   0.321   3.162
 1116WAT     H1 3590   3.468   0.241   3.202
 1116WAT     H2 3591   3.400   0.386   3.234
 1117WAT      O 3592   0.208   5.909   6.026
 1117WAT     H1 3593   0.221   5.812   6.007
 1117WAT     H2 3594   0.119   5.938   5.991
 1118WAT      O 3595   6.192   7.811   7.286
 1118WAT     H1 3596   6.290   7.832   7.285
 1118WAT     H2 3597   6.161   7.790   7.193
 1119WAT      O 3598   0.734   0.299   3.673
 1119WAT     H1 3599   0.655   0.289   3.733
 1119WAT     H2 3600   0.739   0.222   3.609
 1120WAT      O 3601   8.188   8.701   9.083
 1120WAT     H1 3602   8.205   8.650   9.167
 1120WAT     H2 3603   8.272   8.748   9.055
 1121WAT      O 3604   4.075   4.238   6.584
 1121WAT     H1 3605   4.075   4.283   6.494
 1121WAT     H2 3606   3.981   4.216   6.610
 1122WAT      O 3607   6.397   3.286   3.430
 1122WAT     H1 3608   6.336   3.210   3.408
 1122WAT     H2 3609   6.408   3.293   3.529
 1123WAT      O 3610   3.918   0.177   3.455
 1123WAT     H1 3611   3.889   0.089   3.492
 1123WAT     H2 3612   3.933   0.241   3.530
 1124WAT      O 3613   8.783   1.122   1.940
 1124WAT     H1 3614   8.836   1.207   1.935
 1124WAT     H2 3615   8.695   1.139   1.984
 1125WAT      O 3616   7.344   9.480   2.909
 1125WAT     H1 3617   7.396   9.407   2.864
 1125WAT     H2 3618   7.247   9.456   2.911
 1126WAT      O 3619   4.432   6.993   4.657
 1126WAT     H1 3620   4.369   6.975   4.580
 1126WAT     H2 3621   4.525   7.000   4.622
 1127WAT      O 3622   4.797   2.293   5.431
 1127WAT     H1 3623   4.777   2.201   5.466
 1127WAT     H2 3624   4.767   2.299   5.335
 1128WAT      O 3625   1.030   3.981   6.775
 1128WAT     H1 3626   1.115   4.009   6.731
 1128WAT     H2 3627   1.000   4.052   6.839
 1129WAT      O 3628   3.139   4.701   3.754
 1129WAT     H1 3629   3.047   4.703   3.717
 1129WAT     H2 3630   3.164   4.792   3.787
 1130WAT      O 3631   4.424   3.449   4.015
 1130WAT     H1 3632   4.511   3.459   3.967
 1130WAT     H2 3633   4.426   3.366   4.071
 1131WAT      O 3634   1.685   8.159   8.456
 1131WAT     H1 3635   1.776   8.156   8.497
 1131WAT     H2 3636   1.618   8.182   8.526
 1132WAT      O 3637   1.865   5.071   7.110
 1132WAT     H1 3638   1.803   5.006   7.156
 1132WAT     H2 3639   1.959   5.050   7.135
 1133WAT      O 3640   1.314   0.707   9.470
 1133WAT     H1 3641   1.226   0.750   9.489
 1133WAT     H2 3642   1.387   0.760   9.514
 1134WAT      O 3643   4.746   8.565   8.159
 1134WAT     H1 3644   4.774   8.470   8.173
 1134WAT     H2 3645   4.699   8.573   8.071
 1135WAT      O 3646   1.274   7.500   3.299
 1135WAT     H1 3647   1.244   7.508   3.394
 1135WAT     H2 3648   1.212   7.439   3.249
 1136WAT      O 3649   8.399   4.602   4.482
 1136WAT     H1 3650   8.468   4.530   4.490
 1136WAT     H2 3651   8.432   4.686   4.524
 1137WAT      O 3652   6.958   1.856   6.537
 1137WAT     H1 3653   6.969   1.758   6.524
 1137WAT     H2 3654   6.860   1.878   6.541
 1138WAT      O 3655   4.812   0.068   7.424
 1138WAT     H1 3656   4.794   0.122   7.342
 1138WAT     H2 3657   4.862  -0.015   7.398
 1139WAT      O 3658   2.793   0.047   2.765
 1139WAT     H1 3659   2.822   0.123   2.823
 1139WAT     H2 3660   2.827  -0.039   2.803
 1140WAT      O 3661   6.888   2.463   5.797
 1140WAT     H1 3662   6.935   2.535   5.745
 1140WAT     H2 3663   6.941   2.379   5.794
 1141WAT      O 3664   6.221   5.013   2.894
 1141WAT     H1 3665   6.224   5.108   2.923
 1141WAT     H2 3666   6.127   4.983   2.883
 1142WAT      O 3667   8.147   0.872   5.689
 1142WAT     H1 3668   8.105   0.931   5.757
 1142WAT     H2 3669   8.247   0.883   5.693
 1143WAT      O 3670   3.587   4.611   3.805
 1143WAT     H1 3671   3.599   4.646   3.898
 1143WAT     H2 3672   3.674   4.620   3.755
 1144WAT      O 3673   9.185   0.892   5.547
 1144WAT     H1 3674   9.154   0.955   5.476
 1144WAT     H2 3675   9.148   0.920   5.636
 1145WAT      O 3676   4.093   8.644   8.612
 1145WAT     H1 3677   4.172   8.604   8.564
 1145WAT     H2 3678   4.087   8.604   8.703
 1146WAT      O 3679   0.627   1.816   6.256
 1146WAT     H1 3680   0.655   1.794   6.349
 1146WAT     H2 3681   0.612   1.915   6.248
 1147WAT      O 3682   2.090   2.974   4.901
 1147WAT     H1 3683   2.080   2.959   5.000
 1147WAT     H2 3684   2.160   2.913   4.865
 1148WAT      O 3685   4.875   7.559   1.754
 1148WAT     H1 3686   4.924   7.558   1.841
 1148WAT     H2 3687   4.909   7.485   1.695
 1149WAT      O 3688   6.017   8.272   2.358
 1149WAT     H1 3689   6.007   8.228   2.448
 1149WAT     H2 3690   5.996   8.369   2.367
 1150WAT      O 3691   0.205   1.540   1.343
 1150WAT     H1 3692   0.157   1.620   1.379
 1150WAT     H2 3693   0.241   1.560   1.252
 1151WAT      O 3694   7.836   6.993   3.500
 1151WAT     H1 3695   7.801   6.911   3.454
 1151WAT     H2 3696   7.856   6.972   3.595
 1152WAT      O 3697   2.530   5.940   1.707
 1152WAT     H1 3698   2.485   5.850   1.703
 1152WAT     H2 3699   2.470   6.009   1.666
 1153WAT      O 3700   0.811   5.079   4.547
 1153WAT     H1 3701   0.721   5.078   4.504
 1153WAT     H2 3702   0.867   5.005   4.511
 1154WAT      O 3703   9.284   7.090   8.131
 1154WAT     H1 3704   9.188   7.095   8.106
 1154WAT     H2 3705   9.316   6.995   8.123
 1155WAT      O 3706   1.199   1.852   9.847
 1155WAT     H1 3707   1.235   1.782   9.908
 1155WAT     H2 3708   1.099   1.846   9.844
 1156WAT      O 3709   8.757   5.348   1.297
 1156WAT     H1 3710   8.842   5.296   1.286
 1156WAT     H2 3711   8.709   5.353   1.209
 1157WAT      O 3712   3.270   3.038   6.530
 1157WAT     H1 3713   3.199   3.097   6.570
 1157WAT     H2 3714   3.344   3.095   6.494
 1158WAT      O 3715   8.978   9.100   6.028
 1158WAT     H1 3716   8.910   9.147   5.972
 1158WAT     H2 3717   9.055   9.073   5.970
 1159WAT      O 3718   4.871   4.713   9.224
 1159WAT     H1 3719   4.824   4.627   9.208
 1159WAT     H2 3720   4.846   4.749   9.314
 1160WAT      O 3721   8.046   8.065   5.586
 1160WAT     H1 3722   7.980   8.068   5.511
 1160WAT     H2 3723   7.999   8.072   5.674
 1161WAT      O 3724   2.509   1.721   4.515
 1161WAT     H1 3725   2.538   1.748   4.423
 1161WAT     H2 3726   2.435   1.781   4.545
 1162WAT      O 3727   7.084   1.669   9.146
 1162WAT     H1 3728   6.989   1.680   9.176
 1162WAT     H2 3729   7.085   1.627   9.055
 1163WAT      O 3730   7.327   0.819   2.932
 1163WAT     H1 3731   7.325   0.844   3.028
 1163WAT     H2 3732   7.395   0.875   2.884
 1164WAT      O 3733   6.045   8.131   6.223
 1164WAT     H1 3734   6.048   8.110   6.320
 1164WAT     H2 3735   5.974   8.076   6.179
 1165WAT      O 3736   7.663   7.632   3.603
 1165WAT     H1 3737   7.686   7.729   3.607
 1165WAT     H2 3738   7.740   7.581   3.563
 1166WAT      O 3739   1.357   7.356   4.945
 1166WAT     H1 3740   1.428   7.287   4.929
 1166WAT     H2 3741   1.286   7.317   5.004
 1167WAT      O 3742   9.200   8.030   2.197
 1167WAT     H1 3743   9.134   8.101   2.173
 1167WAT     H2 3744   9.288   8.051   2.154
 1168WAT      O 3745   4.024   9.476   4.812
 1168WAT     H1 3746   3.971   9.561   4.808
 1168WAT     H2 3747   4.087   9.473   4.734
 1169WAT      O 3748   5.703   3.243   6.096
 1169WAT     H1 3749   5.663   3.248   6.004
 1169WAT     H2 3750   5.689   3.151   6.133
 1170WAT      O 3751   7.450   4.964   9.480
 1170WAT     H1 3752   7.413   5.039   9.425
 1170WAT     H2 3753   7.475   4.889   9.419
 1171WAT      O 3754   3.004   7.531   8.895
 1171WAT     H1 3755   3.052   7.446   8.917
 1171WAT     H2 3756   3.048   7.607   8.941
 1172WAT      O 3757   5.787   0.770   4.541
 1172WAT     H1 3758   5.707   0.778   4.601
 1172WAT     H2 3759   5.782   0.685   4.489
 1173WAT      O 3760   7.659   2.542   0.718
 1173WAT     H1 3761   7.654   2.443   0.704
 1173WAT     H2 3762   7.736   2.579   0.666
 1174WAT      O 3763   7.330   2.636   3.019
 1174WAT     H1 3764   7.404   2.578   2.984
 1174WAT     H2 3765   7.352   2.732   3.002
 1175WAT      O 3766   6.317   3.424   7.240
 1175WAT     H1 3767   6.379   3.502   7.231
 1175WAT     H2 3768   6.237   3.437   7.181
 1176WAT      O 3769   8.433   0.845   5.618
 1176WAT     H1 3770   8.434   0.934   5.571
 1176WAT     H2 3771   8.485   0.779   5.565
 1177WAT      O 3772   4.474   0.844   1.402
 1177WAT     H1 3773   4.397   0.907   1.411
 1177WAT     H2 3774   4.448   0.754   1.438
 1178WAT      O 3775   8.498   1.252   5.055
 1178WAT     H1 3776   8.592   1.285   5.043
 1178WAT     H2 3777   8.455   1.240   4.966
 1179WAT      O 3778   5.144   1.801   9.521
 1179WAT     H1 3779   5.092   1.840   9.445
 1179WAT     H2 3780   5.200   1.725   9.487
 1180WAT      O 3781   0.378   3.017   3.184
 1180WAT     H1 3782   0.387   2.923   3.216
 1180WAT     H2 3783   0.319   3.018   3.103
 1181WAT      O 3784   4.245   1.586   2.582
 1181WAT     H1 3785   4.159   1.555   2.543
 1181WAT     H2 3786   4.307   1.508   2.594
 1182WAT      O 3787   2.378   6.385   9.478
 1182WAT     H1 3788   2.472   6.381   9.510
 1182WAT     H2 3789   2.369   6.335   9.392
 1183WAT      O 3790   8.335   1.820   6.104
 1183WAT     H1 3791   8.434   1.803   6.103
 1183WAT     H2 3792   8.315   1.894   6.168
 1184WAT      O 3793   9.740   7.044   5.995
 1184WAT     H1 3794   9.680   6.965   5.981
 1184WAT     H2 3795   9.824   7.015   6.040
 1185WAT      O 3796   2.267   7.955   0.343
 1185WAT     H1 3797   2.215   7.882   0.387
 1185WAT     H2 3798   2.306   7.920   0.257
 1186WAT      O 3799   4.131   3.555   6.533
 1186WAT     H1 3800   4.151   3.566   6.436
 1186WAT     H2 3801   4.173   3.470   6.566
 1187WAT      O 3802   0.326   6.049   4.890
 1187WAT     H1 3803   0.414   6.084   4.859
 1187WAT     H2 3804   0.330   5.949   4.894
 1188WAT      O 3805   0.042   6.212   3.671
 1188WAT     H1 3806   0.022   6.289   3.731
 1188WAT     H2 3807  -0.040   6.186   3.621
 1189WAT      O 3808   4.707   2.908   7.712
 1189WAT     H1 3809   4.776   2.968   7.752
 1189WAT     H2 3810   4.640   2.883   7.782
 1190WAT      O 3811   5.745   7.277   7.658
 1190WAT     H1 3812   5.843   7.261   7.643
 1190WAT     H2 3813   5.732   7.365   7.703
 1191WAT      O 3814   2.133   9.213   7.066
 1191WAT     H1 3815   2.039   9.226   7.036
 1191WAT     H2 3816   2.149   9.115   7.083
 1192WAT      O 3817   5.300   0.565   3.320
 1192WAT     H1 3818   5.270   0.615   3.239
 1192WAT     H2 3819   5.371   0.618   3.367
 1193WAT      O 3820   7.255   4.030   3.656
 1193WAT     H1 3821   7.343   4.055   3.696
 1193WAT     H2 3822   7.244   3.930   3.659
 1194WAT      O 3823   3.314   2.767   6.454
 1194WAT     H1 3824   3.319   2.733   6.548
 1194WAT     H2 3825   3.303   2.866   6.455
 1195WAT      O 3826   2.861   8.520   5.662
 1195WAT     H1 3827   2.766   8.493   5.647
 1195WAT     H2 3828   2.900   8.464   5.735
 1196WAT      O 3829   7.677   8.698   8.257
 1196WAT     H1 3830   7.624   8.635   8.200
 1196WAT     H2 3831   7.615   8.757   8.308
 1197WAT      O 3832   3.812   7.615   6.372
 1197WAT     H1 3833   3.909   7.593   6.379
 1197WAT     H2 3834   3.801   7.715   6.370
 1198WAT      O 3835   5.481   7.322   0.425
 1198WAT     H1 3836   5.447   7.237   0.384
 1198WAT     H2 3837   5.525   7.378   0.354
 1199WAT      O 3838   1.379   2.304   5.592
 1199WAT     H1 3839   1.431   2.372   5.540
 1199WAT     H2 3840   1.360   2.340   5.683
 1200WAT      O 3841   1.849   9.702   1.276
 1200WAT     H1 3842   1.888   9.778   1.226
 1200WAT     H2 3843   1.886   9.701   1.369
 1201WAT      O 3844   4.225   3.764   4.733
 1201WAT     H1 3845   4.237   3.854   4.692
 1201WAT     H2 3846   4.201   3.774   4.829
 1202WAT      O 3847   7.720   5.182   2.954
 1202WAT     H1 3848   7.750   5.129   3.033
 1202WAT     H2 3849   7.789   5.178   2.882
 1203WAT      O 3850   8.430   7.965   8.604
 1203WAT     H1 3851   8.354   7.973   8.538
 1203WAT     H2 3852   8.452   7.868   8.617
 1204WAT      O 3853   5.595   6.518   2.077
 1204WAT     H1 3854   5.591   6.587   2.149
 1204WAT     H2 3855   5.516   6.527   2.017
 1205WAT      O 3856   4.506   7.322   3.752
 1205WAT     H1 3857   4.433   7.304   3.817
 1205WAT     H2 3858   4.594   7.320   3.800
 1206WAT      O 3859   0.676   1.633   6.043
 1206WAT     H1 3860   0.655   1.703   6.112
 1206WAT     H2 3861   0.632   1.547   6.069
 1207WAT      O 3862   7.671   8.276   5.457
 1207WAT     H1 3863   7.710   8.218   5.529
 1207WAT     H2 3864   7.663   8.370   5.490
 1208WAT      O 3865   4.023   9.141   0.459
 1208WAT     H1 3866   4.018   9.076   0.535
 1208WAT     H2 3867   4.071   9.224   0.490
 1209WAT      O 3868   7.196   6.143   6.188
 1209WAT     H1 3869   7.199   6.200   6.271
 1209WAT     H2 3870   7.187   6.202   6.108
 1210WAT      O 3871   4.073   3.383   5.834
 1210WAT     H1 3872   4.003   3.312   5.828
 1210WAT     H2 3873   4.162   3.344   5.811
 1211WAT      O 3874   8.906   0.448   1.304
 1211WAT     H1 3875   8.988   0.447   1.246
 1211WAT     H2 3876   8.882   0.355   1.330
 1212WAT      O 3877   2.734   2.867   4.817
 1212WAT     H1 3878   2.777   2.957   4.828
 1212WAT     H2 3879   2.709   2.831   4.907
 1213WAT      O 3880   0.462   7.753   8.133
 1213WAT     H1 3881   0.501   7.678   8.078
 1213WAT     H2 3882   0.536   7.806   8.174
 1214WAT      O 3883   4.880   8.626   1.196
 1214WAT     H1 3884   4.901   8.529   1.200
 1214WAT     H2 3885   4.867   8.654   1.100
 1215WAT      O 3886   5.881   7.438   4.150
 1215WAT     H1 3887   5.820   7.359   4.146
 1215WAT     H2 3888   5.955   7.420   4.215
 1216WAT      O 3889   6.341   9.672   1.066
 1216WAT     H1 3890   6.254   9.628   1.046
 1216WAT     H2 3891   6.404   9.607   1.109
 1217WAT      O 3892   1.304   0.775   6.014
 1217WAT     H1 3893   1.256   0.752   5.929
 1217WAT     H2 3894   1.241   0.769   6.091
 1218WAT      O 3895   1.439   6.422   8.744
 1218WAT     H1 3896   1.388   6.490   8.691
 1218WAT     H2 3897   1.534   6.453   8.753
 1219WAT      O 3898   4.190   7.366   6.336
 1219WAT     H1 3899   4.132   7.339   6.260
 1219WAT     H2 3900   4.282   7.385   6.302
 1220WAT      O 3901   4.518   6.851   4.249
 1220WAT     H1 3902   4.455   6.920   4.212
 1220WAT     H2 3903   4.610   6.869   4.216
 1221WAT      O 3904   6.948   3.730   9.475
 1221WAT     H1 3905   6.905   3.659   9.420
 1221WAT     H2 3906   6.947   3.816   9.424
 1222WAT      O 3907   8.222   1.128   9.374
 1222WAT     H1 3908   8.245   1.176   9.458
 1222WAT     H2 3909   8.303   1.082   9.338
 1223WAT      O 3910   2.461   4.809   8.332
 1223WAT     H1 3911   2.462   4.836   8.428
 1223WAT     H2 3912   2.538   4.851   8.284
 1224WAT      O 3913   2.947   0.539   8.261
 1224WAT     H1 3914   2.944   0.489   8.175
 1224WAT     H2 3915   2.972   0.477   8.335
 1225WAT      O 3916   3.796   9.298   6.980
 1225WAT     H1 3917   3.724   9.327   7.045
 1225WAT     H2 3918   3.809   9.200   6.987
 1226WAT      O 3919   4.552   4.671   8.354
 1226WAT     H1 3920   4.571   4.704   8.446
 1226WAT     H2 3921   4.615   4.597   8.331
 1227WAT      O 3922   9.087   0.014   8.635
 1227WAT     H1 3923   9.163   0.030   8.571
 1227WAT     H2 3924   9.121   0.023   8.728
 1228WAT      O 3925   7.458   5.133   2.926
 1228WAT     H1 3926   7.450   5.077   2.844
 1228WAT     H2 3927   7.549   5.177   2.928
 1229WAT      O 3928   2.591   5.230   1.835
 1229WAT     H1 3929   2.639   5.287   1.768
 1229WAT     H2 3930   2.517   5.180   1.790
 1230WAT      O 3931   5.342   1.639   4.413
 1230WAT     H1 3932   5.251   1.675   4.397
 1230WAT     H2 3933   5.345   1.542   4.388
 1231WAT      O 3934   1.479   9.672   4.270
 1231WAT     H1 3935   1.380   9.687   4.262
 1231WAT     H2 3936   1.526   9.718   4.194
 1232WAT      O 3937   9.883   5.143   1.644
 1232WAT     H1 3938   9.854   5.236   1.623
 1232WAT     H2 3939   9.977   5.129   1.615
 1233WAT      O 3940   2.698   8.817   3.965
 1233WAT     H1 3941   2.704   8.903   3.913
 1233WAT     H2 3942   2.768   8.754   3.932
 1234WAT      O 3943   1.200   8.832   7.083
 1234WAT     H1 3944   1.229   8.914   7.133
 1234WAT     H2 3945   1.208   8.848   6.985
 1235WAT      O 3946   0.123   1.360   5.023
 1235WAT     H1 3947   0.115   1.312   4.935
 1235WAT     H2 3948   0.054   1.432   5.027
 1236WAT      O 3949   5.713   8.048   0.129
 1236WAT     H1 3950   5.810   8.069   0.115
 1236WAT     H2 3951   5.701   8.007   0.220
 1237WAT      O 3952   6.720   2.363   9.134
 1237WAT     H1 3953   6.694   2.279   9.088
 1237WAT     H2 3954   6.807   2.396   9.097
 1238WAT      O 3955   8.627   0.625   5.625
 1238WAT     H1 3956   8.663   0.532   5.638
 1238WAT     H2 3957   8.599   0.662   5.713
 1239WAT      O 3958   5.612   4.070   7.445
 1239WAT     H1 3959   5.682   4.007   7.410
 1239WAT     H2 3960   5.546   4.088   7.373
 1240WAT      O 3961   7.453   1.346   0.461
 1240WAT     H1 3962   7.367   1.367   0.506
 1240WAT     H2 3963   7.504   1.279   0.516
 1241WAT      O 3964   7.126   4.416   2.127
 1241WAT     H1 3965   7.048   4.468   2.160
 1241WAT     H2 3966   7.104   4.318   2.126
 1242WAT      O 3967   6.467   2.961   6.056
 1242WAT     H1 3968   6.464   3.030   6.129
 1242WAT     H2 3969   6.557   2.917   6.056
 1243WAT      O 3970   8.831   6.246   3.284
 1243WAT     H1 3971   8.877   6.217   3.200
 1243WAT     H2 3972   8.849   6.343   3.300
 1244WAT      O 3973   2.519   6.075   6.168
 1244WAT     H1 3974   2.465   6.032   6.096
 1244WAT     H2 3975   2.600   6.118   6.128
 1245WAT      O 3976   5.540   5.312   5.089
 1245WAT     H1 3977   5.579   5.298   4.998
 1245WAT     H2 3978   5.533   5.410   5.107
 1246WAT      O 3979   7.733   3.823   5.751
 1246WAT     H1 3980   7.789   3.749   5.786
 1246WAT     H2 3981   7.687   3.869   5.827
 1247WAT      O 3982   9.009   3.615   3.202
 1247WAT     H1 3983   8.923   3.605   3.251
 1247WAT     H2 3984   9.037   3.527   3.164
 1248WAT      O 3985   1.134   7.706   4.008
 1248WAT     H1 3986   1.151   7.762   4.089
 1248WAT     H2 3987   1.214   7.712   3.947
 1249WAT      O 3988   3.257   7.956   2.190
 1249WAT     H1 3989   3.226   7.874   2.141
 1249WAT     H2 3990   3.198   7.971   2.269
 1250WAT      O 3991   9.277   7.807   8.681
 1250WAT     H1 3992   9.309   7.762   8.598
 1250WAT     H2 3993   9.179   7.829   8.672
 1251WAT      O 3994   3.629   1.367   1.151
 1251WAT     H1 3995   3.532   1.381   1.134
 1251WAT     H2 3996   3.683   1.440   1.109
 1252WAT      O 3997   9.012   8.077   3.910
 1252WAT     H1 3998   9.109   8.092   3.893
 1252WAT     H2 3999   8.979   8.001   3.854
 1253WAT      O 4000   3.101   2.296   1.449
 1253WAT     H1 4001   3.154   2.300   1.364
 1253WAT     H2 4002   3.014   2.343   1.437
 1254WAT      O 4003   2.189   1.175   5.071
 1254WAT     H1 4004   2.217   1.185   5.166
 1254WAT     H2 4005   2.092   1.150   5.067
 1255WAT      O 4006   6.402   4.024   4.555
 1255WAT     H1 4007   6.416   4.104   4.613
 1255WAT     H2 4008   6.460   3.949   4.587
 1256WAT      O 4009   0.334   4.519   0.914
 1256WAT     H1 4010   0.338   4.540   1.012
 1256WAT     H2 4011   0.247   4.550   0.877
 1257WAT      O 4012   8.311   0.567   9.473
 1257WAT     H1 4013   8.269   0.655   9.452
 1257WAT     H2 4014   8.298   0.546   9.570
 1258WAT      O 4015   3.567   4.417   2.712
 1258WAT     H1 4016   3.551   4.513   2.736
 1258WAT     H2 4017   3.482   4.377   2.677
 1259WAT      O 4018   9.525   6.578   9.219
 1259WAT     H1 4019   9.499   6.659   9.272
 1259WAT     H2 4020   9.558   6.507   9.281
 1260WAT      O 4021   5.331   1.464   5.088
 1260WAT     H1 4022   5.395   1.510   5.027
 1260WAT     H2 4023   5.268   1.531   5.127
 1261WAT      O 4024   2.999   6.430   0.962
 1261WAT     H1 4025   2.951   6.362   0.906
 1261WAT     H2 4026   3.047   6.383   1.037
 1262WAT      O 4027   1.830   6.142   6.716
 1262WAT     H1 4028   1.763   6.197   6.765
 1262WAT     H2 4029   1.783   6.076   6.658
 1263WAT      O 4030   7.192   7.417   8.737
 1263WAT     H1 4031   7.193   7.355   8.815
 1263WAT     H2 4032   7.123   7.387   8.671
 1264WAT      O 4033   9.383   5.485   7.050
 1264WAT     H1 4034   9.425   5.575   7.039
 1264WAT     H2 4035   9.437   5.417   7.002
 1265WAT      O 4036   2.863   3.440   8.444
 1265WAT     H1 4037   2.949   3.453   8.395
 1265WAT     H2 4038   2.802   3.518   8.426
 1266WAT      O 4039   0.529   7.906   6.493
 1266WAT     H1 4040   0.603   7.838   6.489
 1266WAT     H2 4041   0.523   7.952   6.405
 1267WAT      O 4042   3.799   7.925   0.484
 1267WAT     H1 4043   3.762   7.978   0.407
 1267WAT     H2 4044   3.731   7.858   0.513
 1268WAT      O 4045   2.103   6.589   3.183
 1268WAT     H1 4046   2.141   6.502   3.212
 1268WAT     H2 4047   2.047   6.627   3.256
 1269WAT      O 4048   0.031   7.628   9.475
 1269WAT     H1 4049   0.046   7.557   9.544
 1269WAT     H2 4050  -0.050   7.605   9.421
 1270WAT      O 4051   6.130   8.400   2.984
 1270WAT     H1 4052   6.107   8.480   2.930
 1270WAT     H2 4053   6.047   8.350   3.008
 1271WAT      O 4054   9.069   3.225   5.201
 1271WAT     H1 4055   9.145   3.194   5.143
 1271WAT     H2 4056   9.085   3.319   5.229
 1272WAT      O 4057   7.017   1.957   3.724
 1272WAT     H1 4058   6.933   1.924   3.768
 1272WAT     H2 4059   7.090   1.964   3.792
 1273WAT      O 4060   7.537   1.373   0.193
 1273WAT     H1 4061   7.589   1.288   0.183
 1273WAT     H2 4062   7.485   1.370   0.278
 1274WAT      O 4063   1.997   9.792   1.798
 1274WAT     H1 4064   1.960   9.725   1.862
 1274WAT     H2 4065   1.933   9.869   1.790
 1275WAT      O 4066   6.164   1.649   1.048
 1275WAT     H1 4067   6.232   1.722   1.037
 1275WAT     H2 4068   6.107   1.668   1.128
 1276WAT      O 4069   0.777   0.730   1.137
 1276WAT     H1 4070   0.774   0.830   1.145
 1276WAT     H2 4071   0.740   0.688   1.220
 1277WAT      O 4072   3.958   2.536   9.358
 1277WAT     H1 4073   3.860   2.513   9.357
 1277WAT     H2 4074   3.976   2.599   9.434
 1278WAT      O 4075   7.101   0.898   8.701
 1278WAT     H1 4076   7.192   0.856   8.699
 1278WAT     H2 4077   7.108   0.994   8.672
 1279WAT      O 4078   8.956   7.382   7.115
 1279WAT     H1 4079   8.925   7.471   7.149
 1279WAT     H2 4080   8.896   7.310   7.149
 1280WAT      O 4081   4.209   5.568   0.534
 1280WAT     H1 4082   4.293   5.553   0.483
 1280WAT     H2 4083   4.193   5.666   0.545
 1281WAT      O 4084   4.623   6.439   5.246
 1281WAT     H1 4085   4.664   6.402   5.329
 1281WAT     H2 4086   4.676   6.518   5.215
 1282WAT      O 4087   0.322   0.624   2.132
 1282WAT     H1 4088   0.227   0.648   2.148
 1282WAT     H2 4089   0.342   0.630   2.034
 1283WAT      O 4090   8.574   1.231   1.672
 1283WAT     H1 4091   8.606   1.149   1.624
 1283WAT     H2 4092   8.600   1.312   1.619
 1284WAT      O 4093   4.160   5.122   6.723
 1284WAT     H1 4094   4.136   5.060   6.797
 1284WAT     H2 4095   4.164   5.072   6.637
 1285WAT      O 4096   2.984   0.903   0.264
 1285WAT     H1 4097   2.988   0.804   0.277
 1285WAT     H2 4098   3.013   0.948   0.348
 1286WAT      O 4099   0.297   3.328   3.535
 1286WAT     H1 4100   0.378   3.312   3.591
 1286WAT     H2 4101   0.312   3.291   3.443
 1287WAT      O 4102   6.967   0.241   0.299
 1287WAT     H1 4103   6.930   0.320   0.347
 1287WAT     H2 4104   6.934   0.240   0.205
 1288WAT      O 4105   1.197   6.623   0.716
 1288WAT     H1 4106   1.192   6.574   0.629
 1288WAT     H2 4107   1.108   6.665   0.735
 1289WAT      O 4108   6.224   6.127   5.148
 1289WAT     H1 4109   6.202   6.053   5.211
 1289WAT     H2 4110   6.228   6.213   5.198
 1290WAT      O 4111   4.026   9.074   8.371
 1290WAT     H1 4112   3.935   9.041   8.348
 1290WAT     H2 4113   4.070   9.010   8.434
 1291WAT      O 4114   2.687   6.432   6.945
 1291WAT     H1 4115   2.689   6.335   6.967
 1291WAT     H2 4116   2.674   6.485   7.029
 1292WAT      O 4117   9.057   6.174   1.358
 1292WAT     H1 4118   9.125   6.102   1.342
 1292WAT     H2 4119   8.989   6.173   1.285
 1293WAT      O 4120   4.502   8.444   9.355
 1293WAT     H1 4121   4.485   8.537   9.385
 1293WAT     H2 4122   4.549   8.393   9.428
 1294WAT      O 4123   0.754   5.031   3.670
 1294WAT     H1 4124   0.845   5.043   3.630
 1294WAT     H2 4125   0.689   5.007   3.598
 1295WAT      O 4126   1.134   9.002   3.229
 1295WAT     H1 4127   1.110   9.062   3.152
 1295WAT     H2 4128   1.077   9.025   3.308
 1296WAT      O 4129   1.448   8.920   2.199
 1296WAT     H1 4130   1.505   8.973   2.135
 1296WAT     H2 4131   1.487   8.829   2.211
 1297WAT      O 4132   8.751   3.636   9.562
 1297WAT     H1 4133   8.697   3.577   9.622
 1297WAT     H2 4134   8.795   3.582   9.492
 1298WAT      O 4135   3.044   2.399   9.087
 1298WAT     H1 4136   2.978   2.325   9.098
 1298WAT     H2 4137   3.032   2.441   8.997
 1299WAT      O 4138   9.133   7.275   4.125
 1299WAT     H1 4139   9.097   7.364   4.096
 1299WAT     H2 4140   9.103   7.205   4.060
 1300WAT      O 4141   4.687   7.716   7.208
 1300WAT     H1 4142   4.600   7.681   7.241
 1300WAT     H2 4143   4.728   7.775   7.278
 1301WAT      O 4144   4.272   2.039   1.158
 1301WAT     H1 4145   4.347   2.065   1.096
 1301WAT     H2 4146   4.232   1.953   1.127
 1302WAT      O 4147   3.564   4.341   3.727
 1302WAT     H1 4148   3.569   4.429   3.776
 1302WAT     H2 4149   3.475   4.332   3.683
 1303WAT      O 4150   7.422   2.187   9.615
 1303WAT     H1 4151   7.471   2.225   9.537
 1303WAT     H2 4152   7.397   2.093   9.596
 1304WAT      O 4153   5.835   8.215   7.837
 1304WAT     H1 4154   5.870   8.145   7.899
 1304WAT     H2 4155   5.907   8.243   7.774
 1305WAT      O 4156   9.407   2.532   3.354
 1305WAT     H1 4157   9.391   2.627   3.327
 1305WAT     H2 4158   9.321   2.481   3.351
 1306WAT      O 4159   3.917   2.106   1.421
 1306WAT     H1 4160   3.946   2.174   1.353
 1306WAT     H2 4161   3.826   2.130   1.455
 1307WAT      O 4162   0.559   6.056   9.637
 1307WAT     H1 4163   0.581   5.959   9.649
 1307WAT     H2 4164   0.635   6.103   9.593
 1308WAT      O 4165   4.955   6.831   9.021
 1308WAT     H1 4166   5.028   6.898   9.032
 1308WAT     H2 4167   4.957   6.794   8.928
 1309WAT      O 4168   7.712   1.916   5.896
 1309WAT     H1 4169   7.641   1.895   5.829
 1309WAT     H2 4170   7.749   2.008   5.879
 1310WAT      O 4171   6.788   8.364   3.344
 1310WAT     H1 4172   6.738   8.352   3.259
 1310WAT     H2 4173   6.730   8.411   3.411
 1311WAT      O 4174   6.369   3.882   8.330
 1311WAT     H1 4175   6.363   3.919   8.423
 1311WAT     H2 4176   6.456   3.907   8.289
 1312WAT      O 4177   4.821   6.326   7.936
 1312WAT     H1 4178   4.826   6.380   7.852
 1312WAT     H2 4179   4.749   6.363   7.994
 1313WAT      O 4180   3.629   1.061   0.578
 1313WAT     H1 4181   3.594   0.992   0.641
 1313WAT     H2 4182   3.651   1.018   0.490
 1314WAT      O 4183   9.592   9.260   8.442
 1314WAT     H1 4184   9.497   9.291   8.446
 1314WAT     H2 4185   9.645   9.324   8.387
 1315WAT      O 4186   0.539   5.841   5.130
 1315WAT     H1 4187   0.520   5.782   5.209
 1315WAT     H2 4188   0.533   5.937   5.158
 1316WAT      O 4189   7.103   8.388   7.421
 1316WAT     H1 4190   7.199   8.393   7.448
 1316WAT     H2 4191   7.058   8.475   7.442
 1317WAT      O 4192   2.227   9.500   4.025
 1317WAT     H1 4193   2.168   9.571   3.988
 1317WAT     H2 4194   2.171   9.424   4.058
 1318WAT      O 4195   0.601   2.380   3.465
 1318WAT     H1 4196   0.540   2.454   3.493
 1318WAT     H2 4197   0.606   2.311   3.538
 1319WAT      O 4198   8.570   4.296   0.739
 1319WAT     H1 4199   8.594   4.371   0.677
 1319WAT     H2 4200   8.597   4.209   0.698
 1320WAT      O 4201   0.856   2.104   8.437
 1320WAT     H1 4202   0.787   2.156   8.386
 1320WAT     H2 4203   0.814   2.065   8.519
 1321WAT      O 4204   7.117   3.405   5.751
 1321WAT     H1 4205   7.123   3.417   5.850
 1321WAT     H2 4206   7.030   3.440   5.718
 1322WAT      O 4207   4.330   0.137   9.798
 1322WAT     H1 4208   4.240   0.175   9.774
 1322WAT     H2 4209   4.318   0.044   9.833
 1323WAT      O 4210   7.881   2.807   7.597
 1323WAT     H1 4211   7.849   2.764   7.513
 1323WAT     H2 4212   7.831   2.770   7.675
 1324WAT      O 4213   6.127   6.354   3.903
 1324WAT     H1 4214   6.207   6.321   3.953
 1324WAT     H2 4215   6.145   6.446   3.870
 1325WAT      O 4216   4.761   3.340   4.496
 1325WAT     H1 4217   4.686   3.354   4.430
 1325WAT     H2 4218   4.827   3.414   4.487
 1326WAT      O 4219   7.006   9.375   2.137
 1326WAT     H1 4220   7.050   9.463   2.157
 1326WAT     H2 4221   7.008   9.318   2.219
 1327WAT      O 4222   8.486   0.905   2.987
 1327WAT     H1 4223   8.420   0.833   2.966
 1327WAT     H2 4224   8.463   0.947   3.075
 1328WAT      O 4225   3.061   4.081   9.883
 1328WAT     H1 4226   2.978   4.065   9.937
 1328WAT     H2 4227   3.054   4.031   9.797
 1329WAT      O 4228   4.027   8.424   9.174
 1329WAT     H1 4229   4.035   8.418   9.274
 1329WAT     H2 4230   3.943   8.473   9.150
 1330WAT      O 4231   2.124   3.134   2.869
 1330WAT     H1 4232   2.121   3.060   2.936
 1330WAT     H2 4233   2.196   3.199   2.892
 1331WAT      O 4234   5.580   1.492   3.695
 1331WAT     H1 4235   5.662   1.549   3.706
 1331WAT     H2 4236   5.583   1.446   3.607
 1332WAT      O 4237   9.749   7.162   2.876
 1332WAT     H1 4238   9.824   7.106   2.913
 1332WAT     H2 4239   9.762   7.257   2.906
 1333WAT      O 4240   9.057   4.287   9.311
 1333WAT     H1 4241   9.103   4.340   9.240
 1333WAT     H2 4242   8.961   4.272   9.284
 1334WAT      O 4243   0.454   7.344   8.793
 1334WAT     H1 4244   0.457   7.280   8.716
 1334WAT     H2 4245   0.502   7.428   8.769
 1335WAT      O 4246   1.796   2.834   7.542
 1335WAT     H1 4247   1.807   2.898   7.618
 1335WAT     H2 4248   1.704   2.794   7.546
 1336WAT      O 4249   8.475   6.866   1.292
 1336WAT     H1 4250   8.431   6.782   1.260
 1336WAT     H2 4251   8.414   6.914   1.355
 1337WAT      O 4252   1.490   5.420   2.674
 1337WAT     H1 4253   1.431   5.348   2.638
 1337WAT     H2 4254   1.572   5.427   2.617
 1338WAT      O 4255   2.600   3.411   7.566
 1338WAT     H1 4256   2.669   3.407   7.494
 1338WAT     H2 4257   2.537   3.487   7.549
 1339WAT      O 4258   0.303   0.751   2.815
 1339WAT     H1 4259   0.305   0.847   2.841
 1339WAT     H2 4260   0.278   0.696   2.895
 1340WAT      O 4261   4.725   7.173   0.754
 1340WAT     H1 4262   4.739   7.207   0.661
 1340WAT     H2 4263   4.747   7.246   0.819
 1341WAT      O 4264   1.735   5.587   8.241
 1341WAT     H1 4265   1.700   5.614   8.330
 1341WAT     H2 4266   1.793   5.659   8.204
 1342WAT      O 4267   0.708   6.447   3.344
 1342WAT     H1 4268   0.639   6.406   3.284
 1342WAT     H2 4269   0.700   6.409   3.436
 1343WAT      O 4270   1.213   4.112   6.082
 1343WAT     H1 4271   1.258   4.119   5.993
 1343WAT     H2 4272   1.219   4.018   6.115
 1344WAT      O 4273   1.608   8.233   3.930
 1344WAT     H1 4274   1.585   8.286   3.849
 1344WAT     H2 4275   1.665   8.289   3.991
 1345WAT      O 4276   4.009   8.595   6.845
 1345WAT     H1 4277   4.052   8.571   6.932
 1345WAT     H2 4278   3.951   8.520   6.814
 1346WAT      O 4279   9.361   4.196   9.128
 1346WAT     H1 4280   9.433   4.246   9.177
 1346WAT     H2 4281   9.330   4.119   9.184
 1347WAT      O 4282   8.247   3.594   4.336
 1347WAT     H1 4283   8.234   3.597   4.237
 1347WAT     H2 4284   8.225   3.503   4.370
 1348WAT      O 4285   0.655   4.223   8.868
 1348WAT     H1 4286   0.648   4.255   8.962
 1348WAT     H2 4287   0.704   4.136   8.866
 1349WAT      O 4288   5.424   7.148   9.419
 1349WAT     H1 4289   5.384   7.057   9.414
 1349WAT     H2 4290   5.516   7.142   9.458
 1350WAT      O 4291   3.407   7.917   9.641
 1350WAT     H1 4292   3.406   7.941   9.544
 1350WAT     H2 4293   3.326   7.954   9.686
 1351WAT      O 4294   2.439   6.287   6.314
 1351WAT     H1 4295   2.457   6.204   6.262
 1351WAT     H2 4296   2.482   6.280   6.404
 1352WAT      O 4297   5.819   6.499   7.620
 1352WAT     H1 4298   5.835   6.447   7.703
 1352WAT     H2 4299   5.846   6.444   7.541
 1353WAT      O 4300   5.834   4.103   8.177
 1353WAT     H1 4301   5.855   4.167   8.103
 1353WAT     H2 4302   5.867   4.012   8.154
 1354WAT      O 4303   6.212   8.165   7.288
 1354WAT     H1 4304   6.296   8.217   7.300
 1354WAT     H2 4305   6.223   8.099   7.214
 1355WAT      O 4306   6.187   6.388   0.952
 1355WAT     H1 4307   6.241   6.362   0.872
 1355WAT     H2 4308   6.114   6.321   0.966
 1356WAT      O 4309   0.938   8.654   5.936
 1356WAT     H1 4310   0.908   8.574   5.989
 1356WAT     H2 4311   0.893   8.653   5.846
 1357WAT      O 4312   4.600   3.898   4.686
 1357WAT     H1 4313   4.672   3.960   4.718
 1357WAT     H2 4314   4.529   3.890   4.756
 1358WAT      O 4315   6.371   6.621   8.668
 1358WAT     H1 4316   6.358   6.718   8.647
 1358WAT     H2 4317   6.365   6.568   8.583
 1359WAT      O 4318   4.202   9.667   6.044
 1359WAT     H1 4319   4.271   9.700   5.979
 1359WAT     H2 4320   4.113   9.703   6.020
 1360WAT      O 4321   2.523   3.214   2.316
 1360WAT     H1 4322   2.537   3.131   2.369
 1360WAT     H2 4323   2.540   3.196   2.219
 1361WAT      O 4324   5.027   5.766   5.416
 1361WAT     H1 4325   5.050   5.737   5.509
 1361WAT     H2 4326   5.100   5.740   5.353
 1362WAT      O 4327   4.330   2.477   8.409
 1362WAT     H1 4328   4.375   2.421   8.340
 1362WAT     H2 4329   4.395   2.499   8.481
 1363WAT      O 4330   3.525   9.242   0.692
 1363WAT     H1 4331   3.617   9.281   0.688
 1363WAT     H2 4332   3.498   9.231   0.788
 1364WAT      O 4333   4.362   2.525   2.313
 1364WAT     H1 4334   4.399   2.500   2.402
 1364WAT     H2 4335   4.358   2.444   2.255
 1365WAT      O 4336   7.329   6.202   8.199
 1365WAT     H1 4337   7.420   6.178   8.235
 1365WAT     H2 4338   7.265   6.129   8.221
 1366WAT      O 4339   3.895   0.969   1.266
 1366WAT     H1 4340   3.822   0.995   1.204
 1366WAT     H2 4341   3.982   0.966   1.215
 1367WAT      O 4342   8.180   9.334   1.601
 1367WAT     H1 4343   8.256   9.282   1.639
 1367WAT     H2 4344   8.101   9.327   1.662
 1368WAT      O 4345   2.342   4.884   7.385
 1368WAT     H1 4346   2.315   4.791   7.410
 1368WAT     H2 4347   2.345   4.893   7.285
 1369WAT      O 4348   4.867   4.337   1.642
 1369WAT     H1 4349   4.867   4.245   1.681
 1369WAT     H2 4350   4.776   4.378   1.654
 1370WAT      O 4351   1.683   6.047   5.935
 1370WAT     H1 4352   1.706   6.076   6.028
 1370WAT     H2 4353   1.695   6.123   5.871
 1371WAT      O 4354   8.703   5.478   7.738
 1371WAT     H1 4355   8.624   5.426   7.707
 1371WAT     H2 4356   8.778   5.467   7.673
 1372WAT      O 4357   1.230   5.646   7.596
 1372WAT     H1 4358   1.144   5.662   7.644
 1372WAT     H2 4359   1.214   5.646   7.497
 1373WAT      O 4360   6.189   2.103   4.585
 1373WAT     H1 4361   6.089   2.112   4.583
 1373WAT     H2 4362   6.228   2.179   4.637
 1374WAT      O 4363   8.685   0.519   1.126
 1374WAT     H1 4364   8.738   0.532   1.042
 1374WAT     H2 4365   8.748   0.508   1.203
 1375WAT      O 4366   0.200   9.463   8.792
 1375WAT     H1 4367   0.142   9.478   8.711
 1375WAT     H2 4368   0.263   9.388   8.773
 1376WAT      O 4369   3.554   7.350   6.371
 1376WAT     H1 4370   3.652   7.364   6.384
 1376WAT     H2 4371   3.528   7.261   6.410
 1377WAT      O 4372   1.508   3.535   0.960
 1377WAT     H1 4373   1.553   3.613   0.917
 1377WAT     H2 4374   1.540   3.525   1.054
 1378WAT      O 4375   9.130   2.810   6.946
 1378WAT     H1 4376   9.056   2.878   6.946
 1378WAT     H2 4377   9.181   2.818   7.032
 1379WAT      O 4378   9.394   9.633   0.070
 1379WAT     H1 4379   9.365   9.586   0.153
 1379WAT     H2 4380   9.366   9.580  -0.010
 1380WAT      O 4381   1.898   6.850   0.306
 1380WAT     H1 4382   1.799   6.852   0.288
 1380WAT     H2 4383   1.942   6.924   0.255
 1381WAT      O 4384   4.955   1.761   3.212
 1381WAT     H1 4385   5.006   1.756   3.126
 1381WAT     H2 4386   5.019   1.763   3.289
 1382WAT      O 4387   7.660   9.149   7.590
 1382WAT     H1 4388   7.657   9.232   7.647
 1382WAT     H2 4389   7.578   9.095   7.608
 1383WAT      O 4390   1.105   7.004   0.036
 1383WAT     H1 4391   1.056   6.930  -0.009
 1383WAT     H2 4392   1.198   6.974   0.057
 1384WAT      O 4393   1.177   8.783   3.749
 1384WAT     H1 4394   1.157   8.825   3.838
 1384WAT     H2 4395   1.149   8.687   3.751
 1385WAT      O 4396   1.593   7.652   1.441
 1385WAT     H1 4397   1.619   7.669   1.345
 1385WAT     H2 4398   1.539   7.568   1.447
 1386WAT      O 4399   5.058   5.478   1.575
 1386WAT     H1 4400   4.968   5.505   1.541
 1386WAT     H2 4401   5.128   5.533   1.531
 1387WAT      O 4402   9.608   8.851   7.874
 1387WAT     H1 4403   9.621   8.855   7.973
 1387WAT     H2 4404   9.645   8.935   7.833
 1388WAT      O 4405   5.716   3.904   9.645
 1388WAT     H1 4406   5.707   3.816   9.692
 1388WAT     H2 4407   5.627   3.932   9.610
 1389WAT      O 4408   9.256   3.990   3.093
 1389WAT     H1 4409   9.250   3.919   3.024
 1389WAT     H2 4410   9.197   3.967   3.170
 1390WAT      O 4411   4.663   4.697   2.533
 1390WAT     H1 4412   4.657   4.791   2.567
 1390WAT     H2 4413   4.734   4.691   2.463
 1391WAT      O 4414   1.752   0.668   4.682
 1391WAT     H1 4415   1.708   0.593   4.633
 1391WAT     H2 4416   1.849   0.671   4.658
 1392WAT      O 4417   4.040   2.654   2.891
 1392WAT     H1 4418   3.983   2.693   2.819
 1392WAT     H2 4419   4.062   2.724   2.959
 1393WAT      O 4420   8.616   5.646   5.446
 1393WAT     H1 4421   8.558   5.597   5.512
 1393WAT     H2 4422   8.710   5.611   5.452
 1394WAT      O 4423   3.749   0.548   6.210
 1394WAT     H1 4424   3.761   0.626   6.271
 1394WAT     H2 4425   3.812   0.475   6.235
 1395WAT      O 4426   4.232   0.701   0.073
 1395WAT     H1 4427   4.248   0.784   0.021
 1395WAT     H2 4428   4.315   0.676   0.123
 1396WAT      O 4429   3.631   8.336   3.449
 1396WAT     H1 4430   3.569   8.291   3.384
 1396WAT     H2 4431   3.723   8.299   3.437
 1397WAT      O 4432   9.541   1.324   9.396
 1397WAT     H1 4433   9.471   1.273   9.345
 1397WAT     H2 4434   9.530   1.422   9.380
 1398WAT      O 4435   5.709   5.666   0.720
 1398WAT     H1 4436   5.615   5.681   0.690
 1398WAT     H2 4437   5.743   5.582   0.679
 1399WAT      O 4438   0.714   0.776   5.701
 1399WAT     H1 4439   0.626   0.812   5.734
 1399WAT     H2 4440   0.725   0.799   5.604
 1400WAT      O 4441   5.117   0.384   1.179
 1400WAT     H1 4442   5.186   0.445   1.218
 1400WAT     H2 4443   5.031   0.435   1.167
 1401WAT      O 4444   5.600   8.806   6.191
 1401WAT     H1 4445   5.503   8.811   6.168
 1401WAT     H2 4446   5.623   8.714   6.222
 1402WAT      O 4447   6.406   3.733   3.896
 1402WAT     H1 4448   6.372   3.727   3.802
 1402WAT     H2 4449   6.506   3.727   3.895
 1403WAT      O 4450   4.551   2.455   3.392
 1403WAT     H1 4451   4.581   2.373   3.439
 1403WAT     H2 4452   4.604   2.534   3.424
 1404WAT      O 4453   3.650   3.531   8.450
 1404WAT     H1 4454   3.641   3.516   8.549
 1404WAT     H2 4455   3.560   3.520   8.407
 1405WAT      O 4456   2.533   9.152   3.101
 1405WAT     H1 4457   2.566   9.143   3.195
 1405WAT     H2 4458   2.537   9.248   3.073
 1406WAT      O 4459   1.562   4.579   3.607
 1406WAT     H1 4460   1.624   4.519   3.556
 1406WAT     H2 4461   1.477   4.530   3.626
 1407WAT      O 4462   4.613   7.953   0.076
 1407WAT     H1 4463   4.568   8.042   0.083
 1407WAT     H2 4464   4.592   7.898   0.157
 1408WAT      O 4465   7.276   5.454   5.482
 1408WAT     H1 4466   7.233   5.371   5.448
 1408WAT     H2 4467   7.238   5.533   5.434
 1409WAT      O 4468   8.520   7.456   2.869
 1409WAT     H1 4469   8.429   7.418   2.884
 1409WAT     H2 4470   8.511   7.553   2.846
 1410WAT      O 4471   6.651   8.799   8.736
 1410WAT     H1 4472   6.615   8.850   8.657
 1410WAT     H2 4473   6.576   8.776   8.798
 1411WAT      O 4474   7.834   9.402   0.108
 1411WAT     H1 4475   7.751   9.358   0.076
 1411WAT     H2 4476   7.812   9.491   0.147
 1412WAT      O 4477   1.391   3.892   8.888
 1412WAT     H1 4478   1.414   3.904   8.791
 1412WAT     H2 4479   1.343   3.973   8.921
 1413WAT      O 4480   7.987   3.914   1.260
 1413WAT     H1 4481   7.903   3.903   1.207
 1413WAT     H2 4482   7.964   3.940   1.354
 1414WAT      O 4483   6.667   0.982   1.056
 1414WAT     H1 4484   6.612   0.953   0.978
 1414WAT     H2 4485   6.764   0.962   1.039
 1415WAT      O 4486   6.745   5.028   9.671
 1415WAT     H1 4487   6.831   5.001   9.627
 1415WAT     H2 4488   6.756   5.119   9.712
 1416WAT      O 4489   0.211   0.132   6.933
 1416WAT     H1 4490   0.285   0.153   6.869
 1416WAT     H2 4491   0.184   0.036   6.924
 1417WAT      O 4492   2.578   8.288   6.690
 1417WAT     H1 4493   2.580   8.261   6.786
 1417WAT     H2 4494   2.485   8.313   6.664
 1418WAT      O 4495   6.533   4.776   4.922
 1418WAT     H1 4496   6.555   4.678   4.921
 1418WAT     H2 4497   6.509   4.803   5.015
 1419WAT      O 4498   0.107   8.845   7.502
 1419WAT     H1 4499   0.202   8.872   7.517
 1419WAT     H2 4500   0.091   8.756   7.544
 1420WAT      O 4501   5.452   9.296   2.657
 1420WAT     H1 4502   5.521   9.288   2.585
 1420WAT     H2 4503   5.386   9.367   2.633
 1421WAT      O 4504   3.907   0.131   5.594
 1421WAT     H1 4505   3.960   0.079   5.526
 1421WAT     H2 4506   3.930   0.228   5.586
 1422WAT      O 4507   6.050   5.338   9.344
 1422WAT     H1 4508   5.996   5.272   9.396
 1422WAT     H2 4509   5.989   5.403   9.299
 1423WAT      O 4510   5.274   2.004   6.098
 1423WAT     H1 4511   5.330   1.923   6.112
 1423WAT     H2 4512   5.185   1.977   6.062
 1424WAT      O 4513   0.695   5.602   0.898
 1424WAT     H1 4514   0.674   5.584   0.994
 1424WAT     H2 4515   0.794   5.613   0.886
 1425WAT      O 4516   4.931   3.373   9.756
 1425WAT     H1 4517   4.955   3.279   9.779
 1425WAT     H2 4518   4.867   3.374   9.679
 1426WAT      O 4519   1.389   7.534   8.186
 1426WAT     H1 4520   1.461   7.549   8.118
 1426WAT     H2 4521   1.300   7.530   8.141
 1427WAT      O 4522   5.954   7.027   4.991
 1427WAT     H1 4523   5.936   6.943   5.041
 1427WAT     H2 4524   6.029   7.012   4.927
 1428WAT      O 4525   6.978   6.854   7.850
 1428WAT     H1 4526   6.907   6.855   7.779
 1428WAT     H2 4527   6.954   6.919   7.922
 1429WAT      O 4528   3.654   2.192   7.695
 1429WAT     H1 4529   3.625   2.152   7.782
 1429WAT     H2 4530   3.730   2.139   7.657
 1430WAT      O 4531   4.635   9.209   9.329
 1430WAT     H1 4532   4.721   9.237   9.285
 1430WAT     H2 4533   4.591   9.289   9.370
 1431WAT      O 4534   6.392   6.505   8.415
 1431WAT     H1 4535   6.441   6.528   8.330
 1431WAT     H2 4536   6.379   6.407   8.420
 1432WAT      O 4537   8.539   6.647   3.327
 1432WAT     H1 4538   8.446   6.666   3.358
 1432WAT     H2 4539   8.537   6.616   3.232
 1433WAT      O 4540   0.672   0.157   8.771
 1433WAT     H1 4541   0.725   0.108   8.702
 1433WAT     H2 4542   0.576   0.127   8.765
 1434WAT      O 4543   1.640   7.344   7.444
 1434WAT     H1 4544   1.713   7.356   7.377
 1434WAT     H2 4545   1.551   7.345   7.397
 1435WAT      O 4546   5.833   3.717   9.883
 1435WAT     H1 4547   5.866   3.635   9.930
 1435WAT     H2 4548   5.908   3.758   9.831
 1436WAT      O 4549   2.828   4.004   1.365
 1436WAT     H1 4550   2.802   3.953   1.448
 1436WAT     H2 4551   2.868   4.091   1.391
 1437WAT      O 4552   8.199   1.886   8.121
 1437WAT     H1 4553   8.111   1.840   8.119
 1437WAT     H2 4554   8.190   1.974   8.166
 1438WAT      O 4555   8.868   6.264   7.271
 1438WAT     H1 4556   8.811   6.238   7.194
 1438WAT     H2 4557   8.893   6.183   7.324
 1439WAT      O 4558   9.198   7.293   5.134
 1439WAT     H1 4559   9.148   7.289   5.220
 1439WAT     H2 4560   9.253   7.376   5.132
 1440WAT      O 4561   0.854   6.294   9.082
 1440WAT     H1 4562   0.951   6.290   9.057
 1440WAT     H2 4563   0.829   6.211   9.133
 1441WAT      O 4564   5.955   6.106   2.656
 1441WAT     H1 4565   6.045   6.063   2.661
 1441WAT     H2 4566   5.958   6.181   2.589
 1442WAT      O 4567   7.166   5.968   3.021
 1442WAT     H1 4568   7.205   5.912   2.947
 1442WAT     H2 4569   7.088   6.019   2.987
 1443WAT      O 4570   5.915   0.817   1.495
 1443WAT     H1 4571   5.981   0.862   1.434
 1443WAT     H2 4572   5.862   0.887   1.544
 1444WAT      O 4573   3.194   1.649   8.051
 1444WAT     H1 4574   3.155   1.605   7.971
 1444WAT     H2 4575   3.287   1.680   8.030
 1445WAT      O 4576   6.880   7.248   3.967
 1445WAT     H1 4577   6.876   7.348   3.965
 1445WAT     H2 4578   6.808   7.214   4.027
 1446WAT      O 4579   8.001   1.531   9.487
 1446WAT     H1 4580   7.974   1.612   9.434
 1446WAT     H2 4581   8.055   1.470   9.429
 1447WAT      O 4582   2.874   0.044   7.007
 1447WAT     H1 4583   2.909   0.014   7.096
 1447WAT     H2 4584   2.905   0.137   6.989
 1448WAT      O 4585   1.073   6.900   0.972
 1448WAT     H1 4586   1.031   6.865   0.889
 1448WAT     H2 4587   1.002   6.925   1.038
 1449WAT      O 4588   8.745   9.466   7.017
 1449WAT     H1 4589   8.804   9.473   6.936
 1449WAT     H2 4590   8.793   9.415   7.089
 1450WAT      O 4591   1.842   6.773   2.249
 1450WAT     H1 4592   1.919   6.808   2.303
 1450WAT     H2 4593   1.876   6.711   2.178
 1451WAT      O 4594   3.051   7.653   6.269
 1451WAT     H1 4595   3.124   7.596   6.306
 1451WAT     H2 4596   3.090   7.740   6.238
 1452WAT      O 4597   3.405   6.636   2.489
 1452WAT     H1 4598   3.425   6.605   2.395
 1452WAT     H2 4599   3.451   6.575   2.554
 1453WAT      O 4600   6.922   9.201   0.516
 1453WAT     H1 4601   6.908   9.251   0.430
 1453WAT     H2 4602   6.956   9.265   0.586
 1454WAT      O 4603  -0.003   4.755   1.044
 1454WAT     H1 4604  -0.033   4.822   0.978
 1454WAT     H2 4605   0.084   4.784   1.084
 1455WAT      O 4606   2.882   4.396   6.389
 1455WAT     H1 4607   2.929   4.312   6.413
 1455WAT     H2 4608   2.800   4.375   6.334
 1456WAT      O 4609   2.427   2.957   5.149
 1456WAT     H1 4610   2.417   2.917   5.058
 1456WAT     H2 4611   2.339   2.995   5.178
 1457WAT      O 4612   2.937   7.346   7.911
 1457WAT     H1 4613   2.900   7.299   7.831
 1457WAT     H2 4614   2.875   7.419   7.939
 1458WAT      O 4615   8.800   7.252   1.022
 1458WAT     H1 4616   8.870   7.278   0.956
 1458WAT     H2 4617   8.842   7.232   1.110
 1459WAT      O 4618   4.974   6.714   3.290
 1459WAT     H1 4619   5.016   6.671   3.210
 1459WAT     H2 4620   4.891   6.665   3.315
 1460WAT      O 4621   1.969   5.109   6.447
 1460WAT     H1 4622   1.939   5.175   6.515
 1460WAT     H2 4623   1.983   5.155   6.359
 1461WAT      O 4624   3.801   2.964   8.923
 1461WAT     H1 4625   3.794   3.038   8.856
 1461WAT     H2 4626   3.742   2.888   8.894
 1462WAT      O 4627   1.640   7.138   8.723
 1462WAT     H1 4628   1.591   7.066   8.672
 1462WAT     H2 4629   1.636   7.117   8.821
 1463WAT      O 4630   4.629   4.778   5.117
 1463WAT     H1 4631   4.593   4.871   5.109
 1463WAT     H2 4632   4.727   4.778   5.095
 1464WAT      O 4633   6.014   4.577   3.289
 1464WAT     H1 4634   5.995   4.491   3.243
 1464WAT     H2 4635   6.015   4.652   3.223
 1465WAT      O 4636   3.091   1.709   2.741
 1465WAT     H1 4637   3.118   1.783   2.679
 1465WAT     H2 4638   3.000   1.676   2.716
 1466WAT      O 4639   8.290   4.655   9.839
 1466WAT     H1 4640   8.275   4.585   9.908
 1466WAT     H2 4641   8.203   4.678   9.795
 1467WAT      O 4642   5.476   7.544   9.161
 1467WAT     H1 4643   5.413   7.488   9.214
 1467WAT     H2 4644   5.559   7.560   9.214
 1468WAT      O 4645   6.352   9.181   4.974
 1468WAT     H1 4646   6.257   9.209   4.989
 1468WAT     H2 4647   6.367   9.092   5.016
 1469WAT      O 4648   5.287   5.853   4.288
 1469WAT     H1 4649   5.381   5.882   4.272
 1469WAT     H2 4650   5.236   5.855   4.201
 1470WAT      O 4651   6.183   0.379   3.789
 1470WAT     H1 4652   6.278   0.357   3.814
 1470WAT     H2 4653   6.147   0.447   3.853
 1471WAT      O 4654   0.771   9.437   2.749
 1471WAT     H1 4655   0.708   9.364   2.775
 1471WAT     H2 4656   0.735   9.525   2.781
 1472WAT      O 4657   2.333   0.971   4.667
 1472WAT     H1 4658   2.412   0.945   4.612
 1472WAT     H2 4659   2.361   1.033   4.740
 1473WAT      O 4660   6.417   9.070   1.915
 1473WAT     H1 4661   6.383   9.092   1.823
 1473WAT     H2 4662   6.360   9.115   1.983
 1474WAT      O 4663   2.464   1.079   0.363
 1474WAT     H1 4664   2.468   1.078   0.263
 1474WAT     H2 4665   2.545   1.125   0.399
 1475WAT      O 4666   5.968   2.410   5.551
 1475WAT     H1 4667   5.899   2.441   5.486
 1475WAT     H2 4668   6.047   2.376   5.500
 1476WAT      O 4669   3.228   5.290   9.160
 1476WAT     H1 4670   3.132   5.286   9.130
 1476WAT     H2 4671   3.271   5.201   9.144
 1477WAT      O 4672   8.487   5.352   9.048
 1477WAT     H1 4673   8.439   5.335   9.134
 1477WAT     H2 4674   8.573   5.302   9.048
 1478WAT      O 4675   8.415   2.529   2.529
 1478WAT     H1 4676   8.439   2.461   2.598
 1478WAT     H2 4677   8.372   2.607   2.574
 1479WAT      O 4678   1.922   9.835   4.545
 1479WAT     H1 4679   1.931   9.755   4.485
 1479WAT     H2 4680   1.997   9.835   4.611
 1480WAT      O 4681   7.357   4.441   2.252
 1480WAT     H1 4682   7.381   4.347   2.275
 1480WAT     H2 4683   7.268   4.443   2.207
 1481WAT      O 4684   2.993   0.689   4.870
 1481WAT     H1 4685   3.071   0.733   4.827
 1481WAT     H2 4686   2.973   0.603   4.823
 1482WAT      O 4687   9.827   4.838   7.642
 1482WAT     H1 4688   9.756   4.865   7.707
 1482WAT     H2 4689   9.795   4.760   7.589
 1483WAT      O 4690   4.521   5.240   7.372
 1483WAT     H1 4691   4.481   5.326   7.405
 1483WAT     H2 4692   4.481   5.218   7.283
 1484WAT      O 4693   0.478   8.943   0.764
 1484WAT     H1 4694   0.501   8.846   0.778
 1484WAT     H2 4695   0.561   8.993   0.738
 1485WAT      O 4696   7.119   2.240   4.905
 1485WAT     H1 4697   7.062   2.239   4.987
 1485WAT     H2 4698   7.065   2.274   4.828
 1486WAT      O 4699   3.194   1.506   7.647
 1486WAT     H1 4700   3.136   1.541   7.573
 1486WAT     H2 4701   3.285   1.547   7.639
 1487WAT      O 4702   3.580   1.854   7.032
 1487WAT     H1 4703   3.492   1.901   7.029
 1487WAT     H2 4704   3.653   1.922   7.037
 1488WAT      O 4705   6.950   6.340   5.086
 1488WAT     H1 4706   6.884   6.388   5.028
 1488WAT     H2 4707   7.024   6.303   5.029
 1489WAT      O 4708   2.207   6.766   5.515
 1489WAT     H1 4709   2.114   6.768   5.550
 1489WAT     H2 4710   2.206   6.767   5.415
 1490WAT      O 4711   3.159   2.694   2.950
 1490WAT     H1 4712   3.201   2.647   2.872
 1490WAT     H2 4713   3.080   2.642   2.982
 1491WAT      O 4714   7.293   0.405   1.288
 1491WAT     H1 4715   7.197   0.404   1.314
 1491WAT     H2 4716   7.340   0.327   1.330
 1492WAT      O 4717   0.370   0.498   1.569
 1492WAT     H1 4718   0.381   0.518   1.472
 1492WAT     H2 4719   0.356   0.400   1.582
 1493WAT      O 4720   4.954   5.440   9.353
 1493WAT     H1 4721   5.048   5.472   9.366
 1493WAT     H2 4722   4.938   5.358   9.409
 1494WAT      O 4723   1.221   0.627   4.810
 1494WAT     H1 4724   1.238   0.685   4.730
 1494WAT     H2 4725   1.287   0.651   4.882
 1495WAT      O 4726   5.733   3.842   6.153
 1495WAT     H1 4727   5.798   3.903   6.200
 1495WAT     H2 4728   5.756   3.838   6.056
 1496WAT      O 4729   6.270   4.113   3.420
 1496WAT     H1 4730   6.292   4.173   3.343
 1496WAT     H2 4731   6.229   4.028   3.385
 1497WAT      O 4732   1.927   5.395   9.675
 1497WAT     H1 4733   1.911   5.418   9.771
 1497WAT     H2 4734   1.953   5.478   9.625
 1498WAT      O 4735   5.016   6.385   5.584
 1498WAT     H1 4736   5.099   6.431   5.616
 1498WAT     H2 4737   4.937   6.444   5.601
 1499WAT      O 4738   1.925   6.016   9.280
 1499WAT     H1 4739   1.856   6.040   9.348
 1499WAT     H2 4740   2.012   6.059   9.305
 1500WAT      O 4741   8.036   4.994   8.536
 1500WAT     H1 4742   8.055   4.984   8.439
 1500WAT     H2 4743   8.032   4.903   8.579
 1501WAT      O 4744   0.772   2.912   6.419
 1501WAT     H1 4745   0.681   2.870   6.419
 1501WAT     H2 4746   0.768   3.000   6.372
 1502WAT      O 4747   7.790   4.255   5.474
 1502WAT     H1 4748   7.716   4.195   5.444
 1502WAT     H2 4749   7.840   4.211   5.549
 1503WAT      O 4750   1.959   7.098   0.196
 1503WAT     H1 4751   1.894   7.174   0.207
 1503WAT     H2 4752   2.030   7.104   0.266
 1504WAT      O 4753   0.204   6.006   7.822
 1504WAT     H1 4754   0.282   5.949   7.847
 1504WAT     H2 4755   0.137   5.951   7.773
 1505WAT      O 4756   8.390   7.186   0.648
 1505WAT     H1 4757   8.421   7.121   0.578
 1505WAT     H2 4758   8.396   7.144   0.738
 1506WAT      O 4759   3.308   0.959   4.208
 1506WAT     H1 4760   3.405   0.982   4.207
 1506WAT     H2 4761   3.280   0.929   4.116
 1507WAT      O 4762   6.758   6.656   6.225
 1507WAT     H1 4763   6.732   6.576   6.172
 1507WAT     H2 4764   6.716   6.737   6.187
 1508WAT      O 4765   3.779   8.908   7.564
 1508WAT     H1 4766   3.848   8.980   7.576
 1508WAT     H2 4767   3.689   8.950   7.550
 1509WAT      O 4768   6.090   5.479   9.812
 1509WAT     H1 4769   6.082   5.379   9.811
 1509WAT     H2 4770   6.182   5.505   9.840
 1510WAT      O 4771   8.910   9.488   3.230
 1510WAT     H1 4772   8.887   9.508   3.326
 1510WAT     H2 4773   8.995   9.534   3.206
 1511WAT      O 4774   7.179   3.603   7.860
 1511WAT     H1 4775   7.087   3.609   7.899
 1511WAT     H2 4776   7.175   3.551   7.775
 1512WAT      O 4777   2.646   8.142   6.214
 1512WAT     H1 4778   2.658   8.056   6.166
 1512WAT     H2 4779   2.642   8.125   6.313
 1513WAT      O 4780   1.246   0.503   2.286
 1513WAT     H1 4781   1.202   0.424   2.244
 1513WAT     H2 4782   1.194   0.586   2.263
 1514WAT      O 4783   1.925   2.880   3.573
 1514WAT     H1 4784   2.001   2.835   3.528
 1514WAT     H2 4785   1.871   2.812   3.623
 1515WAT      O 4786   4.439   8.902   8.574
 1515WAT     H1 4787   4.484   8.955   8.502
 1515WAT     H2 4788   4.489   8.912   8.660
 1516WAT      O 4789   7.279   0.077   6.890
 1516WAT     H1 4790   7.292   0.175   6.906
 1516WAT     H2 4791   7.250   0.062   6.796
 1517WAT      O 4792   2.095   9.126   3.371
 1517WAT     H1 4793   2.009   9.131   3.421
 1517WAT     H2 4794   2.101   9.201   3.306
 1518WAT      O 4795   5.036   1.561   5.966
 1518WAT     H1 4796   5.043   1.609   6.053
 1518WAT     H2 4797   4.971   1.609   5.906
 1519WAT      O 4798   8.342   3.974   4.581
 1519WAT     H1 4799   8.274   4.047   4.569
 1519WAT     H2 4800   8.364   3.935   4.492
 1520WAT      O 4801   9.078   7.162   4.409
 1520WAT     H1 4802   9.094   7.065   4.427
 1520WAT     H2 4803   9.116   7.187   4.320
 1521WAT      O 4804   1.964   9.403   4.486
 1521WAT     H1 4805   2.035   9.353   4.536
 1521WAT     H2 4806   1.874   9.381   4.524
 1522WAT      O 4807   4.108   5.047   6.016
 1522WAT     H1 4808   4.123   5.145   6.006
 1522WAT     H2 4809   4.113   5.004   5.925
 1523WAT      O 4810   5.446   2.076   6.808
 1523WAT     H1 4811   5.503   2.005   6.767
 1523WAT     H2 4812   5.484   2.166   6.787
 1524WAT      O 4813   2.543   2.595   1.687
 1524WAT     H1 4814   2.443   2.592   1.682
 1524WAT     H2 4815   2.577   2.509   1.725
 1525WAT      O 4816   5.490   1.398   2.219
 1525WAT     H1 4817   5.408   1.387   2.275
 1525WAT     H2 4818   5.478   1.351   2.132
 1526WAT      O 4819   1.728   7.395   6.663
 1526WAT     H1 4820   1.665   7.317   6.662
 1526WAT     H2 4821   1.814   7.369   6.620
 1527WAT      O 4822   1.760   8.819   9.320
 1527WAT     H1 4823   1.769   8.740   9.381
 1527WAT     H2 4824   1.814   8.804   9.237
 1528WAT      O 4825   6.121   1.786   8.006
 1528WAT     H1 4826   6.164   1.696   8.001
 1528WAT     H2 4827   6.190   1.855   8.026
 1529WAT      O 4828   2.656   8.832   5.444
 1529WAT     H1 4829   2.660   8.860   5.348
 1529WAT     H2 4830   2.584   8.764   5.456
 1530WAT      O 4831   5.435   6.826   5.955
 1530WAT     H1 4832   5.380   6.758   6.005
 1530WAT     H2 4833   5.527   6.789   5.939
 1531WAT      O 4834   6.928   9.364   6.752
 1531WAT     H1 4835   6.921   9.289   6.818
 1531WAT     H2 4836   6.952   9.327   6.662
 1532WAT      O 4837   9.036   9.450   9.092
 1532WAT     H1 4838   9.116   9.510   9.091
 1532WAT     H2 4839   9.048   9.377   9.024
 1533WAT      O 4840   0.245   4.298   7.246
 1533WAT     H1 4841   0.275   4.203   7.257
 1533WAT     H2 4842   0.189   4.325   7.324
 1534WAT      O 4843   3.276   9.262   0.245
 1534WAT     H1 4844   3.249   9.238   0.152
 1534WAT     H2 4845   3.279   9.179   0.301
 1535WAT      O 4846   7.570   5.757   4.835
 1535WAT     H1 4847   7.506   5.723   4.766
 1535WAT     H2 4848   7.656   5.707   4.828
 1536WAT      O 4849   6.818   9.251   9.767
 1536WAT     H1 4850   6.754   9.175   9.760
 1536WAT     H2 4851   6.793   9.308   9.846
 1537WAT      O 4852   9.147   7.292   3.754
 1537WAT     H1 4853   9.089   7.257   3.828
 1537WAT     H2 4854   9.237   7.249   3.761
 1538WAT      O 4855   0.961   4.260   9.876
 1538WAT     H1 4856   0.952   4.295   9.970
 1538WAT     H2 4857   0.912   4.173   9.868
 1539WAT      O 4858   1.285   6.051   0.538
 1539WAT     H1 4859   1.380   6.039   0.566
 1539WAT     H2 4860   1.243   6.123   0.593
 1540WAT      O 4861   9.244   5.277   8.878
 1540WAT     H1 4862   9.224   5.278   8.780
 1540WAT     H2 4863   9.218   5.365   8.918
 1541WAT      O 4864   5.394   0.535   0.737
 1541WAT     H1 4865   5.325   0.541   0.808
 1541WAT     H2 4866   5.354   0.496   0.654
 1542WAT      O 4867   5.250   8.221   4.671
 1542WAT     H1 4868   5.199   8.140   4.642
 1542WAT     H2 4869   5.189   8.300   4.669
 1543WAT      O 4870   2.078   8.272   3.252
 1543WAT     H1 4871   2.074   8.322   3.166
 1543WAT     H2 4872   2.111   8.333   3.325
 1544WAT      O 4873   6.255   9.179   5.645
 1544WAT     H1 4874   6.267   9.230   5.560
 1544WAT     H2 4875   6.219   9.240   5.715
 1545WAT      O 4876   0.791   4.302   9.372
 1545WAT     H1 4877   0.749   4.284   9.461
 1545WAT     H2 4878   0.845   4.386   9.376
 1546WAT      O 4879   8.235   4.569   5.915
 1546WAT     H1 4880   8.159   4.534   5.862
 1546WAT     H2 4881   8.320   4.555   5.865
 1547WAT      O 4882   7.523   8.984   4.475
 1547WAT     H1 4883   7.572   8.984   4.562
 1547WAT     H2 4884   7.586   8.963   4.400
 1548WAT      O 4885   6.341   2.723   7.177
 1548WAT     H1 4886   6.275   2.660   7.136
 1548WAT     H2 4887   6.303   2.815   7.178
 1549WAT      O 4888   8.649   3.084   4.196
 1549WAT     H1 4889   8.744   3.108   4.218
 1549WAT     H2 4890   8.590   3.162   4.217
 1550WAT      O 4891   0.545   5.401   0.250
 1550WAT     H1 4892   0.479   5.350   0.194
 1550WAT     H2 4893   0.638   5.368   0.230
 1551WAT      O 4894   9.321   1.080   7.880
 1551WAT     H1 4895   9.329   1.095   7.781
 1551WAT     H2 4896   9.341   1.165   7.929
 1552WAT      O 4897   6.562   1.287   7.123
 1552WAT     H1 4898   6.638   1.352   7.116
 1552WAT     H2 4899   6.476   1.338   7.132
 1553WAT      O 4900   1.323   5.026   7.230
 1553WAT     H1 4901   1.247   5.028   7.165
 1553WAT     H2 4902   1.287   5.025   7.323
 1554WAT      O 4903   2.110   2.364   9.585
 1554WAT     H1 4904   2.192   2.412   9.615
 1554WAT     H2 4905   2.134   2.273   9.552
 1555WAT      O 4906   2.655   1.811   0.161
 1555WAT     H1 4907   2.574   1.846   0.206
 1555WAT     H2 4908   2.734   1.868   0.182
 1556WAT      O 4909   3.651   7.003   5.862
 1556WAT     H1 4910   3.671   7.055   5.944
 1556WAT     H2 4911   3.570   6.947   5.876
 1557WAT      O 4912   3.885   6.971   8.006
 1557WAT     H1 4913   3.964   6.966   7.945
 1557WAT     H2 4914   3.897   7.046   8.071
 1558WAT      O 4915   8.896   6.160   1.159
 1558WAT     H1 4916   8.944   6.189   1.076
 1558WAT     H2 4917   8.909   6.061   1.171
 1559WAT      O 4918   8.466   8.847   4.401
 1559WAT     H1 4919   8.499   8.889   4.316
 1559WAT     H2 4920   8.435   8.919   4.464
 1560WAT      O 4921   7.536   0.694   1.468
 1560WAT     H1 4922   7.492   0.742   1.392
 1560WAT     H2 4923   7.611   0.749   1.504
 1561WAT      O 4924   5.738   8.135   7.382
 1561WAT     H1 4925   5.786   8.047   7.383
 1561WAT     H2 4926   5.670   8.135   7.308
 1562WAT      O 4927   1.058   8.450   1.679
 1562WAT     H1 4928   0.988   8.509   1.720
 1562WAT     H2 4929   1.080   8.376   1.742
 1563WAT      O 4930   3.323   6.461   9.529
 1563WAT     H1 4931   3.396   6.431   9.590
 1563WAT     H2 4932   3.237   6.417   9.555
 1564WAT      O 4933   8.881   8.657   3.944
 1564WAT     H1 4934   8.811   8.610   3.998
 1564WAT     H2 4935   8.838   8.702   3.866
 1565WAT      O 4936   8.636   6.535   4.637
 1565WAT     H1 4937   8.577   6.609   4.604
 1565WAT     H2 4938   8.608   6.509   4.729
 1566WAT      O 4939   6.748   8.719   2.798
 1566WAT     H1 4940   6.775   8.635   2.845
 1566WAT     H2 4941   6.650   8.716   2.778
 1567WAT      O 4942   3.474   0.049   9.084
 1567WAT     H1 4943   3.522   0.103   9.153
 1567WAT     H2 4944   3.390   0.011   9.124
 1568WAT      O 4945   1.704   1.322   2.357
 1568WAT     H1 4946   1.671   1.344   2.449
 1568WAT     H2 4947   1.796   1.359   2.345
 1569WAT      O 4948   1.892   7.239   0.565
 1569WAT     H1 4949   1.914   7.167   0.631
 1569WAT     H2 4950   1.803   7.220   0.523
 1570WAT      O 4951   3.542   3.749   1.548
 1570WAT     H1 4952   3.548   3.776   1.452
 1570WAT     H2 4953   3.514   3.653   1.554
 1571WAT      O 4954   6.655   8.291   8.565
 1571WAT     H1 4955   6.583   8.242   8.615
 1571WAT     H2 4956   6.644   8.389   8.580
 1572WAT      O 4957   7.233   1.508   2.604
 1572WAT     H1 4958   7.258   1.466   2.691
 1572WAT     H2 4959   7.316   1.532   2.553
 1573WAT      O 4960   3.727   9.295   4.039
 1573WAT     H1 4961   3.814   9.251   4.018
 1573WAT     H2 4962   3.674   9.237   4.101
 1574WAT      O 4963   7.587   3.445   9.703
 1574WAT     H1 4964   7.558   3.467   9.610
 1574WAT     H2 4965   7.507   3.444   9.763
 1575WAT      O 4966   1.282   0.973   0.905
 1575WAT     H1 4967   1.255   0.991   1.000
 1575WAT     H2 4968   1.202   0.940   0.854
 1576WAT      O 4969   5.506   9.260   4.498
 1576WAT     H1 4970   5.421   9.289   4.455
 1576WAT     H2 4971   5.573   9.334   4.491
 1577WAT      O 4972   0.208   8.411   3.462
 1577WAT     H1 4973   0.133   8.345   3.450
 1577WAT     H2 4974   0.216   8.467   3.379
 1578WAT      O 4975   2.535   3.581   0.053
 1578WAT     H1 4976   2.497   3.524   0.125
 1578WAT     H2 4977   2.502   3.549  -0.036
 1579WAT      O 4978   6.736   0.174   4.251
 1579WAT     H1 4979   6.748   0.167   4.350
 1579WAT     H2 4980   6.819   0.213   4.210
 1580WAT      O 4981   0.407   0.788   1.301
 1580WAT     H1 4982   0.333   0.796   1.235
 1580WAT     H2 4983   0.452   0.877   1.312
 1581WAT      O 4984   5.059   7.518   0.254
 1581WAT     H1 4985   5.007   7.599   0.280
 1581WAT     H2 4986   5.142   7.513   0.310
 1582WAT      O 4987   9.019   0.436   3.895
 1582WAT     H1 4988   8.953   0.394   3.958
 1582WAT     H2 4989   9.040   0.372   3.822
 1583WAT      O 4990   9.686   8.125   2.047
 1583WAT     H1 4991   9.648   8.103   1.957
 1583WAT     H2 4992   9.785   8.128   2.041
 1584WAT      O 4993   8.885   7.508   1.546
 1584WAT     H1 4994   8.919   7.591   1.502
 1584WAT     H2 4995   8.942   7.486   1.625
 1585WAT      O 4996   9.089   8.276   3.022
 1585WAT     H1 4997   9.064   8.253   3.116
 1585WAT     H2 4998   9.144   8.202   2.983
 1586WAT      O 4999   7.995   6.825   8.974
 1586WAT     H1 5000   8.014   6.727   8.968
 1586WAT     H2 5001   7.994   6.864   8.882
 1587WAT      O 5002   5.823   0.969   3.716
 1587WAT     H1 5003   5.807   0.978   3.814
 1587WAT     H2 5004   5.861   0.879   3.696
 1588WAT      O 5005   5.358   0.219   0.323
 1588WAT     H1 5006   5.399   0.219   0.232
 1588WAT     H2 5007   5.276   0.162   0.322
 1589WAT      O 5008   3.247   8.946   1.387
 1589WAT     H1 5009   3.159   8.918   1.424
 1589WAT     H2 5010   3.246   9.044   1.369
 1590WAT      O 5011   2.327   9.318   0.587
 1590WAT     H1 5012   2.392   9.392   0.607
 1590WAT     H2 5013   2.257   9.352   0.523
 1591WAT      O 5014   1.967   8.965   9.756
 1591WAT     H1 5015   2.012   8.994   9.840
 1591WAT     H2 5016   1.945   9.045   9.700
 1592WAT      O 5017   3.997   0.775   7.165
 1592WAT     H1 5018   4.036   0.766   7.257
 1592WAT     H2 5019   3.907   0.819   7.172
 1593WAT      O 5020   7.411   2.283   0.519
 1593WAT     H1 5021   7.351   2.253   0.444
 1593WAT     H2 5022   7.370   2.258   0.606
 1594WAT      O 5023   2.003   2.497   8.623
 1594WAT     H1 5024   2.044   2.492   8.714
 1594WAT     H2 5025   1.903   2.499   8.632
 1595WAT      O 5026   2.753   8.699   5.973
 1595WAT     H1 5027   2.827   8.721   6.036
 1595WAT     H2 5028   2.728   8.781   5.921
 1596WAT      O 5029   0.469   1.066   6.186
 1596WAT     H1 5030   0.390   1.072   6.125
 1596WAT     H2 5031   0.495   1.158   6.216
 1597WAT      O 5032   3.167   9.016   8.161
 1597WAT     H1 5033   3.153   8.939   8.223
 1597WAT     H2 5034   3.188   8.983   8.070
 1598WAT      O 5035   6.042   6.461   0.635
 1598WAT     H1 5036   6.036   6.561   0.639
 1598WAT     H2 5037   6.038   6.424   0.728
 1599WAT      O 5038   7.614   1.345   7.447
 1599WAT     H1 5039   7.532   1.402   7.452
 1599WAT     H2 5040   7.631   1.319   7.352
 1600WAT      O 5041   6.775   0.659   8.386
 1600WAT     H1 5042   6.836   0.733   8.412
 1600WAT     H2 5043   6.819   0.571   8.406
 1601WAT      O 5044   4.064   4.431   7.742
 1601WAT     H1 5045   4.021   4.450   7.654
 1601WAT     H2 5046   4.045   4.337   7.770
 1602WAT      O 5047   1.712   7.034   9.895
 1602WAT     H1 5048   1.797   7.026   9.843
 1602WAT     H2 5049   1.661   7.114   9.863
 1603WAT      O 5050   6.403   4.725   6.793
 1603WAT     H1 5051   6.342   4.668   6.849
 1603WAT     H2 5052   6.498   4.698   6.809
 1604WAT      O 5053   0.294   1.646   2.220
 1604WAT     H1 5054   0.324   1.741   2.226
 1604WAT     H2 5055   0.290   1.607   2.312
 1605WAT      O 5056   7.750   3.668   7.695
 1605WAT     H1 5057   7.797   3.748   7.658
 1605WAT     H2 5058   7.700   3.693   7.778
 1606WAT      O 5059   8.104   0.207   4.774
 1606WAT     H1 5060   8.105   0.245   4.682
 1606WAT     H2 5061   8.040   0.130   4.779
 1607WAT      O 5062   2.847   1.142   4.818
 1607WAT     H1 5063   2.871   1.157   4.914
 1607WAT     H2 5064   2.919   1.087   4.774
 1608WAT      O 5065   8.546   1.666   8.064
 1608WAT     H1 5066   8.468   1.604   8.050
 1608WAT     H2 5067   8.518   1.759   8.038
 1609WAT      O 5068   9.741   8.606   8.113
 1609WAT     H1 5069   9.657   8.635   8.068
 1609WAT     H2 5070   9.724   8.521   8.164
 1610WAT      O 5071   5.390   1.626   5.428
 1610WAT     H1 5072   5.489   1.634   5.423
 1610WAT     H2 5073   5.357   1.667   5.514
 1611WAT      O 5074   0.011   1.205   5.992
 1611WAT     H1 5075   0.007   1.214   5.892
 1611WAT     H2 5076  -0.040   1.124   6.020
 1612WAT      O 5077   5.306   5.062   3.721
 1612WAT     H1 5078   5.328   5.036   3.627
 1612WAT     H2 5079   5.375   5.125   3.755
 1613WAT      O 5080   2.651   9.573   2.300
 1613WAT     H1 5081   2.564   9.614   2.272
 1613WAT     H2 5082   2.658   9.575   2.399
 1614WAT      O 5083   3.470   4.928   1.776
 1614WAT     H1 5084   3.503   4.911   1.869
 1614WAT     H2 5085   3.487   4.848   1.719
 1615WAT      O 5086   2.717   6.602   0.384
 1615WAT     H1 5087   2.758   6.584   0.473
 1615WAT     H2 5088   2.708   6.516   0.334
 1616WAT      O 5089   1.685   5.380   8.035
 1616WAT     H1 5090   1.780   5.378   8.003
 1616WAT     H2 5091   1.683   5.379   8.135
 1617WAT      O 5092   8.766   8.958   7.334
 1617WAT     H1 5093   8.673   8.995   7.325
 1617WAT     H2 5094   8.823   8.993   7.259
 1618WAT      O 5095   3.609   0.812   8.348
 1618WAT     H1 5096   3.646   0.782   8.260
 1618WAT     H2 5097   3.640   0.749   8.420
 1619WAT      O 5098   5.937   0.647   2.766
 1619WAT     H1 5099   5.868   0.647   2.694
 1619WAT     H2 5100   5.896   0.615   2.852
 1620WAT      O 5101   9.536   2.766   3.228
 1620WAT     H1 5102   9.543   2.865   3.237
 1620WAT     H2 5103   9.576   2.723   3.309
 1621WAT      O 5104   8.810   6.553   9.202
 1621WAT     H1 5105   8.782   6.460   9.178
 1621WAT     H2 5106   8.758   6.619   9.148
 1622WAT      O 5107   4.836   2.457   7.552
 1622WAT     H1 5108   4.802   2.392   7.484
 1622WAT     H2 5109   4.772   2.533   7.560
 1623WAT      O 5110   9.027   2.067   5.124
 1623WAT     H1 5111   9.107   2.127   5.125
 1623WAT     H2 5112   8.966   2.092   5.200
 1624WAT      O 5113   5.533   0.942   1.704
 1624WAT     H1 5114   5.583   1.025   1.727
 1624WAT     H2 5115   5.458   0.964   1.641
 1625WAT      O 5116   3.948   4.126   3.758
 1625WAT     H1 5117   3.973   4.219   3.783
 1625WAT     H2 5118   3.858   4.127   3.713
 1626WAT      O 5119   9.443   2.484   1.518
 1626WAT     H1 5120   9.357   2.534   1.512
 1626WAT     H2 5121   9.433   2.396   1.470
 1627WAT      O 5122   9.807   6.431   4.096
 1627WAT     H1 5123   9.799   6.529   4.083
 1627WAT     H2 5124   9.716   6.392   4.113
 1628WAT      O 5125   2.793   3.511   0.643
 1628WAT     H1 5126   2.737   3.560   0.577
 1628WAT     H2 5127   2.789   3.556   0.732
 1629WAT      O 5128   4.592   9.532   2.141
 1629WAT     H1 5129   4.641   9.606   2.095
 1629WAT     H2 5130   4.633   9.444   2.117
 1630WAT      O 5131   4.379   4.757   2.703
 1630WAT     H1 5132   4.375   4.720   2.796
 1630WAT     H2 5133   4.475   4.770   2.678
 1631WAT      O 5134   3.096   2.999   1.332
 1631WAT     H1 5135   3.116   2.918   1.277
 1631WAT     H2 5136   3.158   3.073   1.306
 1632WAT      O 5137   6.950   9.249   7.751
 1632WAT     H1 5138   7.020   9.181   7.772
 1632WAT     H2 5139   6.867   9.203   7.719
 1633WAT      O 5140   4.012   9.789   1.765
 1633WAT     H1 5141   3.940   9.827   1.707
 1633WAT     H2 5142   4.097   9.782   1.713
 1634WAT      O 5143   9.119   6.364   7.135
 1634WAT     H1 5144   9.024   6.362   7.167
 1634WAT     H2 5145   9.124   6.415   7.049
 1635WAT      O 5146   4.935   2.321   0.319
 1635WAT     H1 5147   4.958   2.227   0.343
 1635WAT     H2 5148   4.864   2.322   0.249
 1636WAT      O 5149   3.876   4.023   0.474
 1636WAT     H1 5150   3.916   4.105   0.515
 1636WAT     H2 5151   3.801   3.990   0.530
 1637WAT      O 5152   5.695   0.758   3.393
 1637WAT     H1 5153   5.598   0.759   3.414
 1637WAT     H2 5154   5.726   0.664   3.380
 1638WAT      O 5155   2.955   2.219   0.883
 1638WAT     H1 5156   3.055   2.218   0.871
 1638WAT     H2 5157   2.912   2.261   0.804
 1639WAT      O 5158   7.636   1.504   4.348
 1639WAT     H1 5159   7.548   1.520   4.393
 1639WAT     H2 5160   7.620   1.467   4.257
 1640WAT      O 5161   1.571   3.778   4.959
 1640WAT     H1 5162   1.640   3.739   5.020
 1640WAT     H2 5163   1.599   3.870   4.931
 1641WAT      O 5164   7.810   7.399   3.219
 1641WAT     H1 5165   7.795   7.487   3.173
 1641WAT     H2 5166   7.731   7.340   3.203
 1642WAT      O 5167   8.847   2.890   7.863
 1642WAT     H1 5168   8.843   2.960   7.935
 1642WAT     H2 5169   8.901   2.812   7.895
 1643WAT      O 5170   6.844   7.658   0.632
 1643WAT     H1 5171   6.912   7.649   0.704
 1643WAT     H2 5172   6.820   7.754   0.619
 1644WAT      O 5173   1.571   6.809   2.488
 1644WAT     H1 5174   1.600   6.842   2.399
 1644WAT     H2 5175   1.472   6.817   2.497
 1645WAT      O 5176   8.812   3.379   6.715
 1645WAT     H1 5177   8.804   3.316   6.638
 1645WAT     H2 5178   8.815   3.327   6.801
 1646WAT      O 5179   8.584   2.546   3.635
 1646WAT     H1 5180   8.588   2.634   3.682
 1646WAT     H2 5181   8.618   2.556   3.541
 1647WAT      O 5182   7.658   9.523   7.256
 1647WAT     H1 5183   7.660   9.431   7.296
 1647WAT     H2 5184   7.606   9.520   7.170
 1648WAT      O 5185   2.725   6.961   7.486
 1648WAT     H1 5186   2.646   7.014   7.456
 1648WAT     H2 5187   2.791   7.021   7.530
 1649WAT      O 5188   8.337   6.650   6.665
 1649WAT     H1 5189   8.271   6.704   6.613
 1649WAT     H2 5190   8.320   6.552   6.650
 1650WAT      O 5191   2.218   8.679   8.975
 1650WAT     H1 5192   2.180   8.764   9.011
 1650WAT     H2 5193   2.144   8.620   8.942
 1651WAT      O 5194   7.407   3.982   8.637
 1651WAT     H1 5195   7.498   3.955   8.607
 1651WAT     H2 5196   7.414   4.031   8.724
 1652WAT      O 5197   6.219   5.627   2.368
 1652WAT     H1 5198   6.154   5.701   2.383
 1652WAT     H2 5199   6.219   5.566   2.446
 1653WAT      O 5200   9.791   7.841   4.115
 1653WAT     H1 5201   9.875   7.828   4.168
 1653WAT     H2 5202   9.713   7.850   4.177
 1654WAT      O 5203   9.095   0.246   3.706
 1654WAT     H1 5204   9.091   0.146   3.713
 1654WAT     H2 5205   9.091   0.273   3.610
 1655WAT      O 5206   9.560   0.531   7.814
 1655WAT     H1 5207   9.629   0.603   7.811
 1655WAT     H2 5208   9.542   0.499   7.722
 1656WAT      O 5209   7.421   5.685   4.300
 1656WAT     H1 5210   7.426   5.658   4.203
 1656WAT     H2 5211   7.414   5.603   4.357
 1657WAT      O 5212   6.043   6.064   4.124
 1657WAT     H1 5213   5.993   6.106   4.200
 1657WAT     H2 5214   6.138   6.048   4.150
 1658WAT      O 5215   4.396   8.125   1.129
 1658WAT     H1 5216   4.460   8.200   1.139
 1658WAT     H2 5217   4.416   8.054   1.197
 1659WAT      O 5218   5.239   3.020   8.000
 1659WAT     H1 5219   5.202   3.015   7.908
 1659WAT     H2 5220   5.178   2.973   8.064
 1660WAT      O 5221   7.521   9.423   7.060
 1660WAT     H1 5222   7.437   9.371   7.076
 1660WAT     H2 5223   7.566   9.389   6.977
 1661WAT      O 5224   1.597   6.239   9.245
 1661WAT     H1 5225   1.621   6.233   9.342
 1661WAT     H2 5226   1.575   6.148   9.211
 1662WAT      O 5227   7.571   6.005   0.541
 1662WAT     H1 5228   7.594   6.013   0.638
 1662WAT     H2 5229   7.516   5.923   0.526
 1663WAT      O 5230   6.765   7.855   6.895
 1663WAT     H1 5231   6.775   7.756   6.895
 1663WAT     H2 5232   6.694   7.882   6.831
 1664WAT      O 5233   1.610   0.827   0.411
 1664WAT     H1 5234   1.590   0.767   0.334
 1664WAT     H2 5235   1.544   0.901   0.414
 1665WAT      O 5236   3.612   3.725   7.634
 1665WAT     H1 5237   3.697   3.710   7.585
 1665WAT     H2 5238   3.581   3.639   7.674
 1666WAT      O 5239   1.910   9.437   1.171
 1666WAT     H1 5240   1.879   9.529   1.194
 1666WAT     H2 5241   1.940   9.436   1.075
 1667WAT      O 5242   8.683   6.207   0.629
 1667WAT     H1 5243   8.728   6.127   0.668
 1667WAT     H2 5244   8.658   6.271   0.702
 1668WAT      O 5245   4.072   0.544   0.361
 1668WAT     H1 5246   4.065   0.618   0.427
 1668WAT     H2 5247   4.100   0.460   0.408
 1669WAT      O 5248   5.143   9.752   3.232
 1669WAT     H1 5249   5.213   9.722   3.297
 1669WAT     H2 5250   5.076   9.809   3.280
 1670WAT      O 5251   5.455   1.691   8.981
 1670WAT     H1 5252   5.477   1.788   8.992
 1670WAT     H2 5253   5.525   1.648   8.923
 1671WAT      O 5254   9.842   4.898   2.042
 1671WAT     H1 5255   9.919   4.858   2.092
 1671WAT     H2 5256   9.759   4.845   2.061
 1672WAT      O 5257   3.734   1.325   4.836
 1672WAT     H1 5258   3.739   1.411   4.786
 1672WAT     H2 5259   3.654   1.326   4.896
 1673WAT      O 5260   2.250   1.828   7.214
 1673WAT     H1 5261   2.345   1.840   7.184
 1673WAT     H2 5262   2.203   1.764   7.153
 1674WAT      O 5263   9.384   6.497   9.016
 1674WAT     H1 5264   9.354   6.574   8.959
 1674WAT     H2 5265   9.435   6.532   9.095
 1675WAT      O 5266   0.885   2.528   7.579
 1675WAT     H1 5267   0.970   2.480   7.600
 1675WAT     H2 5268   0.825   2.469   7.526
 1676WAT      O 5269   7.234   9.022   0.696
 1676WAT     H1 5270   7.277   9.104   0.659
 1676WAT     H2 5271   7.157   8.996   0.638
 1677WAT      O 5272   8.139   0.139   3.134
 1677WAT     H1 5273   8.100   0.082   3.062
 1677WAT     H2 5274   8.201   0.206   3.093
 1678WAT      O 5275   1.873   1.190   8.495
 1678WAT     H1 5276   1.800   1.140   8.540
 1678WAT     H2 5277   1.940   1.126   8.457
 1679WAT      O 5278   6.650   7.749   2.991
 1679WAT     H1 5279   6.699   7.832   2.965
 1679WAT     H2 5280   6.638   7.691   2.910
 1680WAT      O 5281   5.938   1.138   5.742
 1680WAT     H1 5282   5.892   1.193   5.812
 1680WAT     H2 5283   5.890   1.051   5.732
 1681WAT      O 5284   0.312   3.301   9.683
 1681WAT     H1 5285   0.236   3.359   9.652
 1681WAT     H2 5286   0.390   3.359   9.706
 1682WAT      O 5287   9.015   9.844   2.154
 1682WAT     H1 5288   8.931   9.838   2.101
 1682WAT     H2 5289   9.048   9.752   2.176
 1683WAT      O 5290   3.249   3.142   1.734
 1683WAT     H1 5291   3.195   3.063   1.762
 1683WAT     H2 5292   3.188   3.217   1.711
 1684WAT      O 5293   8.222   2.013   4.872
 1684WAT     H1 5294   8.166   2.096   4.872
 1684WAT     H2 5295   8.206   1.962   4.956
 1685WAT      O 5296   0.900   2.671   6.333
 1685WAT     H1 5297   0.979   2.666   6.272
 1685WAT     H2 5298   0.862   2.764   6.331
 1686WAT      O 5299   4.055   3.406   2.780
 1686WAT     H1 5300   3.969   3.399   2.729
 1686WAT     H2 5301   4.042   3.468   2.858
 1687WAT      O 5302   1.517   6.348   8.221
 1687WAT     H1 5303   1.452   6.409   8.175
 1687WAT     H2 5304   1.539   6.384   8.312
 1688WAT      O 5305   1.318   0.017   9.217
 1688WAT     H1 5306   1.371   0.034   9.134
 1688WAT     H2 5307   1.274   0.102   9.246
 1689WAT      O 5308   2.383   9.595   6.723
 1689WAT     H1 5309   2.342   9.671   6.672
 1689WAT     H2 5310   2.342   9.590   6.814
 1690WAT      O 5311   4.998   9.343   9.820
 1690WAT     H1 5312   5.044   9.362   9.733
 1690WAT     H2 5313   4.918   9.285   9.804
 1691WAT      O 5314   3.803   8.193   6.275
 1691WAT     H1 5315   3.786   8.127   6.202
 1691WAT     H2 5316   3.773   8.284   6.244
 1692WAT      O 5317   9.074   7.429   6.309
 1692WAT     H1 5318   9.173   7.431   6.292
 1692WAT     H2 5319   9.043   7.520   6.335
 1693WAT      O 5320   4.996   4.512   0.131
 1693WAT     H1 5321   5.033   4.592   0.177
 1693WAT     H2 5322   4.987   4.437   0.197
 1694WAT      O 5323   3.235   0.637   1.769
 1694WAT     H1 5324   3.298   0.667   1.841
 1694WAT     H2 5325   3.266   0.549   1.732
 1695WAT      O 5326   1.391   5.363   8.428
 1695WAT     H1 5327   1.416   5.301   8.503
 1695WAT     H2 5328   1.335   5.438   8.464
 1696WAT      O 5329   2.859   2.829   0.044
 1696WAT     H1 5330   2.866   2.730   0.036
 1696WAT     H2 5331   2.948   2.871   0.029
 1697WAT      O 5332   3.292   6.502   8.217
 1697WAT     H1 5333   3.363   6.554   8.169
 1697WAT     H2 5334   3.301   6.516   8.315
 1698WAT      O 5335   2.954   5.203   1.629
 1698WAT     H1 5336   3.028   5.262   1.663
 1698WAT     H2 5337   2.993   5.115   1.600
 1699WAT      O 5338   9.423   6.459   1.262
 1699WAT     H1 5339   9.504   6.510   1.234
 1699WAT     H2 5340   9.356   6.458   1.187
 1700WAT      O 5341   7.043   6.340   0.065
 1700WAT     H1 5342   7.000   6.250   0.069
 1700WAT     H2 5343   6.980   6.405   0.022
 1701WAT      O 5344   4.507   7.968   8.154
 1701WAT     H1 5345   4.518   7.878   8.112
 1701WAT     H2 5346   4.410   7.987   8.169
 1702WAT      O 5347   8.502   1.105   9.758
 1702WAT     H1 5348   8.426   1.152   9.713
 1702WAT     H2 5349   8.543   1.166   9.826
 1703WAT      O 5350   1.499   1.305   9.519
 1703WAT     H1 5351   1.448   1.265   9.595
 1703WAT     H2 5352   1.437   1.320   9.442
 1704WAT      O 5353   6.238   1.155   4.164
 1704WAT     H1 5354   6.222   1.066   4.121
 1704WAT     H2 5355   6.205   1.152   4.259
 1705WAT      O 5356   2.718   7.420   6.829
 1705WAT     H1 5357   2.755   7.351   6.892
 1705WAT     H2 5358   2.693   7.502   6.881
 1706WAT      O 5359   0.292   2.608   6.434
 1706WAT     H1 5360   0.303   2.526   6.489
 1706WAT     H2 5361   0.288   2.689   6.493
 1707WAT      O 5362   1.353   6.594   8.084
 1707WAT     H1 5363   1.292   6.607   8.162
 1707WAT     H2 5364   1.299   6.592   8.000
 1708WAT      O 5365   9.318   6.854   0.823
 1708WAT     H1 5366   9.334   6.792   0.900
 1708WAT     H2 5367   9.321   6.949   0.856
 1709WAT      O 5368   1.837   6.446   4.178
 1709WAT     H1 5369   1.793   6.406   4.258
 1709WAT     H2 5370   1.861   6.373   4.114
 1710WAT      O 5371   2.521   7.709   3.820
 1710WAT     H1 5372   2.496   7.696   3.724
 1710WAT     H2 5373   2.612   7.671   3.836
 1711WAT      O 5374   5.837   1.060   7.127
 1711WAT     H1 5375   5.880   1.088   7.213
 1711WAT     H2 5376   5.771   0.987   7.146
 1712WAT      O 5377   6.464   0.419   6.826
 1712WAT     H1 5378   6.450   0.425   6.925
 1712WAT     H2 5379   6.380   0.388   6.782
 1713WAT      O 5380   8.597   8.414   1.298
 1713WAT     H1 5381   8.523   8.471   1.265
 1713WAT     H2 5382   8.591   8.323   1.257
 1714WAT      O 5383   6.788   4.182   4.993
 1714WAT     H1 5384   6.695   4.209   5.017
 1714WAT     H2 5385   6.852   4.256   5.018
 1715WAT      O 5386   6.646   8.086   8.364
 1715WAT     H1 5387   6.647   8.159   8.432
 1715WAT     H2 5388   6.687   8.003   8.402
 1716WAT      O 5389   9.850   8.209   5.395
 1716WAT     H1 5390   9.861   8.303   5.427
 1716WAT     H2 5391   9.815   8.210   5.301
 1717WAT      O 5392   0.442   9.594   8.209
 1717WAT     H1 5393   0.446   9.646   8.294
 1717WAT     H2 5394   0.373   9.522   8.218
 1718WAT      O 5395   3.117   3.715   5.858
 1718WAT     H1 5396   3.019   3.710   5.837
 1718WAT     H2 5397   3.166   3.757   5.782
 1719WAT      O 5398   3.844   2.842   1.330
 1719WAT     H1 5399   3.755   2.886   1.335
 1719WAT     H2 5400   3.916   2.912   1.334
 1720WAT      O 5401   0.844   5.521   3.052
 1720WAT     H1 5402   0.751   5.501   3.081
 1720WAT     H2 5403   0.899   5.549   3.130
 1721WAT      O 5404   3.472   7.374   8.000
 1721WAT     H1 5405   3.512   7.464   8.013
 1721WAT     H2 5406   3.378   7.382   7.968
 1722WAT      O 5407   6.222   7.526   4.009
 1722WAT     H1 5408   6.153   7.571   3.951
 1722WAT     H2 5409   6.265   7.595   4.068
 1723WAT      O 5410   2.948   8.942   1.677
 1723WAT     H1 5411   2.987   8.889   1.602
 1723WAT     H2 5412   3.018   8.955   1.748
 1724WAT      O 5413   0.226   3.310   4.044
 1724WAT     H1 5414   0.226   3.262   3.957
 1724WAT     H2 5415   0.151   3.277   4.101
 1725WAT      O 5416   9.192   2.577   2.163
 1725WAT     H1 5417   9.151   2.631   2.089
 1725WAT     H2 5418   9.188   2.480   2.139
 1726WAT      O 5419   2.270   4.623   7.713
 1726WAT     H1 5420   2.233   4.569   7.789
 1726WAT     H2 5421   2.202   4.631   7.641
 1727WAT      O 5422   2.050   2.318   1.901
 1727WAT     H1 5423   2.130   2.349   1.952
 1727WAT     H2 5424   2.011   2.238   1.947
 1728WAT      O 5425   4.716   6.401   0.595
 1728WAT     H1 5426   4.656   6.480   0.601
 1728WAT     H2 5427   4.676   6.325   0.646
 1729WAT      O 5428   4.674   8.675   2.686
 1729WAT     H1 5429   4.589   8.647   2.640
 1729WAT     H2 5430   4.744   8.606   2.671
 1730WAT      O 5431   6.753   4.859   0.383
 1730WAT     H1 5432   6.766   4.906   0.296
 1730WAT     H2 5433   6.842   4.845   0.427
 1731WAT      O 5434   1.832   7.256   8.548
 1731WAT     H1 5435   1.780   7.217   8.624
 1731WAT     H2 5436   1.910   7.307   8.584
 1732WAT      O 5437   3.004   2.789   0.854
 1732WAT     H1 5438   3.002   2.887   0.833
 1732WAT     H2 5439   3.097   2.760   0.874
 1733WAT      O 5440   8.931   8.932   3.081
 1733WAT     H1 5441   8.853   8.969   3.031
 1733WAT     H2 5442   8.995   8.891   3.017
 1734WAT      O 5443   8.246   0.967   4.437
 1734WAT     H1 5444   8.202   0.939   4.523
 1734WAT     H2 5445   8.196   0.928   4.360
 1735WAT      O 5446   1.724   6.872   4.768
 1735WAT     H1 5447   1.631   6.886   4.732
 1735WAT     H2 5448   1.726   6.790   4.824
 1736WAT      O 5449   1.716   6.259   2.432
 1736WAT     H1 5450   1.760   6.208   2.506
 1736WAT     H2 5451   1.654   6.327   2.471
 1737WAT      O 5452   0.395   7.508   1.930
 1737WAT     H1 5453   0.368   7.537   2.022
 1737WAT     H2 5454   0.489   7.539   1.912
 1738WAT      O 5455   2.003   2.099   6.559
 1738WAT     H1 5456   1.960   2.168   6.617
 1738WAT     H2 5457   2.052   2.144   6.484
 1739WAT      O 5458   6.670   3.027   2.833
 1739WAT     H1 5459   6.695   3.068   2.921
 1739WAT     H2 5460   6.632   3.096   2.772
 1740WAT      O 5461   0.245   0.737   7.210
 1740WAT     H1 5462   0.280   0.644   7.194
 1740WAT     H2 5463   0.145   0.735   7.210
 1741WAT      O 5464   6.694   9.771   5.041
 1741WAT     H1 5465   6.784   9.803   5.011
 1741WAT     H2 5466   6.635   9.757   4.962
 1742WAT      O 5467   8.813   6.513   8.808
 1742WAT     H1 5468   8.829   6.495   8.711
 1742WAT     H2 5469   8.890   6.479   8.862
 1743WAT      O 5470   2.129   7.461   7.939
 1743WAT     H1 5471   2.086   7.549   7.959
 1743WAT     H2 5472   2.139   7.408   8.023
 1744WAT      O 5473   5.741   9.153   6.878
 1744WAT     H1 5474   5.793   9.222   6.828
 1744WAT     H2 5475   5.774   9.062   6.853
 1745WAT      O 5476   5.972   8.544   2.350
 1745WAT     H1 5477   5.875   8.550   2.327
 1745WAT     H2 5478   6.014   8.634   2.340
 1746WAT      O 5479   6.652   5.721   1.047
 1746WAT     H1 5480   6.613   5.773   0.971
 1746WAT     H2 5481   6.677   5.629   1.015
 1747WAT      O 5482   8.868   6.888   2.507
 1747WAT     H1 5483   8.924   6.830   2.448
 1747WAT     H2 5484   8.772   6.861   2.499
 1748WAT      O 5485   7.725   0.058   7.370
 1748WAT     H1 5486   7.742   0.156   7.359
 1748WAT     H2 5487   7.721   0.014   7.281
 1749WAT      O 5488   8.746   2.128   2.573
 1749WAT     H1 5489   8.782   2.065   2.642
 1749WAT     H2 5490   8.822   2.178   2.532
 1750WAT      O 5491   4.406   6.973   6.134
 1750WAT     H1 5492   4.347   6.897   6.106
 1750WAT     H2 5493   4.471   6.995   6.060
 1751WAT      O 5494   4.881   0.053   8.300
 1751WAT     H1 5495   4.822   0.132   8.289
 1751WAT     H2 5496   4.870   0.016   8.392
 1752WAT      O 5497   1.943   8.015   6.698
 1752WAT     H1 5498   1.920   8.004   6.795
 1752WAT     H2 5499   1.895   7.946   6.644
 1753WAT      O 5500   8.426   4.085   4.169
 1753WAT     H1 5501   8.482   4.029   4.108
 1753WAT     H2 5502   8.457   4.073   4.263
 1754WAT      O 5503   6.945   2.636   8.110
 1754WAT     H1 5504   6.872   2.580   8.072
 1754WAT     H2 5505   6.958   2.718   8.054
 1755WAT      O 5506   8.561   0.528   1.774
 1755WAT     H1 5507   8.604   0.438   1.772
 1755WAT     H2 5508   8.629   0.597   1.801
 1756WAT      O 5509   6.973   6.030   3.832
 1756WAT     H1 5510   7.032   6.110   3.826
 1756WAT     H2 5511   6.989   5.971   3.752
 1757WAT      O 5512   6.041   2.409   8.639
 1757WAT     H1 5513   5.963   2.471   8.628
 1757WAT     H2 5514   6.046   2.379   8.734
 1758WAT      O 5515   8.168   1.353   7.490
 1758WAT     H1 5516   8.069   1.343   7.486
 1758WAT     H2 5517   8.199   1.408   7.412
 1759WAT      O 5518   9.370   0.875   3.700
 1759WAT     H1 5519   9.454   0.856   3.751
 1759WAT     H2 5520   9.386   0.952   3.637
 1760WAT      O 5521   1.720   4.227   7.572
 1760WAT     H1 5522   1.720   4.220   7.472
 1760WAT     H2 5523   1.629   4.204   7.607
 1761WAT      O 5524   5.567   7.086   8.725
 1761WAT     H1 5525   5.480   7.135   8.713
 1761WAT     H2 5526   5.607   7.111   8.813
 1762WAT      O 5527   1.193   5.964   4.582
 1762WAT     H1 5528   1.280   5.914   4.571
 1762WAT     H2 5529   1.212   6.058   4.608
 1763WAT      O 5530   3.936   5.852   4.282
 1763WAT     H1 5531   3.859   5.823   4.340
 1763WAT     H2 5532   4.017   5.798   4.307
 1764WAT      O 5533   7.654   9.275   1.836
 1764WAT     H1 5534   7.641   9.370   1.806
 1764WAT     H2 5535   7.591   9.216   1.786
 1765WAT      O 5536   8.779   8.976   3.782
 1765WAT     H1 5537   8.773   9.043   3.709
 1765WAT     H2 5538   8.818   9.018   3.863
 1766WAT      O 5539   7.699   0.299   4.669
 1766WAT     H1 5540   7.655   0.253   4.746
 1766WAT     H2 5541   7.785   0.341   4.700
 1767WAT      O 5542   3.516   3.217   9.049
 1767WAT     H1 5543   3.462   3.218   9.133
 1767WAT     H2 5544   3.591   3.282   9.057
 1768WAT      O 5545   8.286   4.030   0.650
 1768WAT     H1 5546   8.281   4.099   0.578
 1768WAT     H2 5547   8.195   4.019   0.691
 1769WAT      O 5548   3.327   7.681   9.801
 1769WAT     H1 5549   3.326   7.736   9.718
 1769WAT     H2 5550   3.386   7.601   9.788
 1770WAT      O 5551   0.440   9.790   3.023
 1770WAT     H1 5552   0.387   9.861   2.976
 1770WAT     H2 5553   0.380   9.713   3.044
 1771WAT      O 5554   6.439   0.915   8.643
 1771WAT     H1 5555   6.382   0.834   8.656
 1771WAT     H2 5556   6.381   0.994   8.625
 1772WAT      O 5557   4.337   7.729   0.095
 1772WAT     H1 5558   4.383   7.654   0.048
 1772WAT     H2 5559   4.304   7.795   0.027
 1773WAT      O 5560   7.385   1.416   8.411
 1773WAT     H1 5561   7.410   1.323   8.439
 1773WAT     H2 5562   7.331   1.459   8.483
 1774WAT      O 5563   6.636   9.668   2.451
 1774WAT     H1 5564   6.723   9.621   2.433
 1774WAT     H2 5565   6.564   9.626   2.396
 1775WAT      O 5566   8.672   4.813   7.233
 1775WAT     H1 5567   8.573   4.812   7.215
 1775WAT     H2 5568   8.714   4.732   7.191
 1776WAT      O 5569   1.379   4.132   8.589
 1776WAT     H1 5570   1.354   4.209   8.530
 1776WAT     H2 5571   1.437   4.164   8.664
 1777WAT      O 5572   9.154   4.110   5.712
 1777WAT     H1 5573   9.123   4.016   5.726
 1777WAT     H2 5574   9.080   4.165   5.675
 1778WAT      O 5575   6.892   2.013   1.118
 1778WAT     H1 5576   6.903   1.965   1.205
 1778WAT     H2 5577   6.879   1.946   1.045
 1779WAT      O 5578   7.533   4.245   0.038
 1779WAT     H1 5579   7.537   4.194   0.124
 1779WAT     H2 5580   7.580   4.192  -0.034
 1780WAT      O 5581   2.689   5.175   6.408
 1780WAT     H1 5582   2.738   5.219   6.483
 1780WAT     H2 5583   2.619   5.238   6.373
 1781WAT      O 5584   7.397   7.656   0.761
 1781WAT     H1 5585   7.404   7.669   0.662
 1781WAT     H2 5586   7.473   7.703   0.805
 1782WAT      O 5587   2.742   3.429   5.999
 1782WAT     H1 5588   2.702   3.338   6.012
 1782WAT     H2 5589   2.676   3.498   6.028
 1783WAT      O 5590   7.257   4.174   0.634
 1783WAT     H1 5591   7.215   4.174   0.543
 1783WAT     H2 5592   7.356   4.175   0.625
 1784WAT      O 5593   8.052   6.087   8.267
 1784WAT     H1 5594   8.054   5.988   8.251
 1784WAT     H2 5595   8.079   6.135   8.184
 1785WAT      O 5596   9.362   0.149   0.760
 1785WAT     H1 5597   9.411   0.173   0.676
 1785WAT     H2 5598   9.343   0.233   0.812
 1786WAT      O 5599   3.438   3.080   1.538
 1786WAT     H1 5600   3.366   3.067   1.606
 1786WAT     H2 5601   3.478   3.171   1.549
 1787WAT      O 5602   0.304   3.888   1.618
 1787WAT     H1 5603   0.391   3.935   1.600
 1787WAT     H2 5604   0.314   3.791   1.598
 1788WAT      O 5605   7.862   3.824   4.245
 1788WAT     H1 5606   7.854   3.872   4.158
 1788WAT     H2 5607   7.814   3.875   4.316
 1789WAT      O 5608   1.982   7.261   8.875
 1789WAT     H1 5609   1.912   7.268   8.946
 1789WAT     H2 5610   1.983   7.345   8.821
 1790WAT      O 5611   3.815   6.493   4.740
 1790WAT     H1 5612   3.787   6.458   4.650
 1790WAT     H2 5613   3.842   6.416   4.797
 1791WAT      O 5614   1.401   8.321   5.244
 1791WAT     H1 5615   1.323   8.266   5.214
 1791WAT     H2 5616   1.484   8.264   5.242
 1792WAT      O 5617   1.634   2.371   4.296
 1792WAT     H1 5618   1.715   2.379   4.237
 1792WAT     H2 5619   1.553   2.401   4.245
 1793WAT      O 5620   6.169   8.828   8.844
 1793WAT     H1 5621   6.174   8.925   8.822
 1793WAT     H2 5622   6.261   8.789   8.845
 1794WAT      O 5623   1.603   7.269   9.189
 1794WAT     H1 5624   1.565   7.266   9.281
 1794WAT     H2 5625   1.531   7.291   9.124
 1795WAT      O 5626   8.896   6.441   8.020
 1795WAT     H1 5627   8.959   6.519   8.024
 1795WAT     H2 5628   8.813   6.463   8.072
 1796WAT      O 5629   0.965   2.839   8.531
 1796WAT     H1 5630   0.911   2.832   8.615
 1796WAT     H2 5631   1.027   2.917   8.537
 1797WAT      O 5632   2.488   1.596   8.115
 1797WAT     H1 5633   2.588   1.587   8.116
 1797WAT     H2 5634   2.451   1.555   8.032
 1798WAT      O 5635   0.061   4.181   0.075
 1798WAT     H1 5636   0.156   4.176   0.105
 1798WAT     H2 5637   0.017   4.261   0.117
 1799WAT      O 5638   5.642   6.739   3.845
 1799WAT     H1 5639   5.655   6.726   3.943
 1799WAT     H2 5640   5.704   6.680   3.794
 1800WAT      O 5641   1.126   7.279   7.339
 1800WAT     H1 5642   1.111   7.359   7.281
 1800WAT     H2 5643   1.104   7.302   7.434
 1801WAT      O 5644   8.516   1.293   2.934
 1801WAT     H1 5645   8.437   1.323   2.988
 1801WAT     H2 5646   8.487   1.278   2.839
 1802WAT      O 5647   0.335   1.183   5.459
 1802WAT     H1 5648   0.311   1.103   5.516
 1802WAT     H2 5649   0.431   1.206   5.473
 1803WAT      O 5650   0.957   3.752   6.896
 1803WAT     H1 5651   1.023   3.744   6.971
 1803WAT     H2 5652   0.973   3.837   6.847
 1804WAT      O 5653   3.492   1.993   9.755
 1804WAT     H1 5654   3.402   2.029   9.781
 1804WAT     H2 5655   3.529   1.940   9.832
 1805WAT      O 5656   2.505   5.747   6.169
 1805WAT     H1 5657   2.518   5.803   6.087
 1805WAT     H2 5658   2.512   5.804   6.250
 1806WAT      O 5659   6.984   2.083   9.179
 1806WAT     H1 5660   6.911   2.058   9.242
 1806WAT     H2 5661   6.966   2.043   9.089
 1807WAT      O 5662   1.929   6.371   8.674
 1807WAT     H1 5663   2.025   6.345   8.658
 1807WAT     H2 5664   1.903   6.344   8.767
 1808WAT      O 5665   7.028   6.339   7.817
 1808WAT     H1 5666   7.099   6.268   7.814
 1808WAT     H2 5667   7.033   6.386   7.905
 1809WAT      O 5668   9.867   8.659   6.942
 1809WAT     H1 5669   9.932   8.620   7.007
 1809WAT     H2 5670   9.917   8.691   6.861
 1810WAT      O 5671   7.705   1.972   3.909
 1810WAT     H1 5672   7.610   1.945   3.923
 1810WAT     H2 5673   7.758   1.892   3.881
 1811WAT      O 5674   2.616   1.030   8.694
 1811WAT     H1 5675   2.660   0.948   8.658
 1811WAT     H2 5676   2.563   1.006   8.776
 1812WAT      O 5677   3.695   5.332   9.702
 1812WAT     H1 5678   3.698   5.432   9.702
 1812WAT     H2 5679   3.788   5.296   9.702
 1813WAT      O 5680   3.404   1.599   6.903
 1813WAT     H1 5681   3.374   1.691   6.926
 1813WAT     H2 5682   3.481   1.573   6.961
 1814WAT      O 5683   2.165   0.695   5.226
 1814WAT     H1 5684   2.236   0.692   5.296
 1814WAT     H2 5685   2.207   0.702   5.136
 1815WAT      O 5686   7.960   4.790   7.527
 1815WAT     H1 5687   8.017   4.756   7.452
 1815WAT     H2 5688   7.909   4.715   7.568
 1816WAT      O 5689   4.933   4.018   2.895
 1816WAT     H1 5690   4.928   4.098   2.836
 1816WAT     H2 5691   5.026   4.008   2.931
 1817WAT      O 5692   9.793   6.004   2.353
 1817WAT     H1 5693   9.867   6.062   2.318
 1817WAT     H2 5694   9.797   5.915   2.308
 1818WAT      O 5695   4.641   1.380   6.715
 1818WAT     H1 5696   4.727   1.399   6.666
 1818WAT     H2 5697   4.660   1.326   6.797
 1819WAT      O 5698   1.643   1.937   5.336
 1819WAT     H1 5699   1.691   2.023   5.351
 1819WAT     H2 5700   1.575   1.923   5.408
 1820WAT      O 5701   8.573   5.131   6.429
 1820WAT     H1 5702   8.612   5.180   6.351
 1820WAT     H2 5703   8.631   5.052   6.451
 1821WAT      O 5704   0.915   3.819   5.187
 1821WAT     H1 5705   0.917   3.758   5.267
 1821WAT     H2 5706   0.959   3.773   5.110
 1822WAT      O 5707   3.397   8.939   5.641
 1822WAT     H1 5708   3.479   8.993   5.622
 1822WAT     H2 5709   3.398   8.912   5.738
 1823WAT      O 5710   8.246   8.749   0.546
 1823WAT     H1 5711   8.242   8.817   0.473
 1823WAT     H2 5712   8.248   8.657   0.506
 1824WAT      O 5713   4.065   6.049   8.120
 1824WAT     H1 5714   4.107   5.975   8.066
 1824WAT     H2 5715   4.086   6.137   8.078
 1825WAT      O 5716   9.561   0.763   1.580
 1825WAT     H1 5717   9.645   0.711   1.568
 1825WAT     H2 5718   9.574   0.833   1.650
 1826WAT      O 5719   9.241   4.113   6.007
 1826WAT     H1 5720   9.151   4.125   6.049
 1826WAT     H2 5721   9.230   4.101   5.908
 1827WAT      O 5722   5.505   0.882   5.441
 1827WAT     H1 5723   5.429   0.849   5.385
 1827WAT     H2 5724   5.560   0.804   5.471
 1828WAT      O 5725   8.435   5.260   4.792
 1828WAT     H1 5726   8.498   5.252   4.869
 1828WAT     H2 5727   8.344   5.232   4.821
 1829WAT      O 5728   8.520   2.630   4.166
 1829WAT     H1 5729   8.513   2.730   4.167
 1829WAT     H2 5730   8.459   2.592   4.235
 1830WAT      O 5731   2.573   5.713   2.844
 1830WAT     H1 5732   2.492   5.691   2.790
 1830WAT     H2 5733   2.636   5.635   2.841
 1831WAT      O 5734   5.131   6.196   8.729
 1831WAT     H1 5735   5.084   6.282   8.746
 1831WAT     H2 5736   5.090   6.124   8.786
 1832WAT      O 5737   5.987   6.515   1.329
 1832WAT     H1 5738   6.017   6.461   1.407
 1832WAT     H2 5739   5.907   6.570   1.355
 1833WAT      O 5740   2.749   6.336   8.279
 1833WAT     H1 5741   2.847   6.357   8.279
 1833WAT     H2 5742   2.729   6.270   8.208
 1834WAT      O 5743   7.551   1.030   6.146
 1834WAT     H1 5744   7.640   1.014   6.188
 1834WAT     H2 5745   7.488   1.065   6.216
 1835WAT      O 5746   0.212   5.540   4.886
 1835WAT     H1 5747   0.142   5.561   4.818
 1835WAT     H2 5748   0.210   5.442   4.906
 1836WAT      O 5749   6.126   8.067   9.786
 1836WAT     H1 5750   6.216   8.024   9.787
 1836WAT     H2 5751   6.129   8.147   9.726
 1837WAT      O 5752   1.637   3.186   1.060
 1837WAT     H1 5753   1.582   3.196   0.977
 1837WAT     H2 5754   1.581   3.206   1.140
 1838WAT      O 5755   4.985   8.140   6.795
 1838WAT     H1 5756   4.947   8.219   6.746
 1838WAT     H2 5757   5.050   8.093   6.736
 1839WAT      O 5758   7.642   8.201   5.719
 1839WAT     H1 5759   7.646   8.294   5.757
 1839WAT     H2 5760   7.666   8.136   5.791
 1840WAT      O 5761   2.303   5.365   1.336
 1840WAT     H1 5762   2.363   5.299   1.381
 1840WAT     H2 5763   2.208   5.349   1.364
 1841WAT      O 5764   5.685   1.433   0.976
 1841WAT     H1 5765   5.759   1.457   1.038
 1841WAT     H2 5766   5.662   1.512   0.919
 1842WAT      O 5767   1.112   3.189   3.252
 1842WAT     H1 5768   1.195   3.239   3.232
 1842WAT     H2 5769   1.044   3.206   3.180
 1843WAT      O 5770   2.804   8.423   4.386
 1843WAT     H1 5771   2.766   8.402   4.476
 1843WAT     H2 5772   2.736   8.470   4.331
 1844WAT      O 5773   6.133   0.845   5.425
 1844WAT     H1 5774   6.128   0.879   5.331
 1844WAT     H2 5775   6.147   0.922   5.487
 1845WAT      O 5776   4.050   8.722   8.076
 1845WAT     H1 5777   4.135   8.712   8.024
 1845WAT     H2 5778   4.061   8.793   8.145
 1846WAT      O 5779   4.679   1.516   6.393
 1846WAT     H1 5780   4.734   1.448   6.441
 1846WAT     H2 5781   4.670   1.598   6.450
 1847WAT      O 5782   0.205   7.549   7.843
 1847WAT     H1 5783   0.152   7.616   7.895
 1847WAT     H2 5784   0.272   7.596   7.786
 1848WAT      O 5785   9.021   8.577   4.192
 1848WAT     H1 5786   8.990   8.587   4.097
 1848WAT     H2 5787   9.111   8.534   4.193
 1849WAT      O 5788   6.910   9.619   8.387
 1849WAT     H1 5789   6.916   9.542   8.323
 1849WAT     H2 5790   6.845   9.596   8.460
 1850WAT      O 5791   2.903   3.758   6.226
 1850WAT     H1 5792   2.892   3.706   6.312
 1850WAT     H2 5793   2.977   3.717   6.172
 1851WAT      O 5794   5.891   4.067   2.923
 1851WAT     H1 5795   5.930   4.158   2.917
 1851WAT     H2 5796   5.916   4.014   2.842
 1852WAT      O 5797   6.754   9.166   1.401
 1852WAT     H1 5798   6.761   9.177   1.301
 1852WAT     H2 5799   6.837   9.123   1.436
 1853WAT      O 5800   4.195   7.129   2.951
 1853WAT     H1 5801   4.275   7.069   2.944
 1853WAT     H2 5802   4.137   7.098   3.026
 1854WAT      O 5803   5.605   0.806   1.006
 1854WAT     H1 5804   5.648   0.854   1.082
 1854WAT     H2 5805   5.508   0.793   1.025
 1855WAT      O 5806   4.969   9.497   4.911
 1855WAT     H1 5807   4.887   9.486   4.855
 1855WAT     H2 5808   5.031   9.421   4.895
 1856WAT      O 5809   3.480   4.612   5.297
 1856WAT     H1 5810   3.404   4.663   5.257
 1856WAT     H2 5811   3.445   4.536   5.350
 1857WAT      O 5812   6.423   8.862   3.673
 1857WAT     H1 5813   6.480   8.944   3.686
 1857WAT     H2 5814   6.327   8.889   3.668
 1858WAT      O 5815   6.724   2.206   8.494
 1858WAT     H1 5816   6.776   2.192   8.410
 1858WAT     H2 5817   6.666   2.288   8.485
 1859WAT      O 5818   8.227   1.926   6.625
 1859WAT     H1 5819   8.201   2.020   6.648
 1859WAT     H2 5820   8.235   1.916   6.526
 1860WAT      O 5821   8.488   0.643   3.466
 1860WAT     H1 5822   8.557   0.599   3.523
 1860WAT     H2 5823   8.437   0.710   3.520
 1861WAT      O 5824   6.262   6.992   5.638
 1861WAT     H1 5825   6.360   7.016   5.639
 1861WAT     H2 5826   6.252   6.893   5.635
 1862WAT      O 5827   1.539   3.146   3.249
 1862WAT     H1 5828   1.482   3.132   3.330
 1862WAT     H2 5829   1.497   3.216   3.191
 1863WAT      O 5830   8.768   8.631   6.404
 1863WAT     H1 5831   8.835   8.705   6.405
 1863WAT     H2 5832   8.751   8.600   6.497
 1864WAT      O 5833   6.504   6.893   0.440
 1864WAT     H1 5834   6.483   6.991   0.437
 1864WAT     H2 5835   6.559   6.873   0.521
 1865WAT      O 5836   8.970   4.094   8.506
 1865WAT     H1 5837   8.919   4.027   8.559
 1865WAT     H2 5838   9.066   4.092   8.534
 1866WAT      O 5839   9.545   1.382   6.588
 1866WAT     H1 5840   9.621   1.317   6.592
 1866WAT     H2 5841   9.473   1.346   6.530
 1867WAT      O 5842   9.070   2.554   4.358
 1867WAT     H1 5843   9.039   2.602   4.440
 1867WAT     H2 5844   9.168   2.536   4.364
 1868WAT      O 5845   3.331   9.452   8.911
 1868WAT     H1 5846   3.374   9.515   8.847
 1868WAT     H2 5847   3.252   9.497   8.954
 1869WAT      O 5848   9.617   8.135   7.735
 1869WAT     H1 5849   9.583   8.210   7.793
 1869WAT     H2 5850   9.710   8.112   7.762
 1870WAT      O 5851   8.362   3.673   6.804
 1870WAT     H1 5852   8.326   3.755   6.847
 1870WAT     H2 5853   8.363   3.598   6.869
 1871WAT      O 5854   9.186   5.530   7.240
 1871WAT     H1 5855   9.103   5.547   7.186
 1871WAT     H2 5856   9.261   5.507   7.179
 1872WAT      O 5857   5.872   2.473   2.859
 1872WAT     H1 5858   5.885   2.415   2.779
 1872WAT     H2 5859   5.800   2.539   2.841
 1873WAT      O 5860   2.175   1.077   2.441
 1873WAT     H1 5861   2.163   1.018   2.521
 1873WAT     H2 5862   2.249   1.042   2.384
 1874WAT      O 5863   0.561   9.602   0.800
 1874WAT     H1 5864   0.537   9.514   0.841
 1874WAT     H2 5865   0.620   9.586   0.721
 1875WAT      O 5866   3.118   7.326   0.088
 1875WAT     H1 5867   3.138   7.424   0.090
 1875WAT     H2 5868   3.059   7.306   0.010
 1876WAT      O 5869   9.170   9.438   3.967
 1876WAT     H1 5870   9.111   9.358   3.975
 1876WAT     H2 5871   9.232   9.441   4.045
 1877WAT      O 5872   5.905   1.898   2.955
 1877WAT     H1 5873   5.947   1.953   3.027
 1877WAT     H2 5874   5.968   1.888   2.879
 1878WAT      O 5875   6.495   5.464   6.126
 1878WAT     H1 5876   6.459   5.546   6.171
 1878WAT     H2 5877   6.568   5.490   6.063
 1879WAT      O 5878   7.204   1.179   5.266
 1879WAT     H1 5879   7.206   1.256   5.330
 1879WAT     H2 5880   7.209   1.213   5.172
 1880WAT      O 5881   2.540   2.784   8.302
 1880WAT     H1 5882   2.463   2.720   8.310
 1880WAT     H2 5883   2.540   2.845   8.381
 1881WAT      O 5884   5.250   2.734   1.530
 1881WAT     H1 5885   5.327   2.670   1.520
 1881WAT     H2 5886   5.225   2.769   1.440
 1882WAT      O 5887   5.408   0.953   8.186
 1882WAT     H1 5888   5.340   1.009   8.139
 1882WAT     H2 5889   5.455   1.009   8.255
 1883WAT      O 5890   1.476   8.417   8.098
 1883WAT     H1 5891   1.469   8.496   8.037
 1883WAT     H2 5892   1.395   8.411   8.155
 1884WAT      O 5893   3.458   8.104   6.444
 1884WAT     H1 5894   3.532   8.077   6.505
 1884WAT     H2 5895   3.466   8.056   6.357
 1885WAT      O 5896   1.386   8.139   1.824
 1885WAT     H1 5897   1.408   8.208   1.894
 1885WAT     H2 5898   1.466   8.124   1.766
 1886WAT      O 5899   2.530   4.470   1.768
 1886WAT     H1 5900   2.565   4.425   1.686
 1886WAT     H2 5901   2.476   4.550   1.743
 1887WAT      O 5902   7.657   8.265   5.036
 1887WAT     H1 5903   7.744   8.302   5.067
 1887WAT     H2 5904   7.669   8.170   5.006
 1888WAT      O 5905   6.192   5.238   8.616
 1888WAT     H1 5906   6.264   5.270   8.677
 1888WAT     H2 5907   6.189   5.138   8.618
 1889WAT      O 5908   0.595   8.570   8.462
 1889WAT     H1 5909   0.520   8.523   8.416
 1889WAT     H2 5910   0.662   8.602   8.394
 1890WAT      O 5911   8.187   3.885   6.899
 1890WAT     H1 5912   8.232   3.921   6.817
 1890WAT     H2 5913   8.100   3.843   6.873
 1891WAT      O 5914   8.937   1.598   1.964
 1891WAT     H1 5915   8.854   1.640   1.927
 1891WAT     H2 5916   9.017   1.645   1.926
 1892WAT      O 5917   1.257   4.228   6.800
 1892WAT     H1 5918   1.198   4.307   6.814
 1892WAT     H2 5919   1.353   4.256   6.808
 1893WAT      O 5920   4.359   1.603   5.728
 1893WAT     H1 5921   4.307   1.546   5.665
 1893WAT     H2 5922   4.368   1.556   5.816
 1894WAT      O 5923   6.887   2.972   0.099
 1894WAT     H1 5924   6.952   2.933   0.034
 1894WAT     H2 5925   6.871   2.906   0.173
 1895WAT      O 5926   4.332   5.336   6.324
 1895WAT     H1 5927   4.252   5.285   6.290
 1895WAT     H2 5928   4.405   5.332   6.256
 1896WAT      O 5929   5.855   7.635   2.861
 1896WAT     H1 5930   5.940   7.589   2.883
 1896WAT     H2 5931   5.780   7.593   2.913
 1897WAT      O 5932   4.225   6.476   6.476
 1897WAT     H1 5933   4.284   6.487   6.395
 1897WAT     H2 5934   4.146   6.536   6.468
 1898WAT      O 5935   6.872   2.606   6.744
 1898WAT     H1 5936   6.917   2.695   6.739
 1898WAT     H2 5937   6.923   2.545   6.804
 1899WAT      O 5938   9.537   9.088   0.390
 1899WAT     H1 5939   9.506   9.033   0.467
 1899WAT     H2 5940   9.555   9.182   0.422
 1900WAT      O 5941   9.163   7.708   7.244
 1900WAT     H1 5942   9.065   7.707   7.265
 1900WAT     H2 5943   9.177   7.719   7.146
 1901WAT      O 5944   2.182   2.717   8.031
 1901WAT     H1 5945   2.177   2.644   8.099
 1901WAT     H2 5946   2.250   2.693   7.962
 1902WAT      O 5947   6.964   7.513   7.740
 1902WAT     H1 5948   6.889   7.448   7.738
 1902WAT     H2 5949   6.938   7.592   7.795
 1903WAT      O 5950   5.812   9.768   8.267
 1903WAT     H1 5951   5.869   9.797   8.189
 1903WAT     H2 5952   5.755   9.845   8.297
 1904WAT      O 5953   2.891   4.673   4.629
 1904WAT     H1 5954   2.905   4.590   4.683
 1904WAT     H2 5955   2.970   4.688   4.570
 1905WAT      O 5956   9.275   1.164   7.632
 1905WAT     H1 5957   9.357   1.214   7.603
 1905WAT     H2 5958   9.214   1.152   7.554
 1906WAT      O 5959   1.431   2.579   9.664
 1906WAT     H1 5960   1.514   2.547   9.710
 1906WAT     H2 5961   1.385   2.502   9.621
 1907WAT      O 5962   4.685   9.216   8.696
 1907WAT     H1 5963   4.759   9.203   8.631
 1907WAT     H2 5964   4.637   9.130   8.711
 1908WAT      O 5965   8.647   7.934   2.176
 1908WAT     H1 5966   8.606   7.897   2.093
 1908WAT     H2 5967   8.606   7.890   2.256
 1909WAT      O 5968   7.493   0.933   7.689
 1909WAT     H1 5969   7.552   0.991   7.633
 1909WAT     H2 5970   7.404   0.976   7.700
 1910WAT      O 5971   3.643   7.530   7.613
 1910WAT     H1 5972   3.624   7.435   7.640
 1910WAT     H2 5973   3.653   7.586   7.695
 1911WAT      O 5974   6.706   3.730   3.468
 1911WAT     H1 5975   6.694   3.789   3.389
 1911WAT     H2 5976   6.637   3.658   3.468
 1912WAT      O 5977   5.939   4.175   1.859
 1912WAT     H1 5978   5.912   4.100   1.798
 1912WAT     H2 5979   5.972   4.252   1.805
 1913WAT      O 5980   5.050   9.719   5.596
 1913WAT     H1 5981   5.087   9.770   5.518
 1913WAT     H2 5982   5.065   9.621   5.581
 1914WAT      O 5983   0.736   6.461   4.886
 1914WAT     H1 5984   0.695   6.439   4.797
 1914WAT     H2 5985   0.665   6.458   4.957
 1915WAT      O 5986   2.858   9.616   8.358
 1915WAT     H1 5987   2.919   9.566   8.297
 1915WAT     H2 5988   2.847   9.566   8.444
 1916WAT      O 5989   6.977   2.722   4.839
 1916WAT     H1 5990   7.016   2.680   4.757
 1916WAT     H2 5991   6.976   2.656   4.914
 1917WAT      O 5992   5.145   7.127   1.608
 1917WAT     H1 5993   5.228   7.183   1.610
 1917WAT     H2 5994   5.138   7.081   1.519
 1918WAT      O 5995   9.529   9.025   8.292
 1918WAT     H1 5996   9.532   8.968   8.374
 1918WAT     H2 5997   9.531   9.121   8.318
 1919WAT      O 5998   2.178   8.955   7.101
 1919WAT     H1 5999   2.238   8.922   7.174
 1919WAT     H2 6000   2.181   8.892   7.024
 1920WAT      O 6001   4.140   0.251   6.638
 1920WAT     H1 6002   4.108   0.164   6.602
 1920WAT     H2 6003   4.068   0.294   6.693
 1921WAT      O 6004   8.748   8.908   9.590
 1921WAT     H1 6005   8.663   8.911   9.643
 1921WAT     H2 6006   8.751   8.987   9.529
 1922WAT      O 6007   7.237   1.994   4.732
 1922WAT     H1 6008   7.156   1.988   4.790
 1922WAT     H2 6009   7.314   2.027   4.786
 1923WAT      O 6010   9.086   5.094   4.905
 1923WAT     H1 6011   9.135   5.008   4.919
 1923WAT     H2 6012   9.098   5.124   4.810
 1924WAT      O 6013   4.840   4.991   9.615
 1924WAT     H1 6014   4.850   5.086   9.588
 1924WAT     H2 6015   4.862   4.982   9.713
 1925WAT      O 6016   4.155   5.423   4.864
 1925WAT     H1 6017   4.122   5.475   4.785
 1925WAT     H2 6018   4.081   5.365   4.900
 1926WAT      O 6019   0.238   2.614   4.283
 1926WAT     H1 6020   0.221   2.710   4.307
 1926WAT     H2 6021   0.188   2.555   4.347
 1927WAT      O 6022   9.658   2.705   5.370
 1927WAT     H1 6023   9.751   2.737   5.360
 1927WAT     H2 6024   9.601   2.744   5.298
 1928WAT      O 6025   4.931   4.221   5.838
 1928WAT     H1 6026   4.842   4.182   5.814
 1928WAT     H2 6027   4.943   4.308   5.789
 1929WAT      O 6028   7.998   4.807   9.705
 1929WAT     H1 6029   7.976   4.762   9.792
 1929WAT     H2 6030   7.913   4.835   9.660
 1930WAT      O 6031   0.177   1.288   8.195
 1930WAT     H1 6032   0.188   1.387   8.203
 1930WAT     H2 6033   0.083   1.268   8.166
 1931WAT      O 6034   3.903   0.863   9.743
 1931WAT     H1 6035   3.833   0.879   9.673
 1931WAT     H2 6036   3.988   0.908   9.716
 1932WAT      O 6037   4.127   2.667   8.338
 1932WAT     H1 6038   4.182   2.587   8.361
 1932WAT     H2 6039   4.055   2.678   8.407
 1933WAT      O 6040   2.218   3.894   5.921
 1933WAT     H1 6041   2.311   3.858   5.911
 1933WAT     H2 6042   2.158   3.850   5.855
 1934WAT      O 6043   8.745   5.161   7.901
 1934WAT     H1 6044   8.702   5.221   7.834
 1934WAT     H2 6045   8.739   5.202   7.992
 1935WAT      O 6046   5.303   3.577   5.708
 1935WAT     H1 6047   5.358   3.563   5.790
 1935WAT     H2 6048   5.361   3.615   5.635
 1936WAT      O 6049   1.970   1.315   3.061
 1936WAT     H1 6050   1.944   1.321   3.158
 1936WAT     H2 6051   1.937   1.229   3.023
 1937WAT      O 6052   6.782   6.442   3.075
 1937WAT     H1 6053   6.809   6.449   3.171
 1937WAT     H2 6054   6.845   6.381   3.027
 1938WAT      O 6055   2.638   1.035   2.302
 1938WAT     H1 6056   2.718   1.057   2.358
 1938WAT     H2 6057   2.666   0.974   2.227
 1939WAT      O 6058   4.975   7.450   8.607
 1939WAT     H1 6059   4.885   7.445   8.652
 1939WAT     H2 6060   5.009   7.358   8.592
 1940WAT      O 6061   0.434   9.701   8.484
 1940WAT     H1 6062   0.418   9.798   8.470
 1940WAT     H2 6063   0.482   9.687   8.571
 1941WAT      O 6064   8.647   9.693   6.097
 1941WAT     H1 6065   8.596   9.613   6.066
 1941WAT     H2 6066   8.590   9.747   6.159
 1942WAT      O 6067   7.570   5.948   5.019
 1942WAT     H1 6068   7.632   5.906   5.084
 1942WAT     H2 6069   7.572   5.897   4.933
 1943WAT      O 6070   4.654   0.128   3.288
 1943WAT     H1 6071   4.560   0.136   3.322
 1943WAT     H2 6072   4.655   0.141   3.189
 1944WAT      O 6073   1.903   0.134   2.124
 1944WAT     H1 6074   1.846   0.058   2.154
 1944WAT     H2 6075   1.851   0.219   2.129
 1945WAT      O 6076   6.741   1.380   4.334
 1945WAT     H1 6077   6.696   1.364   4.246
 1945WAT     H2 6078   6.794   1.465   4.329
 1946WAT      O 6079   8.131   8.527   5.497
 1946WAT     H1 6080   8.128   8.427   5.496
 1946WAT     H2 6081   8.077   8.562   5.573
 1947WAT      O 6082   7.262   9.505   9.675
 1947WAT     H1 6083   7.259   9.596   9.635
 1947WAT     H2 6084   7.330   9.502   9.748
 1948WAT      O 6085   2.610   3.487   2.972
 1948WAT     H1 6086   2.659   3.498   2.885
 1948WAT     H2 6087   2.513   3.506   2.958
 1949WAT      O 6088   5.298   1.087   6.095
 1949WAT     H1 6089   5.391   1.103   6.063
 1949WAT     H2 6090   5.301   1.028   6.176
 1950WAT      O 6091   8.715   0.949   6.653
 1950WAT     H1 6092   8.639   0.885   6.642
 1950WAT     H2 6093   8.688   1.039   6.617
 1951WAT      O 6094   9.312   6.045   2.261
 1951WAT     H1 6095   9.297   5.966   2.201
 1951WAT     H2 6096   9.278   6.128   2.216
 1952WAT      O 6097   3.374   8.603   7.338
 1952WAT     H1 6098   3.351   8.518   7.384
 1952WAT     H2 6099   3.458   8.641   7.378
 1953WAT      O 6100   7.602   5.549   6.703
 1953WAT     H1 6101   7.609   5.509   6.795
 1953WAT     H2 6102   7.506   5.562   6.680
 1954WAT      O 6103   1.096   5.091   2.786
 1954WAT     H1 6104   1.194   5.075   2.793
 1954WAT     H2 6105   1.046   5.009   2.814
 1955WAT      O 6106   2.803   4.206   9.168
 1955WAT     H1 6107   2.858   4.187   9.087
 1955WAT     H2 6108   2.854   4.269   9.228
 1956WAT      O 6109   0.324   1.191   2.280
 1956WAT     H1 6110   0.267   1.181   2.199
 1956WAT     H2 6111   0.285   1.261   2.340
 1957WAT      O 6112   7.379   0.044   1.135
 1957WAT     H1 6113   7.302  -0.010   1.170
 1957WAT     H2 6114   7.344   0.120   1.080
 1958WAT      O 6115   7.800   1.022   8.518
 1958WAT     H1 6116   7.765   1.030   8.424
 1958WAT     H2 6117   7.858   0.942   8.525
 1959WAT      O 6118   1.624   3.829   1.310
 1959WAT     H1 6119   1.537   3.879   1.310
 1959WAT     H2 6120   1.660   3.826   1.404
 1960WAT      O 6121   4.398   4.610   0.558
 1960WAT     H1 6122   4.390   4.569   0.649
 1960WAT     H2 6123   4.457   4.552   0.501
 1961WAT      O 6124   2.543   4.056   3.521
 1961WAT     H1 6125   2.611   4.040   3.592
 1961WAT     H2 6126   2.505   3.969   3.491
 1962WAT      O 6127   9.298   6.778   1.707
 1962WAT     H1 6128   9.324   6.732   1.622
 1962WAT     H2 6129   9.210   6.742   1.738
 1963WAT      O 6130   3.865   8.382   6.756
 1963WAT     H1 6131   3.855   8.401   6.659
 1963WAT     H2 6132   3.790   8.324   6.786
 1964WAT      O 6133   6.636   6.083   3.029
 1964WAT     H1 6134   6.698   6.117   3.100
 1964WAT     H2 6135   6.552   6.137   3.029
 1965WAT      O 6136   9.757   1.642   0.814
 1965WAT     H1 6137   9.815   1.691   0.880
 1965WAT     H2 6138   9.661   1.651   0.841
 1966WAT      O 6139   2.195   4.173   9.225
 1966WAT     H1 6140   2.280   4.166   9.276
 1966WAT     H2 6141   2.191   4.101   9.156
 1967WAT      O 6142   1.033   3.655   6.418
 1967WAT     H1 6143   1.103   3.647   6.347
 1967WAT     H2 6144   1.070   3.625   6.506
 1968WAT      O 6145   3.913   2.285   6.536
 1968WAT     H1 6146   3.971   2.283   6.618
 1968WAT     H2 6147   3.873   2.195   6.522
 1969WAT      O 6148   3.542   2.640   9.470
 1969WAT     H1 6149   3.596   2.575   9.416
 1969WAT     H2 6150   3.572   2.637   9.565
 1970WAT      O 6151   7.765   2.642   7.813
 1970WAT     H1 6152   7.786   2.550   7.782
 1970WAT     H2 6153   7.844   2.680   7.860
 1971WAT      O 6154   5.714   3.634   4.519
 1971WAT     H1 6155   5.640   3.678   4.468
 1971WAT     H2 6156   5.748   3.697   4.590
 1972WAT      O 6157   8.067   7.895   8.806
 1972WAT     H1 6158   8.023   7.864   8.722
 1972WAT     H2 6159   8.045   7.832   8.880
 1973WAT      O 6160   7.362   4.882   5.513
 1973WAT     H1 6161   7.385   4.815   5.442
 1973WAT     H2 6162   7.383   4.845   5.603
 1974WAT      O 6163   4.409   0.193   6.716
 1974WAT     H1 6164   4.467   0.257   6.665
 1974WAT     H2 6165   4.313   0.216   6.699
 1975WAT      O 6166   4.455   5.686   9.388
 1975WAT     H1 6167   4.492   5.764   9.438
 1975WAT     H2 6168   4.421   5.617   9.452
 1976WAT      O 6169   7.347   5.135   0.053
 1976WAT     H1 6170   7.257   5.177   0.049
 1976WAT     H2 6171   7.394   5.163   0.137
 1977WAT      O 6172   4.534   8.256   7.240
 1977WAT     H1 6173   4.594   8.323   7.196
 1977WAT     H2 6174   4.523   8.177   7.181
 1978WAT      O 6175   2.808   9.307   8.749
 1978WAT     H1 6176   2.878   9.236   8.741
 1978WAT     H2 6177   2.852   9.395   8.763
 1979WAT      O 6178   3.587   5.086   3.413
 1979WAT     H1 6179   3.684   5.095   3.435
 1979WAT     H2 6180   3.576   5.082   3.313
 1980WAT      O 6181   4.606   7.508   5.479
 1980WAT     H1 6182   4.590   7.473   5.386
 1980WAT     H2 6183   4.519   7.530   5.522
 1981WAT      O 6184   7.134   2.813   9.575
 1981WAT     H1 6185   7.118   2.819   9.476
 1981WAT     H2 6186   7.093   2.729   9.610
 1982WAT      O 6187   5.165   2.092   0.168
 1982WAT     H1 6188   5.236   2.040   0.215
 1982WAT     H2 6189   5.086   2.103   0.228
 1983WAT      O 6190   4.805   5.406   3.611
 1983WAT     H1 6191   4.836   5.500   3.593
 1983WAT     H2 6192   4.775   5.364   3.526
 1984WAT      O 6193   2.181   8.574   8.204
 1984WAT     H1 6194   2.269   8.616   8.227
 1984WAT     H2 6195   2.145   8.526   8.284
 1985WAT      O 6196   7.422   5.951   0.941
 1985WAT     H1 6197   7.357   5.991   1.005
 1985WAT     H2 6198   7.487   6.020   0.911
 1986WAT      O 6199   1.511   4.574   6.301
 1986WAT     H1 6200   1.544   4.503   6.363
 1986WAT     H2 6201   1.424   4.547   6.262
 1987WAT      O 6202   1.737   4.310   4.561
 1987WAT     H1 6203   1.671   4.345   4.628
 1987WAT     H2 6204   1.763   4.216   4.586
 1988WAT      O 6205   7.909   0.185   6.423
 1988WAT     H1 6206   7.893   0.265   6.481
 1988WAT     H2 6207   7.905   0.102   6.478
 1989WAT      O 6208   3.345   7.884   4.849
 1989WAT     H1 6209   3.338   7.847   4.757
 1989WAT     H2 6210   3.329   7.811   4.915
 1990WAT      O 6211   7.159   1.646   9.791
 1990WAT     H1 6212   7.123   1.716   9.728
 1990WAT     H2 6213   7.247   1.676   9.828
 1991WAT      O 6214   3.102   5.110   7.123
 1991WAT     H1 6215   3.187   5.091   7.075
 1991WAT     H2 6216   3.122   5.147   7.214
 1992WAT      O 6217   6.338   7.929   9.776
 1992WAT     H1 6218   6.422   7.952   9.727
 1992WAT     H2 6219   6.314   7.833   9.758
 1993WAT      O 6220   0.202   5.689   2.281
 1993WAT     H1 6221   0.238   5.773   2.240
 1993WAT     H2 6222   0.238   5.679   2.374
 1994WAT      O 6223   1.369   7.158   7.648
 1994WAT     H1 6224   1.450   7.103   7.629
 1994WAT     H2 6225   1.396   7.249   7.678
 1995WAT      O 6226   5.316   7.229   6.402
 1995WAT     H1 6227   5.322   7.299   6.473
 1995WAT     H2 6228   5.313   7.274   6.312
 1996WAT      O 6229   0.498   1.142   6.932
 1996WAT     H1 6230   0.443   1.150   7.015
 1996WAT     H2 6231   0.554   1.225   6.921
 1997WAT      O 6232   5.961   1.688   1.638
 1997WAT     H1 6233   5.995   1.596   1.617
 1997WAT     H2 6234   6.039   1.750   1.651
 1998WAT      O 6235   5.498   6.681   1.365
 1998WAT     H1 6236   5.523   6.709   1.272
 1998WAT     H2 6237   5.560   6.608   1.396
 1999WAT      O 6238   3.022   8.554   1.803
 1999WAT     H1 6239   3.092   8.613   1.762
 1999WAT     H2 6240   3.001   8.479   1.740
 2000WAT      O 6241   0.926   7.276   5.248
 2000WAT     H1 6242   0.923   7.187   5.294
 2000WAT     H2 6243   0.906   7.348   5.314
 2001WAT      O 6244   1.186   5.281   8.796
 2001WAT     H1 6245   1.208   5.188   8.825
 2001WAT     H2 6246   1.271   5.329   8.772
 2002WAT      O 6247   3.805   8.798   9.583
 2002WAT     H1 6248   3.824   8.782   9.680
 2002WAT     H2 6249   3.881   8.763   9.528
 2003WAT      O 6250   7.333   3.258   8.206
 2003WAT     H1 6251   7.328   3.215   8.296
 2003WAT     H2 6252   7.386   3.343   8.213
 2004WAT      O 6253   7.500   9.543   8.006
 2004WAT     H1 6254   7.428   9.586   8.060
 2004WAT     H2 6255   7.587   9.588   8.024
 2005WAT      O 6256   7.061   9.499   7.707
 2005WAT     H1 6257   7.152   9.507   7.667
 2005WAT     H2 6258   7.038   9.402   7.719
 2006WAT      O 6259   6.387   5.538   1.108
 2006WAT     H1 6260   6.351   5.449   1.080
 2006WAT     H2 6261   6.423   5.587   1.029
 2007WAT      O 6262   3.537   5.876   7.481
 2007WAT     H1 6263   3.527   5.778   7.493
 2007WAT     H2 6264   3.518   5.923   7.567
 2008WAT      O 6265   1.869   6.248   8.899
 2008WAT     H1 6266   1.866   6.148   8.910
 2008WAT     H2 6267   1.847   6.292   8.986
 2009WAT      O 6268   8.755   3.717   4.730
 2009WAT     H1 6269   8.665   3.746   4.765
 2009WAT     H2 6270   8.771   3.622   4.757
 2010WAT      O 6271   5.063   5.110   5.397
 2010WAT     H1 6272   5.156   5.131   5.428
 2010WAT     H2 6273   5.026   5.188   5.347
 2011WAT      O 6274   0.383   0.016   0.399
 2011WAT     H1 6275   0.483   0.015   0.392
 2011WAT     H2 6276   0.351  -0.073   0.433
 2012WAT      O 6277   2.384   4.389   0.305
 2012WAT     H1 6278   2.387   4.294   0.275
 2012WAT     H2 6279   2.316   4.399   0.377
 2013WAT      O 6280   0.506   8.792   9.346
 2013WAT     H1 6281   0.532   8.726   9.276
 2013WAT     H2 6282   0.520   8.885   9.311
 2014WAT      O 6283   2.852   9.644   0.423
 2014WAT     H1 6284   2.835   9.741   0.443
 2014WAT     H2 6285   2.942   9.618   0.456
 2015WAT      O 6286   3.085   3.613   3.262
 2015WAT     H1 6287   3.010   3.596   3.325
 2015WAT     H2 6288   3.058   3.682   3.195
 2016WAT      O 6289   9.067   5.689   9.044
 2016WAT     H1 6290   8.982   5.740   9.041
 2016WAT     H2 6291   9.142   5.746   9.010
 2017WAT      O 6292   6.718   5.732   1.295
 2017WAT     H1 6293   6.783   5.658   1.281
 2017WAT     H2 6294   6.684   5.764   1.207
 2018WAT      O 6295   9.445   6.483   8.211
 2018WAT     H1 6296   9.484   6.441   8.292
 2018WAT     H2 6297   9.371   6.426   8.176
 2019WAT      O 6298   8.620   3.162   1.796
 2019WAT     H1 6299   8.644   3.184   1.701
 2019WAT     H2 6300   8.543   3.218   1.825
 2020WAT      O 6301   8.234   3.048   8.990
 2020WAT     H1 6302   8.288   2.984   9.046
 2020WAT     H2 6303   8.200   3.121   9.048
 2021WAT      O 6304   8.201   4.368   3.353
 2021WAT     H1 6305   8.215   4.322   3.441
 2021WAT     H2 6306   8.106   4.398   3.346
 2022WAT      O 6307   8.134   9.537   0.824
 2022WAT     H1 6308   8.138   9.437   0.824
 2022WAT     H2 6309   8.171   9.572   0.910
 2023WAT      O 6310   8.451   1.037   5.421
 2023WAT     H1 6311   8.551   1.038   5.416
 2023WAT     H2 6312   8.416   0.959   5.370
 2024WAT      O 6313   6.748   9.312   5.989
 2024WAT     H1 6314   6.725   9.398   6.036
 2024WAT     H2 6315   6.843   9.289   6.009
 2025WAT      O 6316   4.614   0.715   9.417
 2025WAT     H1 6317   4.609   0.664   9.331
 2025WAT     H2 6318   4.564   0.667   9.488
 2026WAT      O 6319   9.160   8.576   6.444
 2026WAT     H1 6320   9.095   8.651   6.437
 2026WAT     H2 6321   9.140   8.507   6.374
 2027WAT      O 6322   9.762   2.604   6.676
 2027WAT     H1 6323   9.711   2.549   6.611
 2027WAT     H2 6324   9.718   2.601   6.765
 2028WAT      O 6325   2.602   9.844   1.841
 2028WAT     H1 6326   2.513   9.872   1.877
 2028WAT     H2 6327   2.605   9.745   1.831
 2029WAT      O 6328   7.306   0.677   4.403
 2029WAT     H1 6329   7.281   0.591   4.360
 2029WAT     H2 6330   7.399   0.703   4.376
 2030WAT      O 6331   7.994   1.886   7.041
 2030WAT     H1 6332   7.943   1.898   7.127
 2030WAT     H2 6333   7.934   1.845   6.973
 2031WAT      O 6334   0.423   8.173   5.668
 2031WAT     H1 6335   0.347   8.221   5.712
 2031WAT     H2 6336   0.414   8.075   5.683
 2032WAT      O 6337   7.095   5.218   5.139
 2032WAT     H1 6338   7.010   5.168   5.153
 2032WAT     H2 6339   7.082   5.315   5.161
 2033WAT      O 6340   0.138   8.083   2.562
 2033WAT     H1 6341   0.190   8.076   2.647
 2033WAT     H2 6342   0.046   8.045   2.575
 2034WAT      O 6343   7.942   0.680   9.784
 2034WAT     H1 6344   7.896   0.632   9.710
 2034WAT     H2 6345   7.915   0.640   9.871
 2035WAT      O 6346   5.442   5.016   0.713
 2035WAT     H1 6347   5.481   4.934   0.755
 2035WAT     H2 6348   5.424   5.084   0.784
 2036WAT      O 6349   2.880   6.587   8.491
 2036WAT     H1 6350   2.922   6.498   8.471
 2036WAT     H2 6351   2.792   6.594   8.444
 2037WAT      O 6352   0.358   5.557   1.482
 2037WAT     H1 6353   0.270   5.597   1.457
 2037WAT     H2 6354   0.429   5.590   1.420
 2038WAT      O 6355   7.152   8.641   7.571
 2038WAT     H1 6356   7.246   8.612   7.553
 2038WAT     H2 6357   7.152   8.708   7.646
 2039WAT      O 6358   8.212   5.337   4.038
 2039WAT     H1 6359   8.149   5.276   3.990
 2039WAT     H2 6360   8.226   5.304   4.131
 2040WAT      O 6361   7.456   9.771   7.041
 2040WAT     H1 6362   7.386   9.700   7.052
 2040WAT     H2 6363   7.417   9.850   6.994
 2041WAT      O 6364   6.246   1.187   5.324
 2041WAT     H1 6365   6.171   1.253   5.328
 2041WAT     H2 6366   6.232   1.116   5.392
 2042WAT      O 6367   7.688   5.709   8.187
 2042WAT     H1 6368   7.639   5.681   8.105
 2042WAT     H2 6369   7.654   5.798   8.218
 2043WAT      O 6370   2.918   9.086   7.709
 2043WAT     H1 6371   2.845   9.026   7.743
 2043WAT     H2 6372   2.898   9.180   7.735
 2044WAT      O 6373   7.785   9.626   8.995
 2044WAT     H1 6374   7.826   9.595   8.909
 2044WAT     H2 6375   7.839   9.590   9.072
 2045WAT      O 6376   8.198   2.135   5.822
 2045WAT     H1 6377   8.258   2.144   5.742
 2045WAT     H2 6378   8.192   2.038   5.848
 2046WAT      O 6379   0.179   6.820   9.768
 2046WAT     H1 6380   0.126   6.882   9.826
 2046WAT     H2 6381   0.276   6.841   9.776
 2047WAT      O 6382   9.557   1.457   2.848
 2047WAT     H1 6383   9.593   1.388   2.785
 2047WAT     H2 6384   9.459   1.440   2.862
 2048WAT      O 6385   1.989   1.692   4.598
 2048WAT     H1 6386   1.957   1.769   4.653
 2048WAT     H2 6387   2.089   1.691   4.598
 2049WAT      O 6388   3.443   1.346   9.023
 2049WAT     H1 6389   3.527   1.379   8.979
 2049WAT     H2 6390   3.368   1.408   9.001
 2050WAT      O 6391   9.199   1.570   0.964
 2050WAT     H1 6392   9.276   1.510   0.985
 2050WAT     H2 6393   9.155   1.598   1.050
 2051WAT      O 6394   2.000   1.901   0.882
 2051WAT     H1 6395   2.064   1.962   0.929
 2051WAT     H2 6396   1.994   1.926   0.786
 2052WAT      O 6397   4.208   6.768   9.793
 2052WAT     H1 6398   4.275   6.836   9.763
 2052WAT     H2 6399   4.242   6.676   9.772
 2053WAT      O 6400   1.366   2.442   6.176
 2053WAT     H1 6401   1.464   2.460   6.186
 2053WAT     H2 6402   1.351   2.383   6.097
 2054WAT      O 6403   5.378   1.976   3.814
 2054WAT     H1 6404   5.426   1.941   3.733
 2054WAT     H2 6405   5.375   1.905   3.884
 2055WAT      O 6406   2.232   3.091   9.731
 2055WAT     H1 6407   2.218   3.171   9.672
 2055WAT     H2 6408   2.177   3.100   9.814
 2056WAT      O 6409   7.294   4.170   1.033
 2056WAT     H1 6410   7.272   4.215   1.119
 2056WAT     H2 6411   7.368   4.104   1.048
 2057WAT      O 6412   0.396   7.263   8.315
 2057WAT     H1 6413   0.302   7.262   8.282
 2057WAT     H2 6414   0.455   7.216   8.249
 2058WAT      O 6415   3.166   2.678   1.951
 2058WAT     H1 6416   3.079   2.628   1.943
 2058WAT     H2 6417   3.204   2.663   2.043
 2059WAT      O 6418   7.736   1.769   8.560
 2059WAT     H1 6419   7.645   1.812   8.566
 2059WAT     H2 6420   7.733   1.678   8.602
 2060WAT      O 6421   8.098   3.666   3.460
 2060WAT     H1 6422   8.066   3.761   3.469
 2060WAT     H2 6423   8.198   3.664   3.465
 2061WAT      O 6424   4.637   5.880   9.510
 2061WAT     H1 6425   4.612   5.975   9.489
 2061WAT     H2 6426   4.710   5.850   9.448
 2062WAT      O 6427   7.098   1.637   3.774
 2062WAT     H1 6428   7.074   1.657   3.679
 2062WAT     H2 6429   7.157   1.556   3.777
 2063WAT      O 6430   3.373   1.983   7.447
 2063WAT     H1 6431   3.290   1.929   7.463
 2063WAT     H2 6432   3.367   2.069   7.498
 2064WAT      O 6433   8.207   2.866   5.860
 2064WAT     H1 6434   8.275   2.794   5.873
 2064WAT     H2 6435   8.249   2.945   5.815
 2065WAT      O 6436   1.425   0.108   6.113
 2065WAT     H1 6437   1.329   0.133   6.100
 2065WAT     H2 6438   1.432   0.037   6.182
 2066WAT      O 6439   8.985   6.892   1.859
 2066WAT     H1 6440   8.898   6.934   1.886
 2066WAT     H2 6441   8.972   6.838   1.777
 2067WAT      O 6442   0.182   8.513   4.975
 2067WAT     H1 6443   0.199   8.566   5.058
 2067WAT     H2 6444   0.264   8.459   4.953
 2068WAT      O 6445   9.632   5.831   0.178
 2068WAT     H1 6446   9.553   5.867   0.228
 2068WAT     H2 6447   9.705   5.899   0.176
 2069WAT      O 6448   7.535   2.762   2.677
 2069WAT     H1 6449   7.585   2.840   2.639
 2069WAT     H2 6450   7.512   2.699   2.603
 2070WAT      O 6451   8.015   1.594   7.679
 2070WAT     H1 6452   8.053   1.523   7.621
 2070WAT     H2 6453   8.089   1.650   7.717
 2071WAT      O 6454   0.287   0.452   7.192
 2071WAT     H1 6455   0.386   0.440   7.184
 2071WAT     H2 6456   0.255   0.410   7.277
 2072WAT      O 6457   5.136   0.380   0.558
 2072WAT     H1 6458   5.207   0.309   0.559
 2072WAT     H2 6459   5.049   0.339   0.531
 2073WAT      O 6460   8.366   1.460   9.755
 2073WAT     H1 6461   8.438   1.506   9.703
 2073WAT     H2 6462   8.284   1.517   9.757
 2074WAT      O 6463   1.190   5.313   3.661
 2074WAT     H1 6464   1.225   5.256   3.586
 2074WAT     H2 6465   1.250   5.391   3.674
 2075WAT      O 6466   1.204   6.267   1.525
 2075WAT     H1 6467   1.158   6.183   1.496
 2075WAT     H2 6468   1.165   6.345   1.476
 2076WAT      O 6469   8.638   5.247   9.524
 2076WAT     H1 6470   8.657   5.327   9.468
 2076WAT     H2 6471   8.591   5.274   9.607
 2077WAT      O 6472   6.624   2.105   5.124
 2077WAT     H1 6473   6.695   2.147   5.181
 2077WAT     H2 6474   6.634   2.006   5.127
 2078WAT      O 6475   3.600   0.886   2.397
 2078WAT     H1 6476   3.622   0.796   2.435
 2078WAT     H2 6477   3.506   0.886   2.364
 2079WAT      O 6478   7.632   0.586   2.202
 2079WAT     H1 6479   7.628   0.615   2.107
 2079WAT     H2 6480   7.718   0.537   2.218
 2080WAT      O 6481   1.353   8.701   3.462
 2080WAT     H1 6482   1.274   8.730   3.408
 2080WAT     H2 6483   1.371   8.769   3.533
 2081WAT      O 6484   5.792   0.578   1.603
 2081WAT     H1 6485   5.724   0.615   1.666
 2081WAT     H2 6486   5.855   0.650   1.576
 2082WAT      O 6487   5.703   0.349   1.227
 2082WAT     H1 6488   5.665   0.424   1.281
 2082WAT     H2 6489   5.801   0.366   1.211
 2083WAT      O 6490   8.950   4.310   4.208
 2083WAT     H1 6491   8.983   4.216   4.215
 2083WAT     H2 6492   9.017   4.373   4.247
 2084WAT      O 6493   9.619   3.279   7.589
 2084WAT     H1 6494   9.549   3.295   7.659
 2084WAT     H2 6495   9.624   3.181   7.569
 2085WAT      O 6496   1.442   5.178   7.810
 2085WAT     H1 6497   1.429   5.223   7.722
 2085WAT     H2 6498   1.432   5.079   7.799
 2086WAT      O 6499   9.425   2.625   3.037
 2086WAT     H1 6500   9.476   2.661   3.114
 2086WAT     H2 6501   9.484   2.621   2.956
 2087WAT      O 6502   1.748   3.759   0.189
 2087WAT     H1 6503   1.682   3.822   0.231
 2087WAT     H2 6504   1.840   3.797   0.197
 2088WAT      O 6505   3.260   8.068   6.618
 2088WAT     H1 6506   3.243   7.982   6.570
 2088WAT     H2 6507   3.340   8.113   6.578
 2089WAT      O 6508   7.596   7.510   4.373
 2089WAT     H1 6509   7.619   7.596   4.329
 2089WAT     H2 6510   7.667   7.487   4.440
 2090WAT      O 6511   4.436   4.961   4.631
 2090WAT     H1 6512   4.443   4.903   4.711
 2090WAT     H2 6513   4.425   5.057   4.659
 2091WAT      O 6514   7.326   4.543   4.015
 2091WAT     H1 6515   7.424   4.545   3.992
 2091WAT     H2 6516   7.293   4.637   4.025
 2092WAT      O 6517   3.145   1.441   9.325
 2092WAT     H1 6518   3.140   1.360   9.384
 2092WAT     H2 6519   3.204   1.421   9.246
 2093WAT      O 6520   3.763   0.239   6.256
 2093WAT     H1 6521   3.693   0.274   6.193
 2093WAT     H2 6522   3.802   0.315   6.308
 2094WAT      O 6523   6.719   1.695   6.941
 2094WAT     H1 6524   6.746   1.753   7.017
 2094WAT     H2 6525   6.730   1.599   6.966
 2095WAT      O 6526   5.124   2.069   7.784
 2095WAT     H1 6527   5.192   2.109   7.845
 2095WAT     H2 6528   5.057   2.139   7.759
 2096WAT      O 6529   6.542   6.148   4.301
 2096WAT     H1 6530   6.567   6.081   4.371
 2096WAT     H2 6531   6.563   6.240   4.333
 2097WAT      O 6532   3.545   3.784   3.322
 2097WAT     H1 6533   3.556   3.860   3.387
 2097WAT     H2 6534   3.480   3.718   3.359
 2098WAT      O 6535   8.543   5.239   2.344
 2098WAT     H1 6536   8.509   5.302   2.274
 2098WAT     H2 6537   8.571   5.154   2.300
 2099WAT      O 6538   5.495   9.393   4.729
 2099WAT     H1 6539   5.510   9.348   4.641
 2099WAT     H2 6540   5.570   9.372   4.791
 2100WAT      O 6541   5.109   7.224   8.133
 2100WAT     H1 6542   5.034   7.158   8.126
 2100WAT     H2 6543   5.073   7.316   8.113
 2101WAT      O 6544   7.567   0.698   1.959
 2101WAT     H1 6545   7.503   0.771   1.983
 2101WAT     H2 6546   7.542   0.660   1.870
 2102WAT      O 6547   7.512   5.635   3.092
 2102WAT     H1 6548   7.482   5.540   3.090
 2102WAT     H2 6549   7.523   5.668   2.998
 2103WAT      O 6550   5.531   7.569   1.114
 2103WAT     H1 6551   5.494   7.643   1.170
 2103WAT     H2 6552   5.471   7.554   1.035
 2104WAT      O 6553   4.612   2.071   7.597
 2104WAT     H1 6554   4.620   1.974   7.578
 2104WAT     H2 6555   4.685   2.121   7.551
 2105WAT      O 6556   9.568   4.974   9.746
 2105WAT     H1 6557   9.592   5.065   9.780
 2105WAT     H2 6558   9.604   4.905   9.809
 2106WAT      O 6559   6.369   7.075   4.919
 2106WAT     H1 6560   6.435   7.123   4.861
 2106WAT     H2 6561   6.417   7.034   4.997
 2107WAT      O 6562   9.732   8.884   7.029
 2107WAT     H1 6563   9.644   8.845   7.058
 2107WAT     H2 6564   9.785   8.814   6.982
 2108WAT      O 6565   6.112   3.270   4.780
 2108WAT     H1 6566   6.048   3.211   4.830
 2108WAT     H2 6567   6.083   3.277   4.684
 2109WAT      O 6568   7.188   2.279   5.532
 2109WAT     H1 6569   7.214   2.371   5.505
 2109WAT     H2 6570   7.189   2.219   5.452
 2110WAT      O 6571   3.658   3.068   8.542
 2110WAT     H1 6572   3.723   3.108   8.607
 2110WAT     H2 6573   3.565   3.090   8.570
 2111WAT      O 6574   4.176   6.765   4.682
 2111WAT     H1 6575   4.237   6.772   4.603
 2111WAT     H2 6576   4.213   6.697   4.746
 2112WAT      O 6577   6.640   0.832   3.273
 2112WAT     H1 6578   6.717   0.777   3.305
 2112WAT     H2 6579   6.571   0.771   3.231
 2113WAT      O 6580   6.925   8.966   5.049
 2113WAT     H1 6581   6.980   8.983   4.966
 2113WAT     H2 6582   6.889   9.053   5.083
 2114WAT      O 6583   3.906   4.836   2.374
 2114WAT     H1 6584   3.852   4.755   2.397
 2114WAT     H2 6585   3.893   4.907   2.443
 2115WAT      O 6586   1.020   6.132   2.354
 2115WAT     H1 6587   0.920   6.136   2.352
 2115WAT     H2 6588   1.058   6.224   2.353
 2116WAT      O 6589   1.805   1.087   4.250
 2116WAT     H1 6590   1.881   1.083   4.314
 2116WAT     H2 6591   1.777   0.994   4.226
 2117WAT      O 6592   9.302   6.681   8.808
 2117WAT     H1 6593   9.354   6.751   8.761
 2117WAT     H2 6594   9.222   6.723   8.852
 2118WAT      O 6595   1.823   9.120   0.640
 2118WAT     H1 6596   1.903   9.060   0.644
 2118WAT     H2 6597   1.773   9.104   0.555
 2119WAT      O 6598   8.191   6.203   5.458
 2119WAT     H1 6599   8.151   6.243   5.540
 2119WAT     H2 6600   8.123   6.198   5.385
 2120WAT      O 6601   1.021   9.843   3.958
 2120WAT     H1 6602   1.085   9.767   3.953
 2120WAT     H2 6603   0.931   9.810   3.986
 2121WAT      O 6604   8.415   1.662   3.504
 2121WAT     H1 6605   8.328   1.697   3.470
 2121WAT     H2 6606   8.442   1.581   3.452
 2122WAT      O 6607   0.735   2.662   6.867
 2122WAT     H1 6608   0.741   2.678   6.768
 2122WAT     H2 6609   0.673   2.728   6.908
 2123WAT      O 6610   2.767   7.572   7.242
 2123WAT     H1 6611   2.818   7.486   7.240
 2123WAT     H2 6612   2.671   7.553   7.263
 2124WAT      O 6613   8.757   9.702   2.600
 2124WAT     H1 6614   8.666   9.664   2.589
 2124WAT     H2 6615   8.782   9.754   2.519
 2125WAT      O 6616   1.836   2.838   8.403
 2125WAT     H1 6617   1.879   2.872   8.319
 2125WAT     H2 6618   1.846   2.739   8.408
 2126WAT      O 6619   4.742   8.608   4.058
 2126WAT     H1 6620   4.744   8.569   3.966
 2126WAT     H2 6621   4.716   8.538   4.123
 2127WAT      O 6622   9.643   2.969   8.523
 2127WAT     H1 6623   9.563   3.014   8.562
 2127WAT     H2 6624   9.639   2.871   8.544
 2128WAT      O 6625   6.838   1.733   2.060
 2128WAT     H1 6626   6.935   1.721   2.038
 2128WAT     H2 6627   6.816   1.681   2.143
 2129WAT      O 6628   3.505   1.682   2.587
 2129WAT     H1 6629   3.429   1.698   2.525
 2129WAT     H2 6630   3.505   1.753   2.658
 2130WAT      O 6631   9.507   9.757   7.605
 2130WAT     H1 6632   9.495   9.814   7.686
 2130WAT     H2 6633   9.533   9.815   7.527
 2131WAT      O 6634   1.766   7.319   7.685
 2131WAT     H1 6635   1.742   7.349   7.592
 2131WAT     H2 6636   1.758   7.219   7.690
 2132WAT      O 6637   2.527   2.590   5.674
 2132WAT     H1 6638   2.549   2.567   5.580
 2132WAT     H2 6639   2.583   2.536   5.736
 2133WAT      O 6640   4.310   5.022   0.119
 2133WAT     H1 6641   4.374   4.969   0.175
 2133WAT     H2 6642   4.315   4.989   0.025
 2134WAT      O 6643   8.531   2.299   3.711
 2134WAT     H1 6644   8.547   2.388   3.668
 2134WAT     H2 6645   8.503   2.313   3.806
 2135WAT      O 6646   8.893   1.478   2.830
 2135WAT     H1 6647   8.822   1.548   2.816
 2135WAT     H2 6648   8.970   1.497   2.769
 2136WAT      O 6649   5.780   4.098   3.504
 2136WAT     H1 6650   5.715   4.070   3.434
 2136WAT     H2 6651   5.857   4.144   3.461
 2137WAT      O 6652   7.051   5.737   9.870
 2137WAT     H1 6653   6.989   5.698   9.938
 2137WAT     H2 6654   7.139   5.691   9.874
 2138WAT      O 6655   4.186   3.981   4.318
 2138WAT     H1 6656   4.214   3.997   4.223
 2138WAT     H2 6657   4.086   3.977   4.322
 2139WAT      O 6658   2.533   4.463   8.948
 2139WAT     H1 6659   2.469   4.479   8.873
 2139WAT     H2 6660   2.584   4.378   8.931
 2140WAT      O 6661   2.424   8.583   1.963
 2140WAT     H1 6662   2.395   8.678   1.969
 2140WAT     H2 6663   2.354   8.529   1.916
 2141WAT      O 6664   3.580   4.084   9.303
 2141WAT     H1 6665   3.555   4.180   9.300
 2141WAT     H2 6666   3.674   4.073   9.271
 2142WAT      O 6667   9.289   6.394   2.681
 2142WAT     H1 6668   9.223   6.392   2.607
 2142WAT     H2 6669   9.333   6.484   2.685
 2143WAT      O 6670   2.821   2.709   2.978
 2143WAT     H1 6671   2.736   2.758   2.957
 2143WAT     H2 6672   2.800   2.628   3.034
 2144WAT      O 6673   2.997   4.672   7.098
 2144WAT     H1 6674   2.961   4.725   7.174
 2144WAT     H2 6675   3.093   4.697   7.083
 2145WAT      O 6676   0.450   7.450   6.486
 2145WAT     H1 6677   0.446   7.501   6.572
 2145WAT     H2 6678   0.472   7.355   6.505
 2146WAT      O 6679   5.889   8.095   2.565
 2146WAT     H1 6680   5.865   8.000   2.588
 2146WAT     H2 6681   5.808   8.144   2.535
 2147WAT      O 6682   6.358   7.686   8.027
 2147WAT     H1 6683   6.417   7.653   7.953
 2147WAT     H2 6684   6.412   7.694   8.111
 2148WAT      O 6685   1.891   5.368   6.895
 2148WAT     H1 6686   1.807   5.333   6.937
 2148WAT     H2 6687   1.960   5.296   6.892
 2149WAT      O 6688   7.514   8.675   5.789
 2149WAT     H1 6689   7.557   8.702   5.702
 2149WAT     H2 6690   7.584   8.672   5.860
 2150WAT      O 6691   9.841   5.552   1.841
 2150WAT     H1 6692   9.937   5.580   1.839
 2150WAT     H2 6693   9.789   5.613   1.901
 2151WAT      O 6694   1.046   9.264   5.501
 2151WAT     H1 6695   1.117   9.266   5.431
 2151WAT     H2 6696   0.994   9.179   5.493
 2152WAT      O 6697   7.538   4.538   0.936
 2152WAT     H1 6698   7.567   4.628   0.969
 2152WAT     H2 6699   7.606   4.502   0.873
 2153WAT      O 6700   0.538   0.246   3.307
 2153WAT     H1 6701   0.538   0.279   3.212
 2153WAT     H2 6702   0.515   0.322   3.368
 2154WAT      O 6703   3.214   9.502   8.469
 2154WAT     H1 6704   3.206   9.602   8.477
 2154WAT     H2 6705   3.125   9.463   8.449
 2155WAT      O 6706   6.771   5.598   6.091
 2155WAT     H1 6707   6.865   5.623   6.071
 2155WAT     H2 6708   6.711   5.634   6.019
 2156WAT      O 6709   0.566   1.501   9.824
 2156WAT     H1 6710   0.548   1.586   9.773
 2156WAT     H2 6711   0.594   1.430   9.760
 2157WAT      O 6712   2.485   3.430   1.057
 2157WAT     H1 6713   2.486   3.506   0.992
 2157WAT     H2 6714   2.560   3.441   1.123
 2158WAT      O 6715   3.529   3.838   3.788
 2158WAT     H1 6716   3.574   3.867   3.872
 2158WAT     H2 6717   3.592   3.846   3.711
 2159WAT      O 6718   6.190   6.157   6.760
 2159WAT     H1 6719   6.118   6.104   6.804
 2159WAT     H2 6720   6.164   6.177   6.665
 2160WAT      O 6721   3.564   9.019   7.696
 2160WAT     H1 6722   3.573   8.942   7.759
 2160WAT     H2 6723   3.473   9.019   7.655
 2161WAT      O 6724   9.256   0.284   6.164
 2161WAT     H1 6725   9.308   0.356   6.119
 2161WAT     H2 6726   9.318   0.212   6.195
 2162WAT      O 6727   8.392   0.350   1.328
 2162WAT     H1 6728   8.467   0.406   1.364
 2162WAT     H2 6729   8.327   0.409   1.279
 2163WAT      O 6730   2.185   8.113   2.979
 2163WAT     H1 6731   2.214   8.117   3.075
 2163WAT     H2 6732   2.203   8.201   2.935
 2164WAT      O 6733   0.867   5.042   0.822
 2164WAT     H1 6734   0.876   5.012   0.917
 2164WAT     H2 6735   0.820   4.972   0.768
 2165WAT      O 6736   4.203   0.418   8.388
 2165WAT     H1 6737   4.123   0.396   8.443
 2165WAT     H2 6738   4.259   0.486   8.436
 2166WAT      O 6739   0.215   6.000   5.164
 2166WAT     H1 6740   0.292   6.063   5.152
 2166WAT     H2 6741   0.250   5.907   5.171
 2167WAT      O 6742   0.150   7.321   4.854
 2167WAT     H1 6743   0.138   7.416   4.827
 2167WAT     H2 6744   0.156   7.315   4.954
 2168WAT      O 6745   6.450   4.511   0.096
 2168WAT     H1 6746   6.356   4.478   0.098
 2168WAT     H2 6747   6.492   4.500   0.186
 2169WAT      O 6748   5.346   6.758   2.970
 2169WAT     H1 6749   5.350   6.727   2.875
 2169WAT     H2 6750   5.349   6.858   2.973
 2170WAT      O 6751   3.172   5.898   8.277
 2170WAT     H1 6752   3.168   5.976   8.340
 2170WAT     H2 6753   3.099   5.834   8.298
 2171WAT      O 6754   6.668   6.925   3.107
 2171WAT     H1 6755   6.750   6.900   3.056
 2171WAT     H2 6756   6.689   6.998   3.172
 2172WAT      O 6757   8.001   3.936   3.487
 2172WAT     H1 6758   7.917   3.891   3.455
 2172WAT     H2 6759   8.015   4.020   3.434
 2173WAT      O 6760   5.470   0.377   5.476
 2173WAT     H1 6761   5.409   0.393   5.553
 2173WAT     H2 6762   5.562   0.359   5.510
 2174WAT      O 6763   9.838   9.112   8.468
 2174WAT     H1 6764   9.746   9.147   8.487
 2174WAT     H2 6765   9.862   9.043   8.536
 2175WAT      O 6766   4.692   1.278   8.749
 2175WAT     H1 6767   4.680   1.340   8.671
 2175WAT     H2 6768   4.630   1.306   8.822
 2176WAT      O 6769   0.117   4.268   9.543
 2176WAT     H1 6770   0.178   4.275   9.463
 2176WAT     H2 6771   0.087   4.173   9.554
 2177WAT      O 6772   7.347   3.850   2.363
 2177WAT     H1 6773   7.444   3.834   2.380
 2177WAT     H2 6774   7.303   3.885   2.445
 2178WAT      O 6775   5.846   6.950   6.041
 2178WAT     H1 6776   5.828   7.016   5.968
 2178WAT     H2 6777   5.929   6.899   6.020
 2179WAT      O 6778   8.781   8.720   3.700
 2179WAT     H1 6779   8.826   8.722   3.611
 2179WAT     H2 6780   8.786   8.810   3.743
 2180WAT      O 6781   9.681   6.932   5.122
 2180WAT     H1 6782   9.584   6.949   5.104
 2180WAT     H2 6783   9.720   6.879   5.047
 2181WAT      O 6784   4.331   2.984   4.204
 2181WAT     H1 6785   4.342   2.990   4.303
 2181WAT     H2 6786   4.239   3.015   4.179
 2182WAT      O 6787   8.743   4.623   5.828
 2182WAT     H1 6788   8.729   4.656   5.921
 2182WAT     H2 6789   8.838   4.593   5.818
 2183WAT      O 6790   3.272   6.105   5.117
 2183WAT     H1 6791   3.324   6.019   5.127
 2183WAT     H2 6792   3.322   6.167   5.057
 2184WAT      O 6793   1.394   1.570   5.371
 2184WAT     H1 6794   1.370   1.584   5.275
 2184WAT     H2 6795   1.406   1.659   5.415
 2185WAT      O 6796   7.036   9.664   2.235
 2185WAT     H1 6797   6.962   9.730   2.222
 2185WAT     H2 6798   7.123   9.713   2.247
 2186WAT      O 6799   0.765   8.974   0.599
 2186WAT     H1 6800   0.774   8.940   0.505
 2186WAT     H2 6801   0.777   9.073   0.599
 2187WAT      O 6802   1.406   0.977   7.870
 2187WAT     H1 6803   1.504   0.999   7.868
 2187WAT     H2 6804   1.363   1.006   7.785
 2188WAT      O 6805   0.116   5.355   9.641
 2188WAT     H1 6806   0.063   5.427   9.596
 2188WAT     H2 6807   0.196   5.334   9.586
 2189WAT      O 6808   0.409   7.872   5.708
 2189WAT     H1 6809   0.439   7.778   5.720
 2189WAT     H2 6810   0.344   7.878   5.633
 2190WAT      O 6811   9.750   5.912   3.425
 2190WAT     H1 6812   9.829   5.871   3.380
 2190WAT     H2 6813   9.777   5.998   3.468
 2191WAT      O 6814   8.084   8.217   8.538
 2191WAT     H1 6815   8.174   8.259   8.532
 2191WAT     H2 6816   8.089   8.122   8.508
 2192WAT      O 6817   3.068   9.490   2.382
 2192WAT     H1 6818   3.122   9.571   2.405
 2192WAT     H2 6819   3.006   9.512   2.307
 2193WAT      O 6820   5.301   9.208   7.467
 2193WAT     H1 6821   5.383   9.203   7.524
 2193WAT     H2 6822   5.232   9.264   7.513
 2194WAT      O 6823   0.963   4.872   7.536
 2194WAT     H1 6824   0.969   4.943   7.606
 2194WAT     H2 6825   1.010   4.789   7.569
 2195WAT      O 6826   8.162   8.626   7.118
 2195WAT     H1 6827   8.241   8.580   7.158
 2195WAT     H2 6828   8.159   8.721   7.148
 2196WAT      O 6829   8.082   7.842   2.536
 2196WAT     H1 6830   8.150   7.771   2.513
 2196WAT     H2 6831   8.013   7.845   2.464
 2197WAT      O 6832   7.677   1.056   6.773
 2197WAT     H1 6833   7.599   1.013   6.728
 2197WAT     H2 6834   7.746   1.081   6.705
 2198WAT      O 6835   9.292   3.201   8.193
 2198WAT     H1 6836   9.370   3.139   8.203
 2198WAT     H2 6837   9.227   3.186   8.268
 2199WAT      O 6838   8.983   2.120   1.695
 2199WAT     H1 6839   8.903   2.163   1.739
 2199WAT     H2 6840   8.974   2.127   1.596
 2200WAT      O 6841   6.854   2.827   1.537
 2200WAT     H1 6842   6.949   2.800   1.552
 2200WAT     H2 6843   6.808   2.839   1.625
 2201WAT      O 6844   5.801   9.531   5.058
 2201WAT     H1 6845   5.764   9.496   4.972
 2201WAT     H2 6846   5.731   9.585   5.105
 2202WAT      O 6847   9.005   5.788   2.152
 2202WAT     H1 6848   8.911   5.820   2.137
 2202WAT     H2 6849   9.004   5.707   2.211
 2203WAT      O 6850   1.210   6.934   3.194
 2203WAT     H1 6851   1.267   6.986   3.131
 2203WAT     H2 6852   1.268   6.892   3.265
 2204WAT      O 6853   0.908   6.435   0.572
 2204WAT     H1 6854   0.984   6.464   0.514
 2204WAT     H2 6855   0.861   6.357   0.529
 2205WAT      O 6856   9.102   7.098   0.839
 2205WAT     H1 6857   9.141   7.145   0.917
 2205WAT     H2 6858   9.020   7.147   0.808
 2206WAT      O 6859   8.393   2.923   4.890
 2206WAT     H1 6860   8.396   2.960   4.983
 2206WAT     H2 6861   8.351   2.832   4.891
 2207WAT      O 6862   9.650   3.578   8.582
 2207WAT     H1 6863   9.650   3.599   8.680
 2207WAT     H2 6864   9.680   3.484   8.568
 2208WAT      O 6865   9.811   3.638   3.961
 2208WAT     H1 6866   9.895   3.663   3.913
 2208WAT     H2 6867   9.767   3.721   3.996
 2209WAT      O 6868   4.479   1.952   5.496
 2209WAT     H1 6869   4.441   1.872   5.450
 2209WAT     H2 6870   4.449   1.952   5.592
 2210WAT      O 6871   3.972   7.963   9.682
 2210WAT     H1 6872   3.943   7.906   9.605
 2210WAT     H2 6873   3.896   8.022   9.711
 2211WAT      O 6874   1.706   8.258   5.063
 2211WAT     H1 6875   1.794   8.216   5.041
 2211WAT     H2 6876   1.680   8.235   5.156
 2212WAT      O 6877   1.554   8.544   2.392
 2212WAT     H1 6878   1.610   8.487   2.453
 2212WAT     H2 6879   1.484   8.487   2.349
 2213WAT      O 6880   0.622   4.679   1.863
 2213WAT     H1 6881   0.687   4.687   1.938
 2213WAT     H2 6882   0.529   4.687   1.898
 2214WAT      O 6883   7.520   1.339   7.962
 2214WAT     H1 6884   7.499   1.436   7.974
 2214WAT     H2 6885   7.618   1.324   7.974
 2215WAT      O 6886   4.982   8.016   5.659
 2215WAT     H1 6887   4.978   8.068   5.574
 2215WAT     H2 6888   5.047   7.941   5.649
 2216WAT      O 6889   6.615   3.822   7.260
 2216WAT     H1 6890   6.628   3.798   7.356
 2216WAT     H2 6891   6.702   3.853   7.222
 2217WAT      O 6892   6.712   6.579   0.211
 2217WAT     H1 6893   6.657   6.512   0.261
 2217WAT     H2 6894   6.780   6.618   0.273
 2218WAT      O 6895   2.063   8.684   0.493
 2218WAT     H1 6896   1.967   8.688   0.465
 2218WAT     H2 6897   2.122   8.699   0.414
 2219WAT      O 6898   4.869   9.649   0.037
 2219WAT     H1 6899   4.813   9.702   0.101
 2219WAT     H2 6900   4.820   9.567   0.009
 2220WAT      O 6901   9.460   1.810   2.673
 2220WAT     H1 6902   9.511   1.811   2.759
 2220WAT     H2 6903   9.482   1.727   2.622
 2221WAT      O 6904   2.163   1.480   1.968
 2221WAT     H1 6905   2.215   1.491   2.052
 2221WAT     H2 6906   2.144   1.569   1.928
 2222WAT      O 6907   3.162   9.786   8.485
 2222WAT     H1 6908   3.164   9.813   8.388
 2222WAT     H2 6909   3.239   9.829   8.533
 2223WAT      O 6910   8.298   5.512   4.760
 2223WAT     H1 6911   8.264   5.549   4.673
 2223WAT     H2 6912   8.334   5.420   4.744
 2224WAT      O 6913   1.396   4.597   0.231
 2224WAT     H1 6914   1.476   4.561   0.278
 2224WAT     H2 6915   1.388   4.695   0.249
 2225WAT      O 6916   1.696   6.657   4.121
 2225WAT     H1 6917   1.735   6.565   4.130
 2225WAT     H2 6918   1.740   6.719   4.186
 2226WAT      O 6919   5.258   2.464   8.516
 2226WAT     H1 6920   5.357   2.452   8.502
 2226WAT     H2 6921   5.234   2.436   8.609
 2227WAT      O 6922   5.196   3.426   4.705
 2227WAT     H1 6923   5.243   3.395   4.788
 2227WAT     H2 6924   5.226   3.371   4.627
 2228WAT      O 6925   2.714   8.008   2.994
 2228WAT     H1 6926   2.737   7.992   3.090
 2228WAT     H2 6927   2.661   8.093   2.986
 2229WAT      O 6928   0.698   0.340   4.836
 2229WAT     H1 6929   0.684   0.398   4.916
 2229WAT     H2 6930   0.611   0.300   4.807
 2230WAT      O 6931   8.086   5.104   0.172
 2230WAT     H1 6932   7.991   5.124   0.150
 2230WAT     H2 6933   8.102   5.118   0.270
 2231WAT      O 6934   9.692   8.412   6.632
 2231WAT     H1 6935   9.723   8.393   6.725
 2231WAT     H2 6936   9.739   8.492   6.597
 2232WAT      O 6937   1.060   0.174   7.603
 2232WAT     H1 6938   1.062   0.081   7.638
 2232WAT     H2 6939   1.106   0.177   7.514
 2233WAT      O 6940   7.379   3.466   3.868
 2233WAT     H1 6941   7.431   3.462   3.953
 2233WAT     H2 6942   7.412   3.396   3.805
 2234WAT      O 6943   7.944   2.717   3.858
 2234WAT     H1 6944   7.920   2.749   3.950
 2234WAT     H2 6945   8.028   2.762   3.828
 2235WAT      O 6946   1.111   4.593   0.204
 2235WAT     H1 6947   1.208   4.572   0.212
 2235WAT     H2 6948   1.077   4.559   0.116
 2236WAT      O 6949   1.266   3.175   2.491
 2236WAT     H1 6950   1.200   3.246   2.516
 2236WAT     H2 6951   1.238   3.131   2.406
 2237WAT      O 6952   4.093   6.466   5.751
 2237WAT     H1 6953   4.134   6.414   5.676
 2237WAT     H2 6954   4.062   6.404   5.822
 2238WAT      O 6955   8.371   7.703   4.123
 2238WAT     H1 6956   8.335   7.776   4.065
 2238WAT     H2 6957   8.395   7.624   4.067
 2239WAT      O 6958   1.000   0.954   0.809
 2239WAT     H1 6959   0.969   1.008   0.888
 2239WAT     H2 6960   0.978   0.858   0.823
 2240WAT      O 6961   8.120   2.361   5.193
 2240WAT     H1 6962   8.050   2.431   5.179
 2240WAT     H2 6963   8.187   2.394   5.260
 2241WAT      O 6964   8.304   9.092   7.392
 2241WAT     H1 6965   8.295   9.153   7.471
 2241WAT     H2 6966   8.387   9.116   7.341
 2242WAT      O 6967   9.362   7.842   4.523
 2242WAT     H1 6968   9.306   7.857   4.442
 2242WAT     H2 6969   9.333   7.905   4.596
 2243WAT      O 6970   6.803   0.058   9.455
 2243WAT     H1 6971   6.713   0.057   9.501
 2243WAT     H2 6972   6.859  -0.016   9.491
 2244WAT      O 6973   6.645   2.878   5.463
 2244WAT     H1 6974   6.654   2.779   5.451
 2244WAT     H2 6975   6.549   2.900   5.482
 2245WAT      O 6976   5.630   9.198   6.226
 2245WAT     H1 6977   5.658   9.210   6.131
 2245WAT     H2 6978   5.683   9.124   6.268
 2246WAT      O 6979   5.770   9.391   2.590
 2246WAT     H1 6980   5.705   9.341   2.534
 2246WAT     H2 6981   5.751   9.489   2.584
 2247WAT      O 6982   7.115   6.608   9.262
 2247WAT     H1 6983   7.032   6.596   9.209
 2247WAT     H2 6984   7.195   6.595   9.203
 2248WAT      O 6985   6.247   1.171   6.344
 2248WAT     H1 6986   6.237   1.256   6.396
 2248WAT     H2 6987   6.178   1.106   6.374
 2249WAT      O 6988   0.554   5.909   3.141
 2249WAT     H1 6989   0.633   5.948   3.094
 2249WAT     H2 6990   0.550   5.943   3.235
 2250WAT      O 6991   6.268   2.681   4.372
 2250WAT     H1 6992   6.233   2.589   4.358
 2250WAT     H2 6993   6.197   2.737   4.415
 2251WAT      O 6994   2.858   4.547   2.180
 2251WAT     H1 6995   2.856   4.536   2.081
 2251WAT     H2 6996   2.873   4.458   2.223
 2252WAT      O 6997   8.727   1.014   5.458
 2252WAT     H1 6998   8.718   1.009   5.358
 2252WAT     H2 6999   8.754   0.925   5.494
 2253WAT      O 7000   8.795   2.500   4.183
 2253WAT     H1 7001   8.849   2.485   4.265
 2253WAT     H2 7002   8.716   2.558   4.205
 2254WAT      O 7003   7.390   6.150   4.966
 2254WAT     H1 7004   7.452   6.078   4.996
 2254WAT     H2 7005   7.417   6.180   4.874
 2255WAT      O 7006   4.197   4.917   2.595
 2255WAT     H1 7007   4.265   4.847   2.615
 2255WAT     H2 7008   4.175   4.966   2.679
 2256WAT      O 7009   8.763   7.664   0.778
 2256WAT     H1 7010   8.709   7.591   0.820
 2256WAT     H2 7011   8.827   7.700   0.845
 2257WAT      O 7012   3.705   6.188   5.737
 2257WAT     H1 7013   3.804   6.192   5.745
 2257WAT     H2 7014   3.680   6.185   5.640
 2258WAT      O 7015   3.546   2.587   5.850
 2258WAT     H1 7016   3.593   2.500   5.834
 2258WAT     H2 7017   3.448   2.571   5.858
 2259WAT      O 7018   9.854   4.638   9.270
 2259WAT     H1 7019   9.850   4.618   9.368
 2259WAT     H2 7020   9.936   4.691   9.250
 2260WAT      O 7021   4.094   9.425   0.723
 2260WAT     H1 7022   4.113   9.492   0.796
 2260WAT     H2 7023   4.079   9.335   0.764
 2261WAT      O 7024   2.820   4.893   3.591
 2261WAT     H1 7025   2.741   4.927   3.539
 2261WAT     H2 7026   2.872   4.971   3.626
 2262WAT      O 7027   5.150   4.836   8.038
 2262WAT     H1 7028   5.205   4.909   7.996
 2262WAT     H2 7029   5.209   4.776   8.091
 2263WAT      O 7030   6.424   5.230   4.038
 2263WAT     H1 7031   6.335   5.198   4.070
 2263WAT     H2 7032   6.426   5.226   3.938
 2264WAT      O 7033   1.683   8.546   6.979
 2264WAT     H1 7034   1.617   8.471   6.976
 2264WAT     H2 7035   1.708   8.572   6.885
 2265WAT      O 7036   3.673   7.726   4.639
 2265WAT     H1 7037   3.680   7.799   4.706
 2265WAT     H2 7038   3.647   7.641   4.685
 2266WAT      O 7039   0.433   5.704   4.278
 2266WAT     H1 7040   0.408   5.671   4.369
 2266WAT     H2 7041   0.353   5.742   4.233
 2267WAT      O 7042   5.921   8.530   1.473
 2267WAT     H1 7043   5.878   8.573   1.551
 2267WAT     H2 7044   5.990   8.464   1.504
 2268WAT      O 7045   6.139   1.313   1.849
 2268WAT     H1 7046   6.221   1.266   1.814
 2268WAT     H2 7047   6.079   1.335   1.773
 2269WAT      O 7048   6.353   0.568   5.255
 2269WAT     H1 7049   6.322   0.652   5.212
 2269WAT     H2 7050   6.333   0.571   5.353
 2270WAT      O 7051   7.020   8.924   1.529
 2270WAT     H1 7052   7.071   9.006   1.552
 2270WAT     H2 7053   7.029   8.905   1.431
 2271WAT      O 7054   1.353   0.914   6.504
 2271WAT     H1 7055   1.308   1.003   6.498
 2271WAT     H2 7056   1.284   0.842   6.513
 2272WAT      O 7057   1.473   9.600   8.656
 2272WAT     H1 7058   1.389   9.644   8.625
 2272WAT     H2 7059   1.462   9.570   8.751
 2273WAT      O 7060   3.210   0.745   0.778
 2273WAT     H1 7061   3.262   0.663   0.803
 2273WAT     H2 7062   3.142   0.722   0.709
 2274WAT      O 7063   7.224   0.962   3.687
 2274WAT     H1 7064   7.247   1.016   3.607
 2274WAT     H2 7065   7.262   0.870   3.678
 2275WAT      O 7066   4.029   7.047   8.926
 2275WAT     H1 7067   4.121   7.068   8.892
 2275WAT     H2 7068   3.961   7.085   8.863
 2276WAT      O 7069   2.489   8.372   7.649
 2276WAT     H1 7070   2.529   8.405   7.734
 2276WAT     H2 7071   2.473   8.449   7.587
 2277WAT      O 7072   9.851   5.820   7.245
 2277WAT     H1 7073   9.870   5.730   7.205
 2277WAT     H2 7074   9.820   5.882   7.173
 2278WAT      O 7075   5.148   2.058   9.615
 2278WAT     H1 7076   5.159   1.968   9.573
 2278WAT     H2 7077   5.070   2.105   9.573
 2279WAT      O 7078   6.070   2.820   4.526
 2279WAT     H1 7079   6.083   2.831   4.625
 2279WAT     H2 7080   6.104   2.902   4.479
 2280WAT      O 7081   4.654   7.157   6.423
 2280WAT     H1 7082   4.748   7.182   6.446
 2280WAT     H2 7083   4.655   7.081   6.358
 2281WAT      O 7084   9.054   0.385   3.465
 2281WAT     H1 7085   8.977   0.402   3.404
 2281WAT     H2 7086   9.140   0.403   3.416
 2282WAT      O 7087   3.589   3.522   0.735
 2282WAT     H1 7088   3.545   3.545   0.822
 2282WAT     H2 7089   3.520   3.518   0.663
 2283WAT      O 7090   7.649   9.827   9.366
 2283WAT     H1 7091   7.656   9.811   9.267
 2283WAT     H2 7092   7.555   9.811   9.396
 2284WAT      O 7093   8.783   4.710   4.476
 2284WAT     H1 7094   8.733   4.708   4.390
 2284WAT     H2 7095   8.873   4.667   4.464
 2285WAT      O 7096   6.958   5.792   6.443
 2285WAT     H1 7097   6.996   5.881   6.418
 2285WAT     H2 7098   7.032   5.725   6.447
 2286WAT      O 7099   6.021   2.702   7.415
 2286WAT     H1 7100   5.966   2.661   7.342
 2286WAT     H2 7101   5.982   2.791   7.439
 2287WAT      O 7102   5.186   9.269   6.555
 2287WAT     H1 7103   5.138   9.355   6.542
 2287WAT     H2 7104   5.129   9.194   6.522
 2288WAT      O 7105   4.169   7.658   1.381
 2288WAT     H1 7106   4.182   7.650   1.479
 2288WAT     H2 7107   4.109   7.736   1.362
 2289WAT      O 7108   0.200   1.878   8.146
 2289WAT     H1 7109   0.286   1.861   8.098
 2289WAT     H2 7110   0.124   1.876   8.081
 2290WAT      O 7111   3.524   4.894   6.904
 2290WAT     H1 7112   3.492   4.969   6.846
 2290WAT     H2 7113   3.493   4.909   6.997
 2291WAT      O 7114   8.392   7.812   4.999
 2291WAT     H1 7115   8.415   7.859   5.084
 2291WAT     H2 7116   8.415   7.870   4.921
 2292WAT      O 7117   5.980   9.786   3.135
 2292WAT     H1 7118   5.945   9.762   3.225
 2292WAT     H2 7119   6.012   9.881   3.136
 2293WAT      O 7120   7.122   0.857   2.492
 2293WAT     H1 7121   7.152   0.813   2.408
 2293WAT     H2 7122   7.089   0.950   2.471
 2294WAT      O 7123   5.722   9.182   1.817
 2294WAT     H1 7124   5.781   9.122   1.763
 2294WAT     H2 7125   5.716   9.148   1.911
 2295WAT      O 7126   0.466   2.683   0.305
 2295WAT     H1 7127   0.373   2.698   0.271
 2295WAT     H2 7128   0.522   2.763   0.284
 2296WAT      O 7129   3.634   4.509   6.210
 2296WAT     H1 7130   3.644   4.608   6.207
 2296WAT     H2 7131   3.695   4.467   6.142
 2297WAT      O 7132   5.054   1.134   6.013
 2297WAT     H1 7133   5.154   1.129   6.017
 2297WAT     H2 7134   5.015   1.054   6.059
 2298WAT      O 7135   6.487   1.505   9.017
 2298WAT     H1 7136   6.554   1.511   9.092
 2298WAT     H2 7137   6.535   1.508   8.930
 2299WAT      O 7138   5.112   6.539   9.336
 2299WAT     H1 7139   5.035   6.601   9.320
 2299WAT     H2 7140   5.189   6.565   9.277
 2300WAT      O 7141   3.239   9.146   1.999
 2300WAT     H1 7142   3.259   9.102   2.086
 2300WAT     H2 7143   3.173   9.220   2.013
 2301WAT      O 7144   5.806   3.693   9.158
 2301WAT     H1 7145   5.766   3.605   9.182
 2301WAT     H2 7146   5.834   3.740   9.241
 2302WAT      O 7147   0.097   3.774   4.220
 2302WAT     H1 7148   0.016   3.786   4.277
 2302WAT     H2 7149   0.072   3.787   4.124
 2303WAT      O 7150   6.313   4.339   0.486
 2303WAT     H1 7151   6.384   4.268   0.490
 2303WAT     H2 7152   6.342   4.412   0.425
 2304WAT      O 7153   8.219   4.953   4.392
 2304WAT     H1 7154   8.127   4.976   4.424
 2304WAT     H2 7155   8.216   4.871   4.335
 2305WAT      O 7156   6.311   6.326   3.492
 2305WAT     H1 7157   6.293   6.229   3.504
 2305WAT     H2 7158   6.231   6.370   3.452
 2306WAT      O 7159   0.669   9.817   0.410
 2306WAT     H1 7160   0.698   9.743   0.470
 2306WAT     H2 7161   0.743   9.840   0.347
 2307WAT      O 7162   0.155   5.066   7.234
 2307WAT     H1 7163   0.144   4.998   7.307
 2307WAT     H2 7164   0.117   5.153   7.263
 2308WAT      O 7165   5.984   9.507   8.665
 2308WAT     H1 7166   5.971   9.588   8.609
 2308WAT     H2 7167   6.010   9.430   8.607
 2309WAT      O 7168   7.426   0.230   3.568
 2309WAT     H1 7169   7.458   0.321   3.544
 2309WAT     H2 7170   7.467   0.163   3.505
 2310WAT      O 7171   9.327   3.728   7.678
 2310WAT     H1 7172   9.392   3.688   7.614
 2310WAT     H2 7173   9.356   3.708   7.772
 2311WAT      O 7174   1.339   0.508   6.339
 2311WAT     H1 7175   1.430   0.480   6.371
 2311WAT     H2 7176   1.307   0.585   6.395
 2312WAT      O 7177   1.400   6.163   2.490
 2312WAT     H1 7178   1.388   6.200   2.398
 2312WAT     H2 7179   1.476   6.098   2.490
 2313WAT      O 7180   4.027   6.229   0.100
 2313WAT     H1 7181   4.112   6.276   0.126
 2313WAT     H2 7182   3.988   6.274   0.019
 2314WAT      O 7183   4.630   5.504   8.495
 2314WAT     H1 7184   4.596   5.422   8.540
 2314WAT     H2 7185   4.706   5.542   8.548
 2315WAT      O 7186   0.925   9.012   8.601
 2315WAT     H1 7187   0.928   9.041   8.505
 2315WAT     H2 7188   0.959   8.918   8.608
 2316WAT      O 7189   6.876   4.384   0.789
 2316WAT     H1 7190   6.843   4.478   0.792
 2316WAT     H2 7191   6.910   4.363   0.697
 2317WAT      O 7192   4.662   6.058   6.224
 2317WAT     H1 7193   4.642   6.076   6.128
 2317WAT     H2 7194   4.577   6.062   6.277
 2318WAT      O 7195   6.377   7.684   2.327
 2318WAT     H1 7196   6.343   7.690   2.233
 2318WAT     H2 7197   6.320   7.622   2.379
 2319WAT      O 7198   1.409   5.923   3.445
 2319WAT     H1 7199   1.364   6.008   3.418
 2319WAT     H2 7200   1.420   5.864   3.366
 2320WAT      O 7201   5.890   4.678   4.764
 2320WAT     H1 7202   5.830   4.741   4.715
 2320WAT     H2 7203   5.966   4.729   4.806
 2321WAT      O 7204   3.563   5.121   5.139
 2321WAT     H1 7205   3.488   5.186   5.156
 2321WAT     H2 7206   3.643   5.148   5.192
 2322WAT      O 7207   5.837   1.798   6.744
 2322WAT     H1 7208   5.832   1.707   6.785
 2322WAT     H2 7209   5.911   1.799   6.677
 2323WAT      O 7210   6.333   7.044   6.696
 2323WAT     H1 7211   6.397   7.097   6.752
 2323WAT     H2 7212   6.362   6.949   6.694
 2324WAT      O 7213   7.731   4.262   0.956
 2324WAT     H1 7214   7.769   4.329   0.891
 2324WAT     H2 7215   7.801   4.236   1.022
 2325WAT      O 7216   5.827   9.400   9.220
 2325WAT     H1 7217   5.833   9.425   9.123
 2325WAT     H2 7218   5.766   9.321   9.231
 2326WAT      O 7219   2.096   0.777   1.274
 2326WAT     H1 7220   2.050   0.849   1.327
 2326WAT     H2 7221   2.151   0.819   1.203
 2327WAT      O 7222   4.045   8.672   6.510
 2327WAT     H1 7223   4.097   8.587   6.509
 2327WAT     H2 7224   4.087   8.736   6.575
 2328WAT      O 7225   6.819   8.735   5.754
 2328WAT     H1 7226   6.818   8.833   5.771
 2328WAT     H2 7227   6.847   8.718   5.659
 2329WAT      O 7228   3.691   6.238   8.972
 2329WAT     H1 7229   3.664   6.215   9.066
 2329WAT     H2 7230   3.623   6.201   8.908
 2330WAT      O 7231   0.107   2.899   1.425
 2330WAT     H1 7232   0.120   2.804   1.455
 2330WAT     H2 7233   0.142   2.961   1.495
 2331WAT      O 7234   3.852   9.780   0.823
 2331WAT     H1 7235   3.859   9.755   0.920
 2331WAT     H2 7236   3.761   9.816   0.804
 2332WAT      O 7237   4.414   1.510   5.363
 2332WAT     H1 7238   4.318   1.507   5.392
 2332WAT     H2 7239   4.468   1.446   5.418
 2333WAT      O 7240   5.995   0.817   7.447
 2333WAT     H1 7241   6.021   0.817   7.543
 2333WAT     H2 7242   6.048   0.748   7.398
 2334WAT      O 7243   4.267   6.810   7.009
 2334WAT     H1 7244   4.298   6.725   6.967
 2334WAT     H2 7245   4.299   6.814   7.104
 2335WAT      O 7246   2.356   7.100   0.968
 2335WAT     H1 7247   2.399   7.182   0.930
 2335WAT     H2 7248   2.426   7.029   0.978
 2336WAT      O 7249   0.016   5.837   2.691
 2336WAT     H1 7250  -0.013   5.933   2.697
 2336WAT     H2 7251   0.110   5.829   2.724
 2337WAT      O 7252   4.896   2.630   4.501
 2337WAT     H1 7253   4.807   2.644   4.544
 2337WAT     H2 7254   4.966   2.623   4.572
 2338WAT      O 7255   0.724   6.939   3.224
 2338WAT     H1 7256   0.677   7.026   3.240
 2338WAT     H2 7257   0.682   6.868   3.281
 2339WAT      O 7258   9.047   9.412   1.448
 2339WAT     H1 7259   8.956   9.448   1.428
 2339WAT     H2 7260   9.116   9.475   1.412
 2340WAT      O 7261   8.395   7.272   6.347
 2340WAT     H1 7262   8.435   7.187   6.313
 2340WAT     H2 7263   8.308   7.289   6.300
 2341WAT      O 7264   5.411   9.356   6.172
 2341WAT     H1 7265   5.357   9.392   6.249
 2341WAT     H2 7266   5.490   9.307   6.207
 2342WAT      O 7267   2.047   7.477   1.809
 2342WAT     H1 7268   1.996   7.527   1.739
 2342WAT     H2 7269   2.062   7.383   1.779
 2343WAT      O 7270   3.662   8.328   3.111
 2343WAT     H1 7271   3.751   8.291   3.139
 2343WAT     H2 7272   3.650   8.420   3.149
 2344WAT      O 7273   4.774   6.976   4.216
 2344WAT     H1 7274   4.817   7.013   4.299
 2344WAT     H2 7275   4.844   6.951   4.150
 2345WAT      O 7276   4.021   2.669   4.679
 2345WAT     H1 7277   4.023   2.627   4.770
 2345WAT     H2 7278   4.099   2.637   4.626
 2346WAT      O 7279   6.507   2.775   0.681
 2346WAT     H1 7280   6.470   2.809   0.595
 2346WAT     H2 7281   6.491   2.841   0.753
 2347WAT      O 7282   3.936   6.940   3.382
 2347WAT     H1 7283   3.894   7.004   3.447
 2347WAT     H2 7284   3.868   6.874   3.352
 2348WAT      O 7285   1.758   4.539   2.832
 2348WAT     H1 7286   1.798   4.550   2.923
 2348WAT     H2 7287   1.737   4.629   2.793
 2349WAT      O 7288   9.546   2.801   6.902
 2349WAT     H1 7289   9.637   2.804   6.942
 2349WAT     H2 7290   9.511   2.708   6.905
 2350WAT      O 7291   3.619   8.380   1.972
 2350WAT     H1 7292   3.525   8.385   2.006
 2350WAT     H2 7293   3.664   8.467   1.987
 2351WAT      O 7294   8.717   9.793   7.770
 2351WAT     H1 7295   8.639   9.852   7.748
 2351WAT     H2 7296   8.714   9.712   7.711
 2352WAT      O 7297   9.234   4.143   4.004
 2352WAT     H1 7298   9.152   4.154   4.060
 2352WAT     H2 7299   9.274   4.233   3.987
 2353WAT      O 7300   3.505   8.760   3.175
 2353WAT     H1 7301   3.549   8.847   3.198
 2353WAT     H2 7302   3.532   8.734   3.082
 2354WAT      O 7303   1.746   1.121   0.486
 2354WAT     H1 7304   1.699   1.118   0.398
 2354WAT     H2 7305   1.826   1.182   0.479
 2355WAT      O 7306   1.472   5.528   6.118
 2355WAT     H1 7307   1.499   5.596   6.186
 2355WAT     H2 7308   1.545   5.515   6.052
 2356WAT      O 7309   5.472   8.083   8.034
 2356WAT     H1 7310   5.516   8.146   7.971
 2356WAT     H2 7311   5.412   8.133   8.095
 2357WAT      O 7312   7.409   8.325   6.767
 2357WAT     H1 7313   7.385   8.265   6.690
 2357WAT     H2 7314   7.379   8.418   6.746
 2358WAT      O 7315   9.531   9.015   3.999
 2358WAT     H1 7316   9.548   8.917   3.999
 2358WAT     H2 7317   9.447   9.035   3.949
 2359WAT      O 7318   8.458   3.067   7.892
 2359WAT     H1 7319   8.410   3.026   7.814
 2359WAT     H2 7320   8.501   2.995   7.947
 2360WAT      O 7321   4.532   8.015   9.316
 2360WAT     H1 7322   4.551   8.098   9.264
 2360WAT     H2 7323   4.512   8.039   9.411
 2361WAT      O 7324   4.250   1.786   8.033
 2361WAT     H1 7325   4.334   1.776   8.086
 2361WAT     H2 7326   4.194   1.704   8.044
 2362WAT      O 7327   2.243   5.697   4.656
 2362WAT     H1 7328   2.333   5.699   4.612
 2362WAT     H2 7329   2.252   5.661   4.749
 2363WAT      O 7330   6.658   3.886   5.251
 2363WAT     H1 7331   6.683   3.949   5.177
 2363WAT     H2 7332   6.559   3.869   5.248
 2364WAT      O 7333   0.077   6.851   9.524
 2364WAT     H1 7334   0.126   6.813   9.446
 2364WAT     H2 7335   0.133   6.843   9.606
 2365WAT      O 7336   6.011   3.281   2.668
 2365WAT     H1 7337   6.073   3.342   2.717
 2365WAT     H2 7338   6.044   3.268   2.575
 2366WAT      O 7339   3.327   6.342   7.053
 2366WAT     H1 7340   3.361   6.392   6.973
 2366WAT     H2 7341   3.286   6.406   7.118
 2367WAT      O 7342   9.894   4.831   0.657
 2367WAT     H1 7343   9.865   4.876   0.742
 2367WAT     H2 7344   9.815   4.817   0.598
 2368WAT      O 7345   9.632   4.407   2.955
 2368WAT     H1 7346   9.549   4.454   2.925
 2368WAT     H2 7347   9.609   4.313   2.982
 2369WAT      O 7348   5.235   6.834   0.370
 2369WAT     H1 7349   5.303   6.765   0.342
 2369WAT     H2 7350   5.188   6.802   0.452
 2370WAT      O 7351   3.217   0.969   3.369
 2370WAT     H1 7352   3.196   0.910   3.291
 2370WAT     H2 7353   3.238   1.061   3.336
 2371WAT      O 7354   0.047   9.144   2.161
 2371WAT     H1 7355  -0.005   9.075   2.111
 2371WAT     H2 7356  -0.014   9.192   2.224
 2372WAT      O 7357   5.913   6.235   6.178
 2372WAT     H1 7358   5.874   6.288   6.253
 2372WAT     H2 7359   6.001   6.196   6.207
 2373WAT      O 7360   5.353   1.086   5.561
 2373WAT     H1 7361   5.394   1.176   5.545
 2373WAT     H2 7362   5.411   1.016   5.519
 2374WAT      O 7363   8.127   3.900   5.761
 2374WAT     H1 7364   8.168   3.815   5.793
 2374WAT     H2 7365   8.192   3.975   5.772
 2375WAT      O 7366   7.003   8.773   8.270
 2375WAT     H1 7367   7.076   8.776   8.338
 2375WAT     H2 7368   7.037   8.809   8.183
 2376WAT      O 7369   0.570   6.470   7.468
 2376WAT     H1 7370   0.662   6.475   7.507
 2376WAT     H2 7371   0.573   6.429   7.377
 2377WAT      O 7372   5.117   5.408   2.822
 2377WAT     H1 7373   5.061   5.325   2.811
 2377WAT     H2 7374   5.057   5.488   2.829
 2378WAT      O 7375   5.475   4.486   1.888
 2378WAT     H1 7376   5.439   4.510   1.978
 2378WAT     H2 7377   5.402   4.449   1.831
 2379WAT      O 7378   0.965   2.910   6.939
 2379WAT     H1 7379   0.909   2.992   6.948
 2379WAT     H2 7380   1.053   2.925   6.985
 2380WAT      O 7381   2.316   3.300   2.931
 2380WAT     H1 7382   2.322   3.399   2.939
 2380WAT     H2 7383   2.378   3.268   2.859
 2381WAT      O 7384   7.348   6.650   1.341
 2381WAT     H1 7385   7.288   6.576   1.371
 2381WAT     H2 7386   7.371   6.637   1.244
 2382WAT      O 7387   6.964   3.635   6.178
 2382WAT     H1 7388   6.883   3.592   6.138
 2382WAT     H2 7389   6.940   3.725   6.214
 2383WAT      O 7390   1.391   3.789   9.666
 2383WAT     H1 7391   1.295   3.774   9.688
 2383WAT     H2 7392   1.443   3.801   9.751
 2384WAT      O 7393   6.339   5.617   3.039
 2384WAT     H1 7394   6.291   5.595   2.953
 2384WAT     H2 7395   6.400   5.695   3.023
 2385WAT      O 7396   8.367   4.779   5.430
 2385WAT     H1 7397   8.462   4.788   5.397
 2385WAT     H2 7398   8.306   4.769   5.351
 2386WAT      O 7399   0.146   9.092   6.087
 2386WAT     H1 7400   0.153   9.006   6.037
 2386WAT     H2 7401   0.214   9.157   6.052
 2387WAT      O 7402   7.434   2.421   0.174
 2387WAT     H1 7403   7.335   2.417   0.163
 2387WAT     H2 7404   7.477   2.349   0.120
 2388WAT      O 7405   0.826   7.371   9.401
 2388WAT     H1 7406   0.875   7.314   9.335
 2388WAT     H2 7407   0.804   7.317   9.482
 2389WAT      O 7408   5.876   6.708   3.692
 2389WAT     H1 7409   5.860   6.750   3.603
 2389WAT     H2 7410   5.960   6.654   3.690
 2390WAT      O 7411   8.202   0.468   8.218
 2390WAT     H1 7412   8.269   0.506   8.282
 2390WAT     H2 7413   8.212   0.512   8.128
 2391WAT      O 7414   6.406   9.234   2.768
 2391WAT     H1 7415   6.362   9.315   2.808
 2391WAT     H2 7416   6.417   9.248   2.670
 2392WAT      O 7417   3.287   5.360   6.866
 2392WAT     H1 7418   3.255   5.337   6.774
 2392WAT     H2 7419   3.212   5.400   6.919
 2393WAT      O 7420   4.693   5.565   1.192
 2393WAT     H1 7421   4.766   5.531   1.133
 2393WAT     H2 7422   4.621   5.607   1.136
 2394WAT      O 7423   4.769   8.100   1.981
 2394WAT     H1 7424   4.853   8.097   2.035
 2394WAT     H2 7425   4.691   8.115   2.041
 2395WAT      O 7426   1.916   9.190   3.705
 2395WAT     H1 7427   1.910   9.095   3.736
 2395WAT     H2 7428   1.916   9.193   3.605
 2396WAT      O 7429   1.179   1.149   7.054
 2396WAT     H1 7430   1.258   1.088   7.052
 2396WAT     H2 7431   1.108   1.111   7.113
 2397WAT      O 7432   3.450   7.396   7.277
 2397WAT     H1 7433   3.465   7.334   7.200
 2397WAT     H2 7434   3.529   7.392   7.339
 2398WAT      O 7435   6.845   8.560   0.191
 2398WAT     H1 7436   6.861   8.657   0.170
 2398WAT     H2 7437   6.772   8.526   0.131
 2399WAT      O 7438   0.715   5.044   1.322
 2399WAT     H1 7439   0.799   5.069   1.369
 2399WAT     H2 7440   0.700   5.106   1.245
 2400WAT      O 7441   5.771   1.626   3.281
 2400WAT     H1 7442   5.763   1.627   3.181
 2400WAT     H2 7443   5.868   1.629   3.307
 2401WAT      O 7444   5.776   0.000   1.690
 2401WAT     H1 7445   5.827   0.086   1.695
 2401WAT     H2 7446   5.771  -0.040   1.781
 2402WAT      O 7447   9.385   5.731   3.645
 2402WAT     H1 7448   9.431   5.694   3.726
 2402WAT     H2 7449   9.447   5.729   3.567
 2403WAT      O 7450   1.077   1.870   8.105
 2403WAT     H1 7451   1.164   1.892   8.148
 2403WAT     H2 7452   1.090   1.794   8.041
 2404WAT      O 7453   2.388   0.220   5.997
 2404WAT     H1 7454   2.299   0.176   5.996
 2404WAT     H2 7455   2.420   0.233   5.903
 2405WAT      O 7456   0.665   3.259   7.161
 2405WAT     H1 7457   0.672   3.238   7.259
 2405WAT     H2 7458   0.568   3.269   7.137
 2406WAT      O 7459   7.000   1.453   0.857
 2406WAT     H1 7460   6.947   1.465   0.773
 2406WAT     H2 7461   7.068   1.380   0.844
 2407WAT      O 7462   8.310   3.487   8.836
 2407WAT     H1 7463   8.323   3.450   8.928
 2407WAT     H2 7464   8.399   3.515   8.799
 2408WAT      O 7465   5.889   0.394   5.871
 2408WAT     H1 7466   5.960   0.375   5.939
 2408WAT     H2 7467   5.821   0.456   5.910
 2409WAT      O 7468   7.817   8.624   8.693
 2409WAT     H1 7469   7.733   8.586   8.732
 2409WAT     H2 7470   7.877   8.655   8.768
 2410WAT      O 7471   5.883   3.863   9.411
 2410WAT     H1 7472   5.974   3.905   9.415
 2410WAT     H2 7473   5.836   3.876   9.498
 2411WAT      O 7474   9.750   8.383   4.418
 2411WAT     H1 7475   9.751   8.482   4.433
 2411WAT     H2 7476   9.656   8.350   4.415
 2412WAT      O 7477   9.295   8.738   9.370
 2412WAT     H1 7478   9.217   8.710   9.314
 2412WAT     H2 7479   9.262   8.788   9.450
 2413WAT      O 7480   6.557   3.830   6.868
 2413WAT     H1 7481   6.607   3.756   6.911
 2413WAT     H2 7482   6.485   3.793   6.809
 2414WAT      O 7483   4.499   5.180   8.836
 2414WAT     H1 7484   4.510   5.212   8.742
 2414WAT     H2 7485   4.585   5.138   8.867
 2415WAT      O 7486   4.286   0.093   2.335
 2415WAT     H1 7487   4.255   0.069   2.243
 2415WAT     H2 7488   4.258   0.022   2.400
 2416WAT      O 7489   2.992   8.842   1.415
 2416WAT     H1 7490   2.892   8.848   1.416
 2416WAT     H2 7491   3.020   8.777   1.345
 2417WAT      O 7492   7.774   7.734   5.759
 2417WAT     H1 7493   7.712   7.805   5.792
 2417WAT     H2 7494   7.747   7.646   5.796
 2418WAT      O 7495   8.415   6.129   3.426
 2418WAT     H1 7496   8.385   6.034   3.424
 2418WAT     H2 7497   8.511   6.133   3.453
 2419WAT      O 7498   2.824   6.782   7.793
 2419WAT     H1 7499   2.885   6.859   7.810
 2419WAT     H2 7500   2.802   6.738   7.880
 2420WAT      O 7501   2.643   6.536   6.696
 2420WAT     H1 7502   2.595   6.618   6.728
 2420WAT     H2 7503   2.687   6.491   6.774
 2421WAT      O 7504   6.510   4.116   0.493
 2421WAT     H1 7505   6.589   4.176   0.492
 2421WAT     H2 7506   6.538   4.023   0.468
 2422WAT      O 7507   6.120   3.518   7.060
 2422WAT     H1 7508   6.072   3.563   7.135
 2422WAT     H2 7509   6.117   3.576   6.978
 2423WAT      O 7510   3.445   4.503   3.129
 2423WAT     H1 7511   3.389   4.443   3.072
 2423WAT     H2 7512   3.387   4.545   3.200
 2424WAT      O 7513   0.196   0.877   6.720
 2424WAT     H1 7514   0.255   0.945   6.676
 2424WAT     H2 7515   0.118   0.858   6.662
 2425WAT      O 7516   1.849   0.175   1.852
 2425WAT     H1 7517   1.856   0.112   1.929
 2425WAT     H2 7518   1.803   0.259   1.882
 2426WAT      O 7519   9.471   4.810   2.312
 2426WAT     H1 7520   9.483   4.793   2.214
 2426WAT     H2 7521   9.390   4.868   2.326
 2427WAT      O 7522   2.019   3.469   1.391
 2427WAT     H1 7523   1.995   3.546   1.332
 2427WAT     H2 7524   2.117   3.450   1.382
 2428WAT      O 7525   8.722   8.546   0.126
 2428WAT     H1 7526   8.693   8.530   0.032
 2428WAT     H2 7527   8.704   8.641   0.151
 2429WAT      O 7528   4.349   2.297   1.702
 2429WAT     H1 7529   4.447   2.319   1.703
 2429WAT     H2 7530   4.299   2.369   1.655
 2430WAT      O 7531   6.759   9.216   1.101
 2430WAT     H1 7532   6.800   9.178   1.018
 2430WAT     H2 7533   6.662   9.190   1.105
 2431WAT      O 7534   1.877   5.738   9.269
 2431WAT     H1 7535   1.833   5.731   9.358
 2431WAT     H2 7536   1.919   5.829   9.260
 2432WAT      O 7537   6.992   4.933   1.250
 2432WAT     H1 7538   6.968   5.001   1.319
 2432WAT     H2 7539   7.091   4.919   1.250
 2433WAT      O 7540   1.926   2.016   2.141
 2433WAT     H1 7541   2.019   2.053   2.136
 2433WAT     H2 7542   1.897   2.009   2.236
 2434WAT      O 7543   9.320   5.948   5.713
 2434WAT     H1 7544   9.387   5.926   5.642
 2434WAT     H2 7545   9.306   6.047   5.716
 2435WAT      O 7546   3.298   5.896   7.076
 2435WAT     H1 7547   3.275   5.925   7.169
 2435WAT     H2 7548   3.398   5.890   7.067
 2436WAT      O 7549   7.584   0.108   3.368
 2436WAT     H1 7550   7.669   0.159   3.357
 2436WAT     H2 7551   7.600   0.011   3.350
 2437WAT      O 7552   1.146   9.521   2.271
 2437WAT     H1 7553   1.105   9.549   2.357
 2437WAT     H2 7554   1.223   9.582   2.249
 2438WAT      O 7555   3.499   6.661   8.100
 2438WAT     H1 7556   3.470   6.721   8.026
 2438WAT     H2 7557   3.583   6.613   8.074
 2439WAT      O 7558   7.056   3.400   6.034
 2439WAT     H1 7559   7.012   3.481   6.074
 2439WAT     H2 7560   7.133   3.372   6.092
 2440WAT      O 7561   1.833   8.997   0.977
 2440WAT     H1 7562   1.811   8.913   0.928
 2440WAT     H2 7563   1.929   9.021   0.961
 2441WAT      O 7564   7.850   2.823   2.940
 2441WAT     H1 7565   7.942   2.794   2.911
 2441WAT     H2 7566   7.786   2.747   2.925
 2442WAT      O 7567   3.996   6.028   1.651
 2442WAT     H1 7568   4.021   6.004   1.558
 2442WAT     H2 7569   4.068   6.085   1.692
 2443WAT      O 7570   2.264   0.530   5.488
 2443WAT     H1 7571   2.219   0.528   5.577
 2443WAT     H2 7572   2.361   0.548   5.500
 2444WAT      O 7573   0.221   4.972   4.733
 2444WAT     H1 7574   0.169   5.039   4.681
 2444WAT     H2 7575   0.317   5.000   4.738
 2445WAT      O 7576   0.946   4.855   2.570
 2445WAT     H1 7577   0.966   4.848   2.668
 2445WAT     H2 7578   0.921   4.764   2.535
 2446WAT      O 7579   6.135   0.308   9.066
 2446WAT     H1 7580   6.140   0.376   8.993
 2446WAT     H2 7581   6.040   0.286   9.085
 2447WAT      O 7582   8.431   8.262   5.591
 2447WAT     H1 7583   8.469   8.195   5.654
 2447WAT     H2 7584   8.497   8.278   5.517
 2448WAT      O 7585   9.332   9.285   5.962
 2448WAT     H1 7586   9.328   9.277   6.062
 2448WAT     H2 7587   9.278   9.211   5.921
 2449WAT      O 7588   0.571   9.592   8.755
 2449WAT     H1 7589   0.492   9.619   8.811
 2449WAT     H2 7590   0.571   9.493   8.743
 2450WAT      O 7591   1.179   3.303   0.486
 2450WAT     H1 7592   1.102   3.335   0.432
 2450WAT     H2 7593   1.237   3.381   0.512
 2451WAT      O 7594   4.600   3.845   0.525
 2451WAT     H1 7595   4.624   3.912   0.596
 2451WAT     H2 7596   4.564   3.893   0.445
 2452WAT      O 7597   9.092   5.297   9.376
 2452WAT     H1 7598   9.061   5.388   9.349
 2452WAT     H2 7599   9.038   5.265   9.453
 2453WAT      O 7600   7.378   9.213   7.340
 2453WAT     H1 7601   7.350   9.218   7.436
 2453WAT     H2 7602   7.362   9.301   7.296
 2454WAT      O 7603   3.546   0.711   3.055
 2454WAT     H1 7604   3.583   0.643   2.992
 2454WAT     H2 7605   3.449   0.727   3.034
 2455WAT      O 7606   0.935   3.445   4.320
 2455WAT     H1 7607   0.982   3.463   4.233
 2455WAT     H2 7608   0.836   3.449   4.305
 2456WAT      O 7609   7.630   0.508   8.417
 2456WAT     H1 7610   7.702   0.577   8.426
 2456WAT     H2 7611   7.672   0.418   8.405
 2457WAT      O 7612   7.625   2.330   0.381
 2457WAT     H1 7613   7.583   2.378   0.304
 2457WAT     H2 7614   7.558   2.320   0.455
 2458WAT      O 7615   7.554   7.873   7.853
 2458WAT     H1 7616   7.466   7.827   7.861
 2458WAT     H2 7617   7.604   7.866   7.939
 2459WAT      O 7618   4.191   1.912   1.915
 2459WAT     H1 7619   4.203   1.974   1.837
 2459WAT     H2 7620   4.141   1.831   1.885
 2460WAT      O 7621   1.660   5.698   4.018
 2460WAT     H1 7622   1.632   5.771   4.081
 2460WAT     H2 7623   1.731   5.642   4.060
 2461WAT      O 7624   4.996   7.997   6.378
 2461WAT     H1 7625   4.966   7.958   6.465
 2461WAT     H2 7626   5.078   7.950   6.347
 2462WAT      O 7627   1.754   9.756   2.167
 2462WAT     H1 7628   1.831   9.715   2.119
 2462WAT     H2 7629   1.704   9.685   2.217
 2463WAT      O 7630   4.816   3.041   6.154
 2463WAT     H1 7631   4.889   3.036   6.086
 2463WAT     H2 7632   4.769   2.953   6.159
 2464WAT      O 7633   2.747   3.620   4.084
 2464WAT     H1 7634   2.781   3.617   4.178
 2464WAT     H2 7635   2.647   3.612   4.084
 2465WAT      O 7636   9.695   9.072   4.677
 2465WAT     H1 7637   9.625   9.061   4.607
 2465WAT     H2 7638   9.703   8.987   4.729
 2466WAT      O 7639   9.801   2.992   4.741
 2466WAT     H1 7640   9.882   3.035   4.704
 2466WAT     H2 7641   9.732   3.061   4.760
 2467WAT      O 7642   4.377   0.984   7.930
 2467WAT     H1 7643   4.321   0.915   7.976
 2467WAT     H2 7644   4.468   0.987   7.971
 2468WAT      O 7645   7.613   5.394   8.244
 2468WAT     H1 7646   7.704   5.434   8.257
 2468WAT     H2 7647   7.552   5.427   8.315
 2469WAT      O 7648   1.502   6.775   5.647
 2469WAT     H1 7649   1.466   6.853   5.699
 2469WAT     H2 7650   1.427   6.725   5.605
 2470WAT      O 7651   1.249   9.146   3.028
 2470WAT     H1 7652   1.199   9.148   2.941
 2470WAT     H2 7653   1.326   9.083   3.021
 2471WAT      O 7654   7.764   8.769   7.455
 2471WAT     H1 7655   7.823   8.835   7.501
 2471WAT     H2 7656   7.711   8.815   7.384
 2472WAT      O 7657   4.617   7.133   4.025
 2472WAT     H1 7658   4.658   7.116   4.115
 2472WAT     H2 7659   4.681   7.185   3.969
 2473WAT      O 7660   0.745   0.436   9.521
 2473WAT     H1 7661   0.749   0.336   9.512
 2473WAT     H2 7662   0.652   0.467   9.500
 2474WAT      O 7663   0.915   8.630   7.838
 2474WAT     H1 7664   1.003   8.598   7.872
 2474WAT     H2 7665   0.892   8.717   7.882
 2475WAT      O 7666   8.013   4.789   5.678
 2475WAT     H1 7667   8.012   4.888   5.672
 2475WAT     H2 7668   8.088   4.752   5.623
 2476WAT      O 7669   9.556   7.600   9.066
 2476WAT     H1 7670   9.507   7.677   9.026
 2476WAT     H2 7671   9.603   7.550   8.993
 2477WAT      O 7672   6.838   5.897   2.308
 2477WAT     H1 7673   6.826   5.992   2.337
 2477WAT     H2 7674   6.767   5.875   2.240
 2478WAT      O 7675   7.101   8.083   2.684
 2478WAT     H1 7676   7.194   8.050   2.669
 2478WAT     H2 7677   7.078   8.077   2.781
 2479WAT      O 7678   0.290   0.973   9.732
 2479WAT     H1 7679   0.245   1.046   9.681
 2479WAT     H2 7680   0.224   0.929   9.792
 2480WAT      O 7681   9.521   5.514   4.317
 2480WAT     H1 7682   9.589   5.530   4.389
 2480WAT     H2 7683   9.434   5.486   4.359
 2481WAT      O 7684   4.541   2.896   6.353
 2481WAT     H1 7685   4.495   2.896   6.264
 2481WAT     H2 7686   4.482   2.940   6.421
 2482WAT      O 7687   3.233   9.107   3.959
 2482WAT     H1 7688   3.325   9.111   3.919
 2482WAT     H2 7689   3.203   9.200   3.982
 2483WAT      O 7690   6.062   9.360   2.944
 2483WAT     H1 7691   6.048   9.343   2.847
 2483WAT     H2 7692   6.047   9.457   2.963
 2484WAT      O 7693   2.490   0.896   9.724
 2484WAT     H1 7694   2.514   0.988   9.691
 2484WAT     H2 7695   2.454   0.842   9.648
 2485WAT      O 7696   8.987   8.482   5.965
 2485WAT     H1 7697   8.942   8.501   6.052
 2485WAT     H2 7698   9.031   8.565   5.932
 2486WAT      O 7699   2.867   6.325   4.401
 2486WAT     H1 7700   2.892   6.324   4.304
 2486WAT     H2 7701   2.888   6.415   4.440
 2487WAT      O 7702   7.032   7.098   5.197
 2487WAT     H1 7703   6.941   7.077   5.161
 2487WAT     H2 7704   7.066   7.183   5.156
 2488WAT      O 7705   6.108   2.717   0.991
 2488WAT     H1 7706   6.041   2.666   1.045
 2488WAT     H2 7707   6.085   2.710   0.894
 2489WAT      O 7708   0.398   7.457   8.505
 2489WAT     H1 7709   0.491   7.485   8.483
 2489WAT     H2 7710   0.366   7.392   8.435
 2490WAT      O 7711   7.207   2.818   0.091
 2490WAT     H1 7712   7.297   2.842   0.053
 2490WAT     H2 7713   7.176   2.732   0.051
 2491WAT      O 7714   8.554   7.738   1.975
 2491WAT     H1 7715   8.589   7.694   2.057
 2491WAT     H2 7716   8.501   7.671   1.922
 2492WAT      O 7717   7.983   0.677   1.217
 2492WAT     H1 7718   8.071   0.633   1.202
 2492WAT     H2 7719   7.912   0.608   1.230
 2493WAT      O 7720   2.519   3.471   8.130
 2493WAT     H1 7721   2.507   3.430   8.039
 2493WAT     H2 7722   2.617   3.487   8.146
 2494WAT      O 7723   0.920   7.013   7.612
 2494WAT     H1 7724   1.015   6.989   7.594
 2494WAT     H2 7725   0.887   7.076   7.541
 2495WAT      O 7726   0.376   8.044   8.954
 2495WAT     H1 7727   0.344   8.078   9.042
 2495WAT     H2 7728   0.306   7.986   8.912
 2496WAT      O 7729   5.686   0.615   5.919
 2496WAT     H1 7730   5.678   0.710   5.950
 2496WAT     H2 7731   5.615   0.595   5.852
 2497WAT      O 7732   9.850   9.535   2.775
 2497WAT     H1 7733   9.775   9.477   2.744
 2497WAT     H2 7734   9.889   9.585   2.697
 2498WAT      O 7735   7.785   8.247   3.811
 2498WAT     H1 7736   7.702   8.213   3.769
 2498WAT     H2 7737   7.762   8.311   3.885
 2499WAT      O 7738   8.268   5.903   5.370
 2499WAT     H1 7739   8.367   5.901   5.388
 2499WAT     H2 7740   8.231   5.990   5.402
 2500WAT      O 7741   8.928   2.237   9.845
 2500WAT     H1 7742   8.898   2.329   9.821
 2500WAT     H2 7743   8.939   2.183   9.762
 2501WAT      O 7744   9.145   6.903   5.471
 2501WAT     H1 7745   9.062   6.862   5.509
 2501WAT     H2 7746   9.161   6.992   5.514
 2502WAT      O 7747   5.843   5.622   7.451
 2502WAT     H1 7748   5.864   5.527   7.429
 2502WAT     H2 7749   5.829   5.631   7.550
 2503WAT      O 7750   5.485   1.424   7.835
 2503WAT     H1 7751   5.423   1.472   7.773
 2503WAT     H2 7752   5.574   1.413   7.792
 2504WAT      O 7753   8.266   8.831   7.648
 2504WAT     H1 7754   8.312   8.823   7.737
 2504WAT     H2 7755   8.333   8.819   7.575
 2505WAT      O 7756   8.570   8.116   2.600
 2505WAT     H1 7757   8.636   8.046   2.625
 2505WAT     H2 7758   8.590   8.150   2.508
 2506WAT      O 7759   0.638   5.023   5.189
 2506WAT     H1 7760   0.669   4.930   5.206
 2506WAT     H2 7761   0.688   5.062   5.112
 2507WAT      O 7762   8.254   6.047   4.872
 2507WAT     H1 7763   8.215   6.018   4.786
 2507WAT     H2 7764   8.235   5.979   4.943
 2508WAT      O 7765   6.926   4.344   3.672
 2508WAT     H1 7766   6.834   4.367   3.705
 2508WAT     H2 7767   6.993   4.369   3.743
 2509WAT      O 7768   1.835   4.067   9.044
 2509WAT     H1 7769   1.771   4.108   9.108
 2509WAT     H2 7770   1.844   3.969   9.064
 2510WAT      O 7771   6.833   0.814   2.500
 2510WAT     H1 7772   6.816   0.911   2.517
 2510WAT     H2 7773   6.931   0.796   2.504
 2511WAT      O 7774   5.092   8.266   4.043
 2511WAT     H1 7775   5.040   8.181   4.028
 2511WAT     H2 7776   5.030   8.337   4.076
 2512WAT      O 7777   4.545   5.792   2.695
 2512WAT     H1 7778   4.557   5.779   2.794
 2512WAT     H2 7779   4.523   5.703   2.653
 2513WAT      O 7780   7.150   7.062   4.262
 2513WAT     H1 7781   7.157   7.159   4.236
 2513WAT     H2 7782   7.126   7.056   4.359
 2514WAT      O 7783   0.037   1.121   7.086
 2514WAT     H1 7784  -0.059   1.106   7.110
 2514WAT     H2 7785   0.077   1.035   7.054
 2515WAT      O 7786   7.727   8.892   4.013
 2515WAT     H1 7787   7.733   8.803   3.967
 2515WAT     H2 7788   7.805   8.949   3.987
 2516WAT      O 7789   6.539   3.797   4.624
 2516WAT     H1 7790   6.627   3.781   4.578
 2516WAT     H2 7791   6.490   3.711   4.634
 2517WAT      O 7792   7.679   2.609   3.257
 2517WAT     H1 7793   7.722   2.561   3.180
 2517WAT     H2 7794   7.705   2.706   3.255
 2518WAT      O 7795   1.774   8.939   8.895
 2518WAT     H1 7796   1.688   8.888   8.894
 2518WAT     H2 7797   1.842   8.892   8.839
 2519WAT      O 7798   1.118   6.389   2.384
 2519WAT     H1 7799   1.074   6.431   2.305
 2519WAT     H2 7800   1.111   6.450   2.463
 2520WAT      O 7801   2.981   6.847   5.500
 2520WAT     H1 7802   2.940   6.757   5.513
 2520WAT     H2 7803   3.024   6.876   5.585
 2521WAT      O 7804   4.050   1.501   1.290
 2521WAT     H1 7805   3.964   1.543   1.321
 2521WAT     H2 7806   4.076   1.539   1.202
 2522WAT      O 7807   8.670   7.461   0.159
 2522WAT     H1 7808   8.681   7.362   0.147
 2522WAT     H2 7809   8.735   7.509   0.100
 2523WAT      O 7810   6.680   9.645   5.768
 2523WAT     H1 7811   6.749   9.640   5.695
 2523WAT     H2 7812   6.630   9.558   5.772
 2524WAT      O 7813   3.842   2.791   6.140
 2524WAT     H1 7814   3.826   2.732   6.219
 2524WAT     H2 7815   3.768   2.778   6.074
 2525WAT      O 7816   4.406   8.778   0.667
 2525WAT     H1 7817   4.460   8.741   0.743
 2525WAT     H2 7818   4.453   8.859   0.630
 2526WAT      O 7819   0.726   2.098   8.686
 2526WAT     H1 7820   0.750   2.194   8.702
 2526WAT     H2 7821   0.628   2.091   8.666
 2527WAT      O 7822   0.658   6.926   0.129
 2527WAT     H1 7823   0.706   6.861   0.189
 2527WAT     H2 7824   0.696   7.018   0.144
 2528WAT      O 7825   6.270   5.648   5.306
 2528WAT     H1 7826   6.330   5.577   5.268
 2528WAT     H2 7827   6.195   5.605   5.356
 2529WAT      O 7828   1.486   2.316   1.098
 2529WAT     H1 7829   1.510   2.232   1.147
 2529WAT     H2 7830   1.518   2.396   1.150
 2530WAT      O 7831   5.833   8.755   2.666
 2530WAT     H1 7832   5.758   8.805   2.623
 2530WAT     H2 7833   5.919   8.781   2.622
 2531WAT      O 7834   9.439   8.576   1.536
 2531WAT     H1 7835   9.509   8.646   1.520
 2531WAT     H2 7836   9.353   8.620   1.562
 2532WAT      O 7837   9.171   8.423   2.391
 2532WAT     H1 7838   9.194   8.367   2.471
 2532WAT     H2 7839   9.086   8.472   2.408
 2533WAT      O 7840   4.966   6.992   6.667
 2533WAT     H1 7841   5.014   6.993   6.580
 2533WAT     H2 7842   4.907   6.911   6.672
 2534WAT      O 7843   1.818   3.698   2.483
 2534WAT     H1 7844   1.865   3.691   2.571
 2534WAT     H2 7845   1.808   3.607   2.443
 2535WAT      O 7846   7.279   1.928   3.479
 2535WAT     H1 7847   7.186   1.891   3.469
 2535WAT     H2 7848   7.328   1.878   3.550
 2536WAT      O 7849   5.001   2.285   1.466
 2536WAT     H1 7850   4.988   2.216   1.537
 2536WAT     H2 7851   5.034   2.241   1.382
 2537WAT      O 7852   0.887   0.355   0.881
 2537WAT     H1 7853   0.890   0.372   0.980
 2537WAT     H2 7854   0.813   0.408   0.841
 2538WAT      O 7855   0.946   0.886   9.784
 2538WAT     H1 7856   0.951   0.894   9.883
 2538WAT     H2 7857   0.864   0.932   9.751
 2539WAT      O 7858   4.061   7.075   8.627
 2539WAT     H1 7859   3.975   7.113   8.661
 2539WAT     H2 7860   4.089   7.124   8.544
 2540WAT      O 7861   3.038   4.199   8.131
 2540WAT     H1 7862   3.090   4.277   8.096
 2540WAT     H2 7863   2.951   4.231   8.168
 2541WAT      O 7864   8.573   2.349   0.997
 2541WAT     H1 7865   8.582   2.359   0.897
 2541WAT     H2 7866   8.657   2.308   1.034
 2542WAT      O 7867   3.374   8.350   1.277
 2542WAT     H1 7868   3.418   8.320   1.192
 2542WAT     H2 7869   3.321   8.274   1.315
 2543WAT      O 7870   9.752   6.089   0.137
 2543WAT     H1 7871   9.759   6.138   0.051
 2543WAT     H2 7872   9.719   6.150   0.209
 2544WAT      O 7873   3.403   3.154   7.702
 2544WAT     H1 7874   3.361   3.191   7.619
 2544WAT     H2 7875   3.498   3.131   7.683
 2545WAT      O 7876   0.719   5.852   0.287
 2545WAT     H1 7877   0.809   5.852   0.243
 2545WAT     H2 7878   0.685   5.758   0.293
 2546WAT      O 7879   5.230   5.502   5.026
 2546WAT     H1 7880   5.135   5.519   5.000
 2546WAT     H2 7881   5.243   5.405   5.045
 2547WAT      O 7882   5.740   1.284   4.037
 2547WAT     H1 7883   5.809   1.218   4.068
 2547WAT     H2 7884   5.779   1.376   4.040
 2548WAT      O 7885   5.521   0.725   4.723
 2548WAT     H1 7886   5.485   0.747   4.814
 2548WAT     H2 7887   5.539   0.626   4.718
 2549WAT      O 7888   6.450   9.640   0.817
 2549WAT     H1 7889   6.486   9.721   0.770
 2549WAT     H2 7890   6.393   9.668   0.894
 2550WAT      O 7891   5.856   6.665   0.358
 2550WAT     H1 7892   5.865   6.585   0.417
 2550WAT     H2 7893   5.807   6.737   0.407
 2551WAT      O 7894   7.539   7.161   8.889
 2551WAT     H1 7895   7.611   7.154   8.958
 2551WAT     H2 7896   7.514   7.257   8.877
 2552WAT      O 7897   4.252   3.308   6.195
 2552WAT     H1 7898   4.224   3.404   6.209
 2552WAT     H2 7899   4.326   3.305   6.128
 2553WAT      O 7900   9.069   2.713   0.424
 2553WAT     H1 7901   9.104   2.624   0.396
 2553WAT     H2 7902   9.122   2.747   0.502
 2554WAT      O 7903   1.516   2.860   8.703
 2554WAT     H1 7904   1.467   2.874   8.789
 2554WAT     H2 7905   1.568   2.943   8.681
 2555WAT      O 7906   3.016   9.383   8.294
 2555WAT     H1 7907   3.097   9.371   8.237
 2555WAT     H2 7908   2.978   9.293   8.318
 2556WAT      O 7909   8.970   9.225   3.939
 2556WAT     H1 7910   8.993   9.250   3.845
 2556WAT     H2 7911   9.033   9.154   3.970
 2557WAT      O 7912   6.551   0.704   8.237
 2557WAT     H1 7913   6.621   0.682   8.305
 2557WAT     H2 7914   6.510   0.619   8.202
 2558WAT      O 7915   8.661   0.151   3.719
 2558WAT     H1 7916   8.676   0.223   3.787
 2558WAT     H2 7917   8.585   0.176   3.659
 2559WAT      O 7918   6.849   8.387   4.501
 2559WAT     H1 7919   6.840   8.455   4.574
 2559WAT     H2 7920   6.861   8.296   4.541
 2560WAT      O 7921   4.206   4.915   1.819
 2560WAT     H1 7922   4.233   4.894   1.913
 2560WAT     H2 7923   4.122   4.970   1.820
 2561WAT      O 7924   1.429   8.281   7.343
 2561WAT     H1 7925   1.389   8.367   7.371
 2561WAT     H2 7926   1.509   8.261   7.400
 2562WAT      O 7927   7.757   4.131   9.489
 2562WAT     H1 7928   7.760   4.082   9.402
 2562WAT     H2 7929   7.771   4.229   9.473
 2563WAT      O 7930   0.136   9.348   4.226
 2563WAT     H1 7931   0.234   9.343   4.243
 2563WAT     H2 7932   0.090   9.274   4.275
 2564WAT      O 7933   3.934   2.326   6.257
 2564WAT     H1 7934   3.952   2.282   6.345
 2564WAT     H2 7935   4.013   2.314   6.197
 2565WAT      O 7936   3.609   2.740   3.148
 2565WAT     H1 7937   3.706   2.730   3.170
 2565WAT     H2 7938   3.598   2.772   3.054
 2566WAT      O 7939   8.038   6.731   9.546
 2566WAT     H1 7940   8.075   6.768   9.460
 2566WAT     H2 7941   8.022   6.632   9.535
 2567WAT      O 7942   3.939   5.852   2.365
 2567WAT     H1 7943   4.004   5.802   2.422
 2567WAT     H2 7944   3.877   5.906   2.423
 2568WAT      O 7945   0.814   7.270   7.051
 2568WAT     H1 7946   0.773   7.258   7.141
 2568WAT     H2 7947   0.880   7.197   7.034
 2569WAT      O 7948   4.647   5.715   7.960
 2569WAT     H1 7949   4.604   5.666   8.036
 2569WAT     H2 7950   4.648   5.813   7.981
 2570WAT      O 7951   4.252   6.092   4.217
 2570WAT     H1 7952   4.290   6.055   4.303
 2570WAT     H2 7953   4.266   6.026   4.144
 2571WAT      O 7954   9.081   0.963   1.397
 2571WAT     H1 7955   9.088   0.864   1.411
 2571WAT     H2 7956   9.105   1.011   1.482
 2572WAT      O 7957   0.612   2.732   5.176
 2572WAT     H1 7958   0.706   2.709   5.152
 2572WAT     H2 7959   0.566   2.771   5.096
 2573WAT      O 7960   8.758   8.520   8.876
 2573WAT     H1 7961   8.781   8.445   8.939
 2573WAT     H2 7962   8.839   8.545   8.823
 2574WAT      O 7963   6.174   5.239   5.775
 2574WAT     H1 7964   6.211   5.306   5.840
 2574WAT     H2 7965   6.148   5.156   5.824
 2575WAT      O 7966   0.751   2.082   3.307
 2575WAT     H1 7967   0.708   2.105   3.394
 2575WAT     H2 7968   0.813   2.156   3.279
 2576WAT      O 7969   1.030   5.740   7.797
 2576WAT     H1 7970   1.001   5.667   7.859
 2576WAT     H2 7971   1.073   5.813   7.849
 2577WAT      O 7972   7.423   3.364   5.304
 2577WAT     H1 7973   7.518   3.339   5.324
 2577WAT     H2 7974   7.361   3.309   5.359
 2578WAT      O 7975   5.683   6.962   0.820
 2578WAT     H1 7976   5.750   6.945   0.892
 2578WAT     H2 7977   5.731   6.981   0.734
 2579WAT      O 7978   1.692   6.434   1.746
 2579WAT     H1 7979   1.597   6.452   1.719
 2579WAT     H2 7980   1.723   6.505   1.809
 2580WAT      O 7981   1.442   0.556   7.422
 2580WAT     H1 7982   1.372   0.555   7.350
 2580WAT     H2 7983   1.457   0.651   7.452
 2581WAT      O 7984   3.683   6.275   1.459
 2581WAT     H1 7985   3.606   6.215   1.434
 2581WAT     H2 7986   3.696   6.273   1.558
 2582WAT      O 7987   2.926   3.870   6.632
 2582WAT     H1 7988   2.916   3.790   6.572
 2582WAT     H2 7989   2.848   3.931   6.620
 2583WAT      O 7990   6.914   0.686   8.847
 2583WAT     H1 7991   6.943   0.613   8.786
 2583WAT     H2 7992   6.963   0.770   8.825
 2584WAT      O 7993   6.565   6.686   7.609
 2584WAT     H1 7994   6.613   6.599   7.609
 2584WAT     H2 7995   6.493   6.685   7.540
 2585WAT      O 7996   4.908   7.881   9.701
 2585WAT     H1 7997   4.918   7.870   9.800
 2585WAT     H2 7998   4.815   7.913   9.681
 2586WAT      O 7999   5.574   0.674   1.720
 2586WAT     H1 8000   5.566   0.773   1.732
 2586WAT     H2 8001   5.526   0.627   1.794
 2587WAT      O 8002   7.117   8.492   3.168
 2587WAT     H1 8003   7.124   8.434   3.086
 2587WAT     H2 8004   7.171   8.452   3.241
 2588WAT      O 8005   5.178   3.596   6.002
 2588WAT     H1 8006   5.268   3.560   5.978
 2588WAT     H2 8007   5.107   3.546   5.952
 2589WAT      O 8008   5.877   2.085   6.316
 2589WAT     H1 8009   5.884   2.184   6.301
 2589WAT     H2 8010   5.838   2.067   6.406
 2590WAT      O 8011   0.272   6.238   7.963
 2590WAT     H1 8012   0.251   6.162   7.901
 2590WAT     H2 8013   0.263   6.206   8.058
 2591WAT      O 8014   4.420   0.569   5.525
 2591WAT     H1 8015   4.337   0.535   5.481
 2591WAT     H2 8016   4.489   0.497   5.525
 2592WAT      O 8017   9.160   7.285   9.188
 2592WAT     H1 8018   9.098   7.335   9.128
 2592WAT     H2 8019   9.199   7.207   9.139
 2593WAT      O 8020   4.662   6.584   2.002
 2593WAT     H1 8021   4.644   6.525   1.923
 2593WAT     H2 8022   4.753   6.563   2.039
 2594WAT      O 8023   0.861   8.203   5.517
 2594WAT     H1 8024   0.949   8.155   5.529
 2594WAT     H2 8025   0.803   8.184   5.596
 2595WAT      O 8026   3.061   6.545   0.324
 2595WAT     H1 8027   3.091   6.500   0.409
 2595WAT     H2 8028   3.057   6.643   0.338
 2596WAT      O 8029   5.303   7.776   3.419
 2596WAT     H1 8030   5.385   7.720   3.409
 2596WAT     H2 8031   5.241   7.732   3.484
 2597WAT      O 8032   9.697   6.170   3.505
 2597WAT     H1 8033   9.705   6.225   3.422
 2597WAT     H2 8034   9.601   6.147   3.521
 2598WAT      O 8035   1.972   1.435   6.052
 2598WAT     H1 8036   2.025   1.362   6.007
 2598WAT     H2 8037   1.875   1.422   6.032
 2599WAT      O 8038   2.044   8.394   5.292
 2599WAT     H1 8039   2.023   8.399   5.194
 2599WAT     H2 8040   2.142   8.409   5.305
 2600WAT      O 8041   3.969   2.318   1.776
 2600WAT     H1 8042   3.908   2.382   1.822
 2600WAT     H2 8043   3.920   2.233   1.756
 2601WAT      O 8044   6.708   5.884   0.554
 2601WAT     H1 8045   6.675   5.796   0.587
 2601WAT     H2 8046   6.799   5.872   0.513
 2602WAT      O 8047   4.955   8.032   1.016
 2602WAT     H1 8048   4.924   8.094   0.943
 2602WAT     H2 8049   4.918   8.062   1.103
 2603WAT      O 8050   1.497   1.024   2.783
 2603WAT     H1 8051   1.442   1.097   2.822
 2603WAT     H2 8052   1.592   1.056   2.773
 2604WAT      O 8053   0.219   5.140   0.894
 2604WAT     H1 8054   0.238   5.133   0.992
 2604WAT     H2 8055   0.254   5.058   0.848
 2605WAT      O 8056   3.577   3.650   6.904
 2605WAT     H1 8057   3.651   3.684   6.846
 2605WAT     H2 8058   3.538   3.568   6.863
 2606WAT      O 8059   9.569   1.815   5.627
 2606WAT     H1 8060   9.517   1.878   5.569
 2606WAT     H2 8061   9.666   1.822   5.604
 2607WAT      O 8062   3.498   9.584   3.793
 2607WAT     H1 8063   3.576   9.591   3.856
 2607WAT     H2 8064   3.431   9.654   3.815
 2608WAT      O 8065   5.879   8.530   6.637
 2608WAT     H1 8066   5.818   8.606   6.613
 2608WAT     H2 8067   5.936   8.558   6.715
 2609WAT      O 8068   2.334   4.059   5.575
 2609WAT     H1 8069   2.402   3.993   5.545
 2609WAT     H2 8070   2.339   4.141   5.518
 2610WAT      O 8071   0.412   5.584   4.519
 2610WAT     H1 8072   0.336   5.618   4.575
 2610WAT     H2 8073   0.453   5.505   4.563
 2611WAT      O 8074   4.607   7.771   5.894
 2611WAT     H1 8075   4.622   7.683   5.849
 2611WAT     H2 8076   4.629   7.763   5.991
 2612WAT      O 8077   1.591   7.019   2.705
 2612WAT     H1 8078   1.643   6.958   2.647
 2612WAT     H2 8079   1.532   6.966   2.766
 2613WAT      O 8080   6.991   9.223   4.534
 2613WAT     H1 8081   7.005   9.308   4.484
 2613WAT     H2 8082   7.072   9.202   4.588
 2614WAT      O 8083   9.132   5.061   2.773
 2614WAT     H1 8084   9.046   5.011   2.763
 2614WAT     H2 8085   9.139   5.130   2.701
 2615WAT      O 8086   7.386   3.036   4.966
 2615WAT     H1 8087   7.385   3.134   4.985
 2615WAT     H2 8088   7.347   2.986   5.043
 2616WAT      O 8089   6.798   4.335   2.163
 2616WAT     H1 8090   6.734   4.293   2.099
 2616WAT     H2 8091   6.850   4.406   2.116
 2617WAT      O 8092   3.916   5.953   2.096
 2617WAT     H1 8093   3.907   6.051   2.084
 2617WAT     H2 8094   3.925   5.931   2.193
 2618WAT      O 8095   4.039   5.089   8.008
 2618WAT     H1 8096   4.121   5.135   8.043
 2618WAT     H2 8097   4.065   5.028   7.933
 2619WAT      O 8098   7.932   9.215   1.137
 2619WAT     H1 8099   7.945   9.164   1.052
 2619WAT     H2 8100   7.834   9.226   1.155
 2620WAT      O 8101   2.516   5.630   6.516
 2620WAT     H1 8102   2.538   5.561   6.447
 2620WAT     H2 8103   2.538   5.721   6.481
 2621WAT      O 8104   6.671   4.900   6.876
 2621WAT     H1 8105   6.727   4.840   6.933
 2621WAT     H2 8106   6.574   4.882   6.894
 2622WAT      O 8107   5.791   5.112   5.609
 2622WAT     H1 8108   5.884   5.076   5.597
 2622WAT     H2 8109   5.775   5.187   5.546
 2623WAT      O 8110   8.613   4.052   4.693
 2623WAT     H1 8111   8.704   4.043   4.734
 2623WAT     H2 8112   8.549   3.995   4.745
 2624WAT      O 8113   6.151   5.913   9.787
 2624WAT     H1 8114   6.138   5.824   9.743
 2624WAT     H2 8115   6.211   5.902   9.867
 2625WAT      O 8116   0.292   7.146   2.567
 2625WAT     H1 8117   0.355   7.202   2.622
 2625WAT     H2 8118   0.198   7.173   2.586
 2626WAT      O 8119   1.500   4.133   7.700
 2626WAT     H1 8120   1.476   4.205   7.765
 2626WAT     H2 8121   1.421   4.113   7.642
 2627WAT      O 8122   0.808   0.999   1.199
 2627WAT     H1 8123   0.862   1.063   1.144
 2627WAT     H2 8124   0.737   1.050   1.248
 2628WAT      O 8125   1.903   4.994   4.299
 2628WAT     H1 8126   1.895   5.064   4.229
 2628WAT     H2 8127   1.874   4.906   4.262
 2629WAT      O 8128   6.595   0.572   2.339
 2629WAT     H1 8129   6.677   0.624   2.315
 2629WAT     H2 8130   6.620   0.498   2.402
 2630WAT      O 8131   5.613   3.778   2.497
 2630WAT     H1 8132   5.593   3.858   2.441
 2630WAT     H2 8133   5.633   3.700   2.438
 2631WAT      O 8134   3.768   4.154   6.606
 2631WAT     H1 8135   3.749   4.156   6.508
 2631WAT     H2 8136   3.682   4.142   6.656
 2632WAT      O 8137   6.847   3.188   4.881
 2632WAT     H1 8138   6.871   3.215   4.974
 2632WAT     H2 8139   6.748   3.194   4.869
 2633WAT      O 8140   2.893   5.346   9.731
 2633WAT     H1 8141   2.909   5.431   9.680
 2633WAT     H2 8142   2.886   5.366   9.828
 2634WAT      O 8143   8.670   8.231   7.023
 2634WAT     H1 8144   8.716   8.271   6.943
 2634WAT     H2 8145   8.676   8.132   7.019
 2635WAT      O 8146   2.855   9.767   0.088
 2635WAT     H1 8147   2.818   9.795   0.176
 2635WAT     H2 8148   2.944   9.810   0.075
 2636WAT      O 8149   0.136   8.248   9.623
 2636WAT     H1 8150   0.153   8.205   9.713
 2636WAT     H2 8151   0.066   8.318   9.633
 2637WAT      O 8152   4.390   1.981   3.685
 2637WAT     H1 8153   4.341   2.068   3.682
 2637WAT     H2 8154   4.449   1.974   3.605
 2638WAT      O 8155   7.225   6.240   1.249
 2638WAT     H1 8156   7.164   6.215   1.325
 2638WAT     H2 8157   7.275   6.159   1.219
 2639WAT      O 8158   8.644   5.520   6.597
 2639WAT     H1 8159   8.593   5.474   6.524
 2639WAT     H2 8160   8.648   5.618   6.577
 2640WAT      O 8161   2.690   5.125   4.581
 2640WAT     H1 8162   2.790   5.133   4.578
 2640WAT     H2 8163   2.650   5.173   4.503
 2641WAT      O 8164   5.524   0.355   3.409
 2641WAT     H1 8165   5.459   0.425   3.376
 2641WAT     H2 8166   5.554   0.299   3.332
 2642WAT      O 8167   2.575   0.663   1.928
 2642WAT     H1 8168   2.493   0.669   1.871
 2642WAT     H2 8169   2.646   0.612   1.879
 2643WAT      O 8170   4.239   8.731   5.927
 2643WAT     H1 8171   4.326   8.721   5.879
 2643WAT     H2 8172   4.244   8.686   6.016
 2644WAT      O 8173   9.096   9.308   7.396
 2644WAT     H1 8174   9.095   9.357   7.483
 2644WAT     H2 8175   9.142   9.220   7.408
 2645WAT      O 8176   5.910   6.766   8.009
 2645WAT     H1 8177   5.815   6.734   8.004
 2645WAT     H2 8178   5.970   6.694   7.974
 2646WAT      O 8179   7.653   2.989   6.302
 2646WAT     H1 8180   7.615   2.997   6.394
 2646WAT     H2 8181   7.580   3.004   6.234
 2647WAT      O 8182   8.993   2.377   3.816
 2647WAT     H1 8183   9.041   2.370   3.904
 2647WAT     H2 8184   8.965   2.472   3.800
 2648WAT      O 8185   8.615   4.253   8.623
 2648WAT     H1 8186   8.597   4.169   8.573
 2648WAT     H2 8187   8.546   4.322   8.600
 2649WAT      O 8188   9.810   0.756   0.532
 2649WAT     H1 8189   9.839   0.701   0.455
 2649WAT     H2 8190   9.716   0.730   0.558
 2650WAT      O 8191   3.030   3.910   2.500
 2650WAT     H1 8192   3.062   3.984   2.560
 2650WAT     H2 8193   2.979   3.949   2.423
 2651WAT      O 8194   6.357   3.597   0.802
 2651WAT     H1 8195   6.365   3.498   0.816
 2651WAT     H2 8196   6.293   3.635   0.868
 2652WAT      O 8197   0.144   4.355   6.755
 2652WAT     H1 8198   0.211   4.390   6.690
 2652WAT     H2 8199   0.191   4.310   6.830
 2653WAT      O 8200   2.914   3.804   7.760
 2653WAT     H1 8201   2.984   3.865   7.798
 2653WAT     H2 8202   2.843   3.788   7.828
 2654WAT      O 8203   9.561   1.527   1.437
 2654WAT     H1 8204   9.641   1.476   1.405
 2654WAT     H2 8205   9.498   1.465   1.483
 2655WAT      O 8206   3.159   9.500   0.306
 2655WAT     H1 8207   3.200   9.409   0.302
 2655WAT     H2 8208   3.105   9.516   0.223
 2656WAT      O 8209   4.126   9.646   7.471
 2656WAT     H1 8210   4.092   9.720   7.529
 2656WAT     H2 8211   4.101   9.665   7.376
 2657WAT      O 8212   7.770   2.360   5.427
 2657WAT     H1 8213   7.674   2.344   5.404
 2657WAT     H2 8214   7.819   2.392   5.346
 2658WAT      O 8215   9.323   1.681   0.264
 2658WAT     H1 8216   9.353   1.713   0.174
 2658WAT     H2 8217   9.383   1.607   0.294
 2659WAT      O 8218   5.835   4.916   0.464
 2659WAT     H1 8219   5.795   4.910   0.556
 2659WAT     H2 8220   5.934   4.902   0.471
 2660WAT      O 8221   2.746   4.434   1.309
 2660WAT     H1 8222   2.716   4.410   1.217
 2660WAT     H2 8223   2.743   4.534   1.320
 2661WAT      O 8224   6.656   1.407   5.097
 2661WAT     H1 8225   6.558   1.424   5.090
 2661WAT     H2 8226   6.681   1.328   5.040
 2662WAT      O 8227   0.157   8.664   4.131
 2662WAT     H1 8228   0.121   8.700   4.045
 2662WAT     H2 8229   0.118   8.716   4.207
 2663WAT      O 8230   6.637   7.953   3.937
 2663WAT     H1 8231   6.570   7.901   3.883
 2663WAT     H2 8232   6.601   8.044   3.956
 2664WAT      O 8233   6.198   0.732   6.989
 2664WAT     H1 8234   6.150   0.784   6.919
 2664WAT     H2 8235   6.296   0.750   6.983
 2665WAT      O 8236   5.619   0.045   5.435
 2665WAT     H1 8237   5.556   0.068   5.360
 2665WAT     H2 8238   5.678   0.122   5.455
 2666WAT      O 8239   4.379   7.459   9.535
 2666WAT     H1 8240   4.424   7.380   9.578
 2666WAT     H2 8241   4.280   7.454   9.553
 2667WAT      O 8242   8.100   4.444   2.214
 2667WAT     H1 8243   8.152   4.405   2.291
 2667WAT     H2 8244   8.065   4.370   2.157
 2668WAT      O 8245   4.147   8.758   0.616
 2668WAT     H1 8246   4.105   8.675   0.654
 2668WAT     H2 8247   4.246   8.747   0.614
 2669WAT      O 8248   1.187   7.664   1.649
 2669WAT     H1 8249   1.178   7.593   1.718
 2669WAT     H2 8250   1.154   7.629   1.561
 2670WAT      O 8251   7.348   3.439   2.742
 2670WAT     H1 8252   7.408   3.430   2.662
 2670WAT     H2 8253   7.259   3.399   2.721
 2671WAT      O 8254   2.245   6.706   4.910
 2671WAT     H1 8255   2.239   6.688   4.812
 2671WAT     H2 8256   2.249   6.619   4.960
 2672WAT      O 8257   7.372   1.305   4.386
 2672WAT     H1 8258   7.275   1.285   4.373
 2672WAT     H2 8259   7.427   1.233   4.344
 2673WAT      O 8260   9.302   3.991   5.069
 2673WAT     H1 8261   9.317   3.948   5.158
 2673WAT     H2 8262   9.296   4.090   5.080
 2674WAT      O 8263   7.354   9.091   5.015
 2674WAT     H1 8264   7.284   9.096   5.086
 2674WAT     H2 8265   7.331   9.017   4.951
 2675WAT      O 8266   5.478   8.247   5.480
 2675WAT     H1 8267   5.534   8.171   5.512
 2675WAT     H2 8268   5.450   8.230   5.385
 2676WAT      O 8269   5.925   3.251   6.282
 2676WAT     H1 8270   5.884   3.257   6.191
 2676WAT     H2 8271   5.859   3.212   6.345
 2677WAT      O 8272   2.375   2.180   0.470
 2677WAT     H1 8273   2.324   2.134   0.396
 2677WAT     H2 8274   2.466   2.139   0.478
 2678WAT      O 8275   7.609   7.011   5.952
 2678WAT     H1 8276   7.603   6.912   5.936
 2678WAT     H2 8277   7.528   7.042   6.001
 2679WAT      O 8278   6.638   7.122   3.566
 2679WAT     H1 8279   6.711   7.066   3.605
 2679WAT     H2 8280   6.660   7.143   3.471
 2680WAT      O 8281   4.172   6.592   3.536
 2680WAT     H1 8282   4.081   6.585   3.496
 2680WAT     H2 8283   4.222   6.506   3.520
 2681WAT      O 8284   4.631   1.197   3.850
 2681WAT     H1 8285   4.677   1.159   3.769
 2681WAT     H2 8286   4.637   1.297   3.847
 2682WAT      O 8287   5.628   1.252   0.790
 2682WAT     H1 8288   5.568   1.190   0.841
 2682WAT     H2 8289   5.670   1.317   0.852
 2683WAT      O 8290   8.834   2.417   1.656
 2683WAT     H1 8291   8.751   2.387   1.703
 2683WAT     H2 8292   8.818   2.415   1.557
 2684WAT      O 8293   7.868   9.569   1.545
 2684WAT     H1 8294   7.789   9.610   1.499
 2684WAT     H2 8295   7.910   9.502   1.484
 2685WAT      O 8296   0.579   5.946   6.417
 2685WAT     H1 8297   0.555   6.024   6.359
 2685WAT     H2 8298   0.503   5.928   6.480
 2686WAT      O 8299   0.274   9.063   7.748
 2686WAT     H1 8300   0.328   9.028   7.672
 2686WAT     H2 8301   0.205   8.995   7.774
 2687WAT      O 8302   3.585   4.343   9.316
 2687WAT     H1 8303   3.655   4.347   9.388
 2687WAT     H2 8304   3.535   4.430   9.314
 2688WAT      O 8305   6.639   7.699   3.675
 2688WAT     H1 8306   6.699   7.745   3.610
 2688WAT     H2 8307   6.573   7.764   3.712
 2689WAT      O 8308   6.966   0.776   9.629
 2689WAT     H1 8309   6.900   0.835   9.676
 2689WAT     H2 8310   6.927   0.685   9.617
 2690WAT      O 8311   5.004   3.503   6.993
 2690WAT     H1 8312   5.090   3.534   7.032
 2690WAT     H2 8313   5.003   3.521   6.895
 2691WAT      O 8314   5.030   5.765   0.342
 2691WAT     H1 8315   5.068   5.763   0.249
 2691WAT     H2 8316   5.099   5.801   0.405
 2692WAT      O 8317   0.999   4.546   4.631
 2692WAT     H1 8318   1.029   4.480   4.562
 2692WAT     H2 8319   1.071   4.614   4.645
 2693WAT      O 8320   9.579   2.364   0.943
 2693WAT     H1 8321   9.535   2.386   0.856
 2693WAT     H2 8322   9.583   2.447   0.999
 2694WAT      O 8323   4.146   4.726   2.339
 2694WAT     H1 8324   4.110   4.634   2.324
 2694WAT     H2 8325   4.076   4.783   2.381
 2695WAT      O 8326   8.038   0.854   8.521
 2695WAT     H1 8327   8.114   0.798   8.552
 2695WAT     H2 8328   8.036   0.856   8.421
 2696WAT      O 8329   0.144   3.663   0.102
 2696WAT     H1 8330   0.063   3.642   0.156
 2696WAT     H2 8331   0.137   3.757   0.066
 2697WAT      O 8332   0.488   4.290   0.905
 2697WAT     H1 8333   0.431   4.209   0.916
 2697WAT     H2 8334   0.435   4.371   0.931
 2698WAT      O 8335   4.762   5.146   2.559
 2698WAT     H1 8336   4.860   5.143   2.545
 2698WAT     H2 8337   4.741   5.217   2.627
 2699WAT      O 8338   5.403   2.852   0.591
 2699WAT     H1 8339   5.385   2.806   0.678
 2699WAT     H2 8340   5.366   2.944   0.593
 2700WAT      O 8341   1.672   6.181   0.566
 2700WAT     H1 8342   1.752   6.242   0.566
 2700WAT     H2 8343   1.623   6.191   0.479
 2701WAT      O 8344   0.985   6.280   3.611
 2701WAT     H1 8345   1.014   6.185   3.598
 2701WAT     H2 8346   0.887   6.284   3.628
 2702WAT      O 8347   7.254   9.508   1.801
 2702WAT     H1 8348   7.244   9.483   1.705
 2702WAT     H2 8349   7.248   9.427   1.859
 2703WAT      O 8350   5.528   1.834   9.554
 2703WAT     H1 8351   5.504   1.754   9.609
 2703WAT     H2 8352   5.457   1.904   9.563
 2704WAT      O 8353   7.401   5.163   4.810
 2704WAT     H1 8354   7.410   5.138   4.906
 2704WAT     H2 8355   7.477   5.123   4.758
 2705WAT      O 8356   4.715   9.641   5.810
 2705WAT     H1 8357   4.779   9.657   5.885
 2705WAT     H2 8358   4.628   9.610   5.847
 2706WAT      O 8359   8.844   3.752   7.474
 2706WAT     H1 8360   8.846   3.654   7.493
 2706WAT     H2 8361   8.804   3.800   7.552
 2707WAT      O 8362   9.603   0.025   3.251
 2707WAT     H1 8363   9.630  -0.071   3.241
 2707WAT     H2 8364   9.682   0.080   3.277
 2708WAT      O 8365   9.697   6.711   9.624
 2708WAT     H1 8366   9.613   6.764   9.614
 2708WAT     H2 8367   9.772   6.758   9.577
 2709WAT      O 8368   5.534   8.605   5.802
 2709WAT     H1 8369   5.517   8.558   5.716
 2709WAT     H2 8370   5.621   8.572   5.841
 2710WAT      O 8371   6.705   5.484   4.122
 2710WAT     H1 8372   6.677   5.393   4.155
 2710WAT     H2 8373   6.737   5.538   4.200
 2711WAT      O 8374   4.150   1.006   5.656
 2711WAT     H1 8375   4.140   0.973   5.562
 2711WAT     H2 8376   4.154   1.106   5.655
 2712WAT      O 8377   3.731   9.706   7.652
 2712WAT     H1 8378   3.738   9.776   7.724
 2712WAT     H2 8379   3.757   9.747   7.564
 2713WAT      O 8380   5.641   5.128   8.595
 2713WAT     H1 8381   5.605   5.035   8.605
 2713WAT     H2 8382   5.621   5.181   8.678
 2714WAT      O 8383   6.156   2.461   2.000
 2714WAT     H1 8384   6.210   2.517   1.936
 2714WAT     H2 8385   6.081   2.418   1.950
 2715WAT      O 8386   5.596   1.698   1.178
 2715WAT     H1 8387   5.630   1.604   1.176
 2715WAT     H2 8388   5.632   1.745   1.259
 2716WAT      O 8389   6.008   8.084   1.053
 2716WAT     H1 8390   6.100   8.044   1.061
 2716WAT     H2 8391   5.940   8.019   1.088
 2717WAT      O 8392   0.168   4.189   9.102
 2717WAT     H1 8393   0.213   4.107   9.067
 2717WAT     H2 8394   0.221   4.227   9.178
 2718WAT      O 8395   6.349   3.738   3.253
 2718WAT     H1 8396   6.341   3.733   3.153
 2718WAT     H2 8397   6.266   3.777   3.292
 2719WAT      O 8398   2.467   2.649   3.110
 2719WAT     H1 8399   2.550   2.599   3.135
 2719WAT     H2 8400   2.415   2.670   3.193
 2720WAT      O 8401   8.441   0.842   6.105
 2720WAT     H1 8402   8.516   0.906   6.092
 2720WAT     H2 8403   8.404   0.815   6.016
 2721WAT      O 8404   2.942   6.793   4.328
 2721WAT     H1 8405   2.925   6.891   4.321
 2721WAT     H2 8406   2.897   6.745   4.253
 2722WAT      O 8407   8.509   1.447   3.338
 2722WAT     H1 8408   8.597   1.416   3.373
 2722WAT     H2 8409   8.522   1.496   3.252
 2723WAT      O 8410   2.242   7.459   0.376
 2723WAT     H1 8411   2.273   7.501   0.462
 2723WAT     H2 8412   2.143   7.450   0.378
 2724WAT      O 8413   1.223   5.414   6.140
 2724WAT     H1 8414   1.312   5.457   6.126
 2724WAT     H2 8415   1.152   5.468   6.095
 2725WAT      O 8416   3.882   6.925   6.894
 2725WAT     H1 8417   3.977   6.956   6.891
 2725WAT     H2 8418   3.840   6.937   6.803
 2726WAT      O 8419   9.441   8.572   4.504
 2726WAT     H1 8420   9.365   8.529   4.455
 2726WAT     H2 8421   9.469   8.655   4.456
 2727WAT      O 8422   3.966   5.180   4.310
 2727WAT     H1 8423   3.915   5.244   4.366
 2727WAT     H2 8424   3.909   5.150   4.233
 2728WAT      O 8425   2.837   0.328   2.267
 2728WAT     H1 8426   2.898   0.277   2.207
 2728WAT     H2 8427   2.778   0.264   2.316
 2729WAT      O 8428   4.094   0.673   2.596
 2729WAT     H1 8429   4.028   0.749   2.598
 2729WAT     H2 8430   4.167   0.690   2.662
 2730WAT      O 8431   6.599   5.341   1.681
 2730WAT     H1 8432   6.664   5.342   1.757
 2730WAT     H2 8433   6.527   5.273   1.700
 2731WAT      O 8434   7.842   4.665   9.409
 2731WAT     H1 8435   7.829   4.764   9.416
 2731WAT     H2 8436   7.796   4.631   9.327
 2732WAT      O 8437   8.395   3.312   0.072
 2732WAT     H1 8438   8.364   3.405   0.051
 2732WAT     H2 8439   8.356   3.284   0.160
 2733WAT      O 8440   4.258   9.138   5.392
 2733WAT     H1 8441   4.300   9.053   5.362
 2733WAT     H2 8442   4.318   9.215   5.369
 2734WAT      O 8443   2.393   9.796   3.279
 2734WAT     H1 8444   2.358   9.888   3.262
 2734WAT     H2 8445   2.473   9.780   3.223
 2735WAT      O 8446   6.852   7.078   8.650
 2735WAT     H1 8447   6.916   7.154   8.644
 2735WAT     H2 8448   6.790   7.081   8.572
 2736WAT      O 8449   3.870   8.330   1.423
 2736WAT     H1 8450   3.799   8.378   1.372
 2736WAT     H2 8451   3.828   8.260   1.481
 2737WAT      O 8452   4.751   3.113   8.544
 2737WAT     H1 8453   4.686   3.189   8.541
 2737WAT     H2 8454   4.707   3.030   8.512
 2738WAT      O 8455   7.213   4.291   5.033
 2738WAT     H1 8456   7.199   4.328   4.941
 2738WAT     H2 8457   7.301   4.245   5.038
 2739WAT      O 8458   8.431   7.267   4.248
 2739WAT     H1 8459   8.406   7.232   4.338
 2739WAT     H2 8460   8.399   7.361   4.238
 2740WAT      O 8461   2.229   6.311   1.225
 2740WAT     H1 8462   2.299   6.239   1.215
 2740WAT     H2 8463   2.234   6.349   1.318
 2741WAT      O 8464   3.538   0.034   0.903
 2741WAT     H1 8465   3.497   0.048   0.813
 2741WAT     H2 8466   3.518  -0.058   0.935
 2742WAT      O 8467   0.020   3.863   5.107
 2742WAT     H1 8468   0.064   3.880   5.195
 2742WAT     H2 8469   0.089   3.834   5.041
 2743WAT      O 8470   5.451   9.156   1.723
 2743WAT     H1 8471   5.535   9.177   1.773
 2743WAT     H2 8472   5.467   9.077   1.663
 2744WAT      O 8473   1.432   3.243   1.697
 2744WAT     H1 8474   1.419   3.237   1.598
 2744WAT     H2 8475   1.485   3.325   1.719
 2745WAT      O 8476   7.357   8.701   8.957
 2745WAT     H1 8477   7.351   8.798   8.979
 2745WAT     H2 8478   7.266   8.666   8.936
 2746WAT      O 8479   9.657   3.410   9.424
 2746WAT     H1 8480   9.630   3.492   9.474
 2746WAT     H2 8481   9.700   3.345   9.487
 2747WAT      O 8482   2.368   9.420   6.258
 2747WAT     H1 8483   2.381   9.350   6.188
 2747WAT     H2 8484   2.420   9.502   6.233
 2748WAT      O 8485   8.854   6.807   0.495
 2748WAT     H1 8486   8.884   6.711   0.499
 2748WAT     H2 8487   8.931   6.867   0.518
 2749WAT      O 8488   2.210   3.680   2.716
 2749WAT     H1 8489   2.148   3.615   2.673
 2749WAT     H2 8490   2.162   3.766   2.733
 2750WAT      O 8491   7.732   2.222   8.487
 2750WAT     H1 8492   7.720   2.163   8.567
 2750WAT     H2 8493   7.650   2.219   8.430
 2751WAT      O 8494   6.838   8.990   2.773
 2751WAT     H1 8495   6.804   8.899   2.796
 2751WAT     H2 8496   6.914   8.983   2.709
 2752WAT      O 8497   1.870   1.538   7.013
 2752WAT     H1 8498   1.786   1.522   7.064
 2752WAT     H2 8499   1.865   1.490   6.925
 2753WAT      O 8500   6.557   1.859   6.781
 2753WAT     H1 8501   6.530   1.930   6.847
 2753WAT     H2 8502   6.638   1.811   6.815
 2754WAT      O 8503   5.155   7.310   4.937
 2754WAT     H1 8504   5.130   7.270   4.849
 2754WAT     H2 8505   5.246   7.279   4.964
 2755WAT      O 8506   6.917   6.021   5.071
 2755WAT     H1 8507   6.834   6.074   5.088
 2755WAT     H2 8508   6.994   6.063   5.118
 2756WAT      O 8509   5.040   2.136   9.285
 2756WAT     H1 8510   5.059   2.039   9.272
 2756WAT     H2 8511   5.115   2.190   9.247
 2757WAT      O 8512   5.766   8.342   5.106
 2757WAT     H1 8513   5.735   8.248   5.118
 2757WAT     H2 8514   5.836   8.363   5.174
 2758WAT      O 8515   0.167   1.890   2.526
 2758WAT     H1 8516   0.090   1.838   2.565
 2758WAT     H2 8517   0.182   1.972   2.581
 2759WAT      O 8518   1.743   1.214   9.804
 2759WAT     H1 8519   1.788   1.275   9.739
 2759WAT     H2 8520   1.812   1.168   9.860
 2760WAT      O 8521   8.400   8.802   9.656
 2760WAT     H1 8522   8.317   8.816   9.603
 2760WAT     H2 8523   8.447   8.720   9.622
 2761WAT      O 8524   0.829   8.928   3.023
 2761WAT     H1 8525   0.825   9.027   3.007
 2761WAT     H2 8526   0.914   8.892   2.986
 2762WAT      O 8527   9.198   1.330   5.618
 2762WAT     H1 8528   9.118   1.287   5.575
 2762WAT     H2 8529   9.256   1.370   5.548
 2763WAT      O 8530   1.021   7.473   2.930
 2763WAT     H1 8531   0.994   7.378   2.916
 2763WAT     H2 8532   0.939   7.527   2.952
 2764WAT      O 8533   1.980   4.445   7.235
 2764WAT     H1 8534   1.990   4.543   7.216
 2764WAT     H2 8535   1.904   4.432   7.299
 2765WAT      O 8536   3.202   3.116   2.319
 2765WAT     H1 8537   3.299   3.093   2.330
 2765WAT     H2 8538   3.181   3.197   2.374
 2766WAT      O 8539   7.846   1.698   4.328
 2766WAT     H1 8540   7.767   1.637   4.332
 2766WAT     H2 8541   7.815   1.792   4.341
 2767WAT      O 8542   2.529   3.998   6.398
 2767WAT     H1 8543   2.430   3.994   6.408
 2767WAT     H2 8544   2.556   3.952   6.314
 2768WAT      O 8545   3.691   9.498   6.284
 2768WAT     H1 8546   3.733   9.409   6.263
 2768WAT     H2 8547   3.750   9.548   6.348
 2769WAT      O 8548   2.715   8.855   1.462
 2769WAT     H1 8549   2.669   8.843   1.374
 2769WAT     H2 8550   2.659   8.916   1.520
 2770WAT      O 8551   7.152   1.857   2.397
 2770WAT     H1 8552   7.169   1.773   2.346
 2770WAT     H2 8553   7.065   1.896   2.368
 2771WAT      O 8554   6.043   7.498   4.685
 2771WAT     H1 8555   6.140   7.515   4.699
 2771WAT     H2 8556   5.992   7.582   4.699
 2772WAT      O 8557   9.265   9.111   9.776
 2772WAT     H1 8558   9.314   9.166   9.708
 2772WAT     H2 8559   9.295   9.137   9.867
 2773WAT      O 8560   3.960   6.038   0.263
 2773WAT     H1 8561   3.978   6.111   0.197
 2773WAT     H2 8562   4.043   6.019   0.315
 2774WAT      O 8563   6.554   6.211   0.597
 2774WAT     H1 8564   6.476   6.231   0.657
 2774WAT     H2 8565   6.547   6.117   0.563
 2775WAT      O 8566   8.111   5.442   8.585
 2775WAT     H1 8567   8.205   5.408   8.582
 2775WAT     H2 8568   8.063   5.413   8.502
 2776WAT      O 8569   5.394   3.566   3.748
 2776WAT     H1 8570   5.417   3.648   3.799
 2776WAT     H2 8571   5.393   3.487   3.810
 2777WAT      O 8572   4.325   7.384   2.968
 2777WAT     H1 8573   4.306   7.286   2.964
 2777WAT     H2 8574   4.239   7.435   2.964
 2778WAT      O 8575   2.218   6.095   4.829
 2778WAT     H1 8576   2.245   6.085   4.925
 2778WAT     H2 8577   2.240   6.188   4.798
 2779WAT      O 8578   1.248   1.634   0.799
 2779WAT     H1 8579   1.289   1.569   0.736
 2779WAT     H2 8580   1.318   1.674   0.857
 2780WAT      O 8581   4.406   8.743   4.041
 2780WAT     H1 8582   4.446   8.681   4.109
 2780WAT     H2 8583   4.310   8.759   4.063
 2781WAT      O 8584   3.218   4.720   8.457
 2781WAT     H1 8585   3.236   4.712   8.359
 2781WAT     H2 8586   3.305   4.718   8.507
 2782WAT      O 8587   3.918   3.984   4.314
 2782WAT     H1 8588   3.860   3.918   4.362
 2782WAT     H2 8589   3.860   4.055   4.274
 2783WAT      O 8590   3.361   3.808   8.235
 2783WAT     H1 8591   3.365   3.738   8.306
 2783WAT     H2 8592   3.378   3.767   8.146
 2784WAT      O 8593   3.829   3.766   5.284
 2784WAT     H1 8594   3.775   3.839   5.243
 2784WAT     H2 8595   3.806   3.759   5.381
 2785WAT      O 8596   9.624   6.467   7.436
 2785WAT     H1 8597   9.557   6.429   7.373
 2785WAT     H2 8598   9.712   6.477   7.390
 2786WAT      O 8599   8.212   0.211   2.613
 2786WAT     H1 8600   8.199   0.118   2.577
 2786WAT     H2 8601   8.284   0.257   2.561
 2787WAT      O 8602   1.348   8.147   0.373
 2787WAT     H1 8603   1.279   8.201   0.324
 2787WAT     H2 8604   1.427   8.204   0.392
 2788WAT      O 8605   6.249   1.560   7.990
 2788WAT     H1 8606   6.218   1.474   8.030
 2788WAT     H2 8607   6.348   1.558   7.978
 2789WAT      O 8608   2.066   7.566   3.856
 2789WAT     H1 8609   2.121   7.486   3.881
 2789WAT     H2 8610   2.008   7.591   3.933
 2790WAT      O 8611   4.863   8.428   3.194
 2790WAT     H1 8612   4.908   8.478   3.268
 2790WAT     H2 8613   4.869   8.330   3.212
 2791WAT      O 8614   1.599   6.310   7.853
 2791WAT     H1 8615   1.643   6.232   7.897
 2791WAT     H2 8616   1.625   6.395   7.900
 2792WAT      O 8617   2.932   7.455   3.491
 2792WAT     H1 8618   2.990   7.532   3.517
 2792WAT     H2 8619   2.973   7.407   3.414
 2793WAT      O 8620   4.215   0.935   6.606
 2793WAT     H1 8621   4.274   0.885   6.543
 2793WAT     H2 8622   4.132   0.881   6.623
 2794WAT      O 8623   6.425   5.465   8.029
 2794WAT     H1 8624   6.514   5.437   7.991
 2794WAT     H2 8625   6.352   5.419   7.979
 2795WAT      O 8626   7.868   0.195   0.051
 2795WAT     H1 8627   7.941   0.130   0.033
 2795WAT     H2 8628   7.783   0.147   0.069
 2796WAT      O 8629   8.776   1.534   9.606
 2796WAT     H1 8630   8.682   1.526   9.573
 2796WAT     H2 8631   8.780   1.508   9.703
 2797WAT      O 8632   0.045   0.207   3.065
 2797WAT     H1 8633  -0.042   0.228   3.110
 2797WAT     H2 8634   0.086   0.127   3.108
 2798WAT      O 8635   9.547   1.766   1.920
 2798WAT     H1 8636   9.567   1.783   1.823
 2798WAT     H2 8637   9.544   1.853   1.969
 2799WAT      O 8638   8.595   7.364   3.134
 2799WAT     H1 8639   8.653   7.282   3.135
 2799WAT     H2 8640   8.581   7.394   3.039
 2800WAT      O 8641   2.171   0.403   4.294
 2800WAT     H1 8642   2.182   0.309   4.261
 2800WAT     H2 8643   2.261   0.445   4.305
 2801WAT      O 8644   1.569   2.780   1.024
 2801WAT     H1 8645   1.569   2.713   1.098
 2801WAT     H2 8646   1.534   2.737   0.940
 2802WAT      O 8647   1.450   9.660   3.626
 2802WAT     H1 8648   1.358   9.630   3.653
 2802WAT     H2 8649   1.468   9.751   3.663
 2803WAT      O 8650   1.529   3.893   6.803
 2803WAT     H1 8651   1.574   3.947   6.732
 2803WAT     H2 8652   1.597   3.859   6.868
 2804WAT      O 8653   1.893   3.271   1.054
 2804WAT     H1 8654   1.801   3.235   1.037
 2804WAT     H2 8655   1.919   3.252   1.148
 2805WAT      O 8656   1.472   7.355   3.753
 2805WAT     H1 8657   1.480   7.412   3.671
 2805WAT     H2 8658   1.477   7.259   3.727
 2806WAT      O 8659   4.964   5.392   1.086
 2806WAT     H1 8660   4.967   5.487   1.116
 2806WAT     H2 8661   5.003   5.333   1.157
 2807WAT      O 8662   8.088   3.792   7.269
 2807WAT     H1 8663   8.033   3.749   7.197
 2807WAT     H2 8664   8.181   3.808   7.235
 2808WAT      O 8665   1.748   1.265   1.533
 2808WAT     H1 8666   1.670   1.306   1.581
 2808WAT     H2 8667   1.718   1.180   1.489
 2809WAT      O 8668   7.462   0.667   9.689
 2809WAT     H1 8669   7.439   0.587   9.633
 2809WAT     H2 8670   7.491   0.637   9.780
 2810WAT      O 8671   5.147   3.472   6.258
 2810WAT     H1 8672   5.199   3.523   6.189
 2810WAT     H2 8673   5.049   3.485   6.242
 2811WAT      O 8674   2.863   2.617   7.747
 2811WAT     H1 8675   2.938   2.658   7.695
 2811WAT     H2 8676   2.807   2.689   7.788
 2812WAT      O 8677   9.124   7.993   3.455
 2812WAT     H1 8678   9.026   8.006   3.443
 2812WAT     H2 8679   9.140   7.917   3.518
 2813WAT      O 8680   5.145   5.665   4.426
 2813WAT     H1 8681   5.157   5.575   4.386
 2813WAT     H2 8682   5.197   5.733   4.374
 2814WAT      O 8683   6.182   7.226   6.212
 2814WAT     H1 8684   6.226   7.315   6.213
 2814WAT     H2 8685   6.208   7.177   6.128
 2815WAT      O 8686   8.228   5.643   6.670
 2815WAT     H1 8687   8.131   5.666   6.661
 2815WAT     H2 8688   8.237   5.548   6.699
 2816WAT      O 8689   9.525   6.179   2.072
 2816WAT     H1 8690   9.523   6.196   2.170
 2816WAT     H2 8691   9.610   6.216   2.034
 2817WAT      O 8692   5.831   0.055   0.525
 2817WAT     H1 8693   5.910   0.114   0.546
 2817WAT     H2 8694   5.747   0.108   0.530
 2818WAT      O 8695   4.023   5.890   5.967
 2818WAT     H1 8696   4.099   5.826   5.957
 2818WAT     H2 8697   4.059   5.981   5.988
 2819WAT      O 8698   5.862   4.860   0.995
 2819WAT     H1 8699   5.894   4.949   1.026
 2819WAT     H2 8700   5.817   4.812   1.070
 2820WAT      O 8701   3.454   5.723   1.763
 2820WAT     H1 8702   3.393   5.795   1.732
 2820WAT     H2 8703   3.491   5.674   1.684
 2821WAT      O 8704   1.760   0.126   5.495
 2821WAT     H1 8705   1.684   0.190   5.481
 2821WAT     H2 8706   1.755   0.054   5.426
 2822WAT      O 8707   3.851   7.356   2.815
 2822WAT     H1 8708   3.810   7.445   2.795
 2822WAT     H2 8709   3.930   7.342   2.756
 2823WAT      O 8710   5.026   1.176   0.151
 2823WAT     H1 8711   4.983   1.182   0.062
 2823WAT     H2 8712   5.126   1.173   0.140
 2824WAT      O 8713   0.096   4.164   1.319
 2824WAT     H1 8714   0.052   4.082   1.355
 2824WAT     H2 8715   0.177   4.138   1.266
 2825WAT      O 8716   8.206   2.106   6.212
 2825WAT     H1 8717   8.210   2.168   6.290
 2825WAT     H2 8718   8.256   2.146   6.135
 2826WAT      O 8719   4.492   3.771   8.335
 2826WAT     H1 8720   4.508   3.745   8.240
 2826WAT     H2 8721   4.400   3.743   8.363
 2827WAT      O 8722   1.327   4.460   7.009
 2827WAT     H1 8723   1.390   4.536   7.001
 2827WAT     H2 8724   1.330   4.422   7.101
 2828WAT      O 8725   7.678   0.986   5.872
 2828WAT     H1 8726   7.625   1.029   5.946
 2828WAT     H2 8727   7.684   0.888   5.889
 2829WAT      O 8728   2.888   4.743   1.698
 2829WAT     H1 8729   2.860   4.666   1.756
 2829WAT     H2 8730   2.807   4.793   1.668
 2830WAT      O 8731   5.957   8.565   7.783
 2830WAT     H1 8732   5.872   8.546   7.732
 2830WAT     H2 8733   6.035   8.561   7.720
 2831WAT      O 8734   8.144   8.140   0.092
 2831WAT     H1 8735   8.146   8.155   0.191
 2831WAT     H2 8736   8.136   8.042   0.074
 2832WAT      O 8737   1.130   4.201   5.009
 2832WAT     H1 8738   1.106   4.111   4.972
 2832WAT     H2 8739   1.088   4.212   5.099
 2833WAT      O 8740   7.558   2.207   4.894
 2833WAT     H1 8741   7.625   2.144   4.854
 2833WAT     H2 8742   7.500   2.244   4.821
 2834WAT      O 8743   5.648   2.160   9.071
 2834WAT     H1 8744   5.598   2.113   8.998
 2834WAT     H2 8745   5.589   2.171   9.150
 2835WAT      O 8746   2.059   2.284   2.634
 2835WAT     H1 8747   1.973   2.322   2.669
 2835WAT     H2 8748   2.135   2.343   2.661
 2836WAT      O 8749   8.698   2.847   6.238
 2836WAT     H1 8750   8.761   2.816   6.309
 2836WAT     H2 8751   8.728   2.937   6.204
 2837WAT      O 8752   2.196   3.330   4.831
 2837WAT     H1 8753   2.252   3.364   4.755
 2837WAT     H2 8754   2.202   3.230   4.835
 2838WAT      O 8755   1.387   5.596   0.137
 2838WAT     H1 8756   1.449   5.601   0.058
 2838WAT     H2 8757   1.340   5.684   0.147
 2839WAT      O 8758   9.175   0.008   4.974
 2839WAT     H1 8759   9.252   0.072   4.969
 2839WAT     H2 8760   9.209  -0.085   4.988
 2840WAT      O 8761   2.090   0.240   3.749
 2840WAT     H1 8762   2.068   0.170   3.681
 2840WAT     H2 8763   2.140   0.198   3.825
 2841WAT      O 8764   7.918   3.245   8.751
 2841WAT     H1 8765   7.882   3.157   8.720
 2841WAT     H2 8766   7.868   3.275   8.832
 2842WAT      O 8767   3.303   8.876   5.140
 2842WAT     H1 8768   3.347   8.949   5.087
 2842WAT     H2 8769   3.311   8.789   5.090
 2843WAT      O 8770   0.958   7.155   5.646
 2843WAT     H1 8771   0.893   7.228   5.668
 2843WAT     H2 8772   0.946   7.128   5.550
 2844WAT      O 8773   0.016   7.274   5.103
 2844WAT     H1 8774  -0.077   7.292   5.070
 2844WAT     H2 8775   0.012   7.203   5.173
 2845WAT      O 8776   8.165   8.339   7.761
 2845WAT     H1 8777   8.144   8.324   7.664
 2845WAT     H2 8778   8.258   8.374   7.770
 2846WAT      O 8779   8.783   8.435   0.381
 2846WAT     H1 8780   8.801   8.337   0.374
 2846WAT     H2 8781   8.746   8.468   0.294
 2847WAT      O 8782   0.552   4.015   9.088
 2847WAT     H1 8783   0.563   4.114   9.098
 2847WAT     H2 8784   0.633   3.977   9.044
 2848WAT      O 8785   5.894   6.299   8.246
 2848WAT     H1 8786   5.845   6.263   8.167
 2848WAT     H2 8787   5.836   6.290   8.328
 2849WAT      O 8788   8.261   2.355   9.835
 2849WAT     H1 8789   8.250   2.365   9.934
 2849WAT     H2 8790   8.297   2.264   9.814
 2850WAT      O 8791   2.779   7.109   8.129
 2850WAT     H1 8792   2.785   7.181   8.198
 2850WAT     H2 8793   2.696   7.120   8.075
 2851WAT      O 8794   5.494   5.637   4.425
 2851WAT     H1 8795   5.588   5.632   4.392
 2851WAT     H2 8796   5.432   5.609   4.352
 2852WAT      O 8797   6.748   5.299   2.545
 2852WAT     H1 8798   6.704   5.211   2.564
 2852WAT     H2 8799   6.689   5.354   2.487
 2853WAT      O 8800   4.502   1.863   7.805
 2853WAT     H1 8801   4.586   1.876   7.859
 2853WAT     H2 8802   4.427   1.911   7.848
 2854WAT      O 8803   3.213   3.241   0.063
 2854WAT     H1 8804   3.191   3.323   0.010
 2854WAT     H2 8805   3.310   3.221   0.053
 2855WAT      O 8806   6.164   7.026   7.536
 2855WAT     H1 8807   6.234   6.957   7.516
 2855WAT     H2 8808   6.101   7.032   7.459
 2856WAT      O 8809   0.818   0.420   6.516
 2856WAT     H1 8810   0.721   0.394   6.513
 2856WAT     H2 8811   0.827   0.514   6.548
 2857WAT      O 8812   4.099   6.730   6.479
 2857WAT     H1 8813   4.074   6.724   6.576
 2857WAT     H2 8814   4.017   6.738   6.423
 2858WAT      O 8815   3.399   0.402   1.739
 2858WAT     H1 8816   3.417   0.370   1.646
 2858WAT     H2 8817   3.485   0.423   1.784
 2859WAT      O 8818   3.141   0.534   2.090
 2859WAT     H1 8819   3.193   0.608   2.048
 2859WAT     H2 8820   3.205   0.464   2.124
 2860WAT      O 8821   3.342   9.259   5.499
 2860WAT     H1 8822   3.403   9.254   5.578
 2860WAT     H2 8823   3.257   9.305   5.524
 2861WAT      O 8824   6.260   0.442   1.711
 2861WAT     H1 8825   6.295   0.394   1.631
 2861WAT     H2 8826   6.271   0.540   1.699
 2862WAT      O 8827   4.368   5.588   3.447
 2862WAT     H1 8828   4.385   5.557   3.354
 2862WAT     H2 8829   4.393   5.516   3.512
 2863WAT      O 8830   2.885   2.919   6.466
 2863WAT     H1 8831   2.904   2.829   6.504
 2863WAT     H2 8832   2.786   2.935   6.467
 2864WAT      O 8833   6.137   6.634   8.395
 2864WAT     H1 8834   6.077   6.608   8.470
 2864WAT     H2 8835   6.215   6.571   8.390
 2865WAT      O 8836   1.815   5.745   7.798
 2865WAT     H1 8837   1.753   5.681   7.751
 2865WAT     H2 8838   1.775   5.836   7.798
 2866WAT      O 8839   6.294   0.073   9.018
 2866WAT     H1 8840   6.209   0.100   9.063
 2866WAT     H2 8841   6.292   0.104   8.923
 2867WAT      O 8842   0.524   4.279   1.428
 2867WAT     H1 8843   0.521   4.377   1.409
 2867WAT     H2 8844   0.555   4.229   1.347
 2868WAT      O 8845   3.185   2.992   2.977
 2868WAT     H1 8846   3.183   2.893   2.983
 2868WAT     H2 8847   3.266   3.020   2.926
 2869WAT      O 8848   8.771   0.549   8.344
 2869WAT     H1 8849   8.780   0.640   8.386
 2869WAT     H2 8850   8.771   0.480   8.416
 2870WAT      O 8851   6.857   7.023   4.861
 2870WAT     H1 8852   6.917   6.944   4.851
 2870WAT     H2 8853   6.819   7.025   4.954
 2871WAT      O 8854   2.813   1.717   7.136
 2871WAT     H1 8855   2.864   1.701   7.052
 2871WAT     H2 8856   2.797   1.815   7.147
 2872WAT      O 8857   0.868   9.067   0.916
 2872WAT     H1 8858   0.822   8.991   0.963
 2872WAT     H2 8859   0.948   9.033   0.867
 2873WAT      O 8860   2.627   4.258   9.802
 2873WAT     H1 8861   2.629   4.165   9.839
 2873WAT     H2 8862   2.715   4.302   9.818
 2874WAT      O 8863   0.332   0.904   2.336
 2874WAT     H1 8864   0.355   1.001   2.330
 2874WAT     H2 8865   0.412   0.849   2.312
 2875WAT      O 8866   0.869   1.745   2.348
 2875WAT     H1 8867   0.813   1.665   2.326
 2875WAT     H2 8868   0.812   1.816   2.388
 2876WAT      O 8869   1.014   7.833   6.088
 2876WAT     H1 8870   1.072   7.874   6.017
 2876WAT     H2 8871   1.072   7.796   6.161
 2877WAT      O 8872   8.959   6.215   9.502
 2877WAT     H1 8873   8.878   6.271   9.520
 2877WAT     H2 8874   8.931   6.131   9.455
 2878WAT      O 8875   3.639   4.087   4.908
 2878WAT     H1 8876   3.648   4.039   4.996
 2878WAT     H2 8877   3.589   4.172   4.922
 2879WAT      O 8878   6.125   1.283   9.525
 2879WAT     H1 8879   6.170   1.369   9.502
 2879WAT     H2 8880   6.190   1.222   9.571
 2880WAT      O 8881   3.807   4.005   9.146
 2880WAT     H1 8882   3.771   3.984   9.056
 2880WAT     H2 8883   3.893   4.056   9.137
 2881WAT      O 8884   3.416   4.218   6.058
 2881WAT     H1 8885   3.451   4.244   6.148
 2881WAT     H2 8886   3.482   4.157   6.013
 2882WAT      O 8887   9.576   7.852   4.273
 2882WAT     H1 8888   9.521   7.768   4.274
 2882WAT     H2 8889   9.584   7.888   4.366
 2883WAT      O 8890   0.959   0.515   5.729
 2883WAT     H1 8891   0.880   0.523   5.669
 2883WAT     H2 8892   1.031   0.463   5.683
 2884WAT      O 8893   0.241   4.987   1.903
 2884WAT     H1 8894   0.286   4.930   1.972
 2884WAT     H2 8895   0.234   5.081   1.938
 2885WAT      O 8896   1.447   3.305   8.066
 2885WAT     H1 8897   1.381   3.301   8.141
 2885WAT     H2 8898   1.404   3.344   7.985
 2886WAT      O 8899   4.879   2.541   9.608
 2886WAT     H1 8900   4.925   2.506   9.689
 2886WAT     H2 8901   4.789   2.496   9.599
 2887WAT      O 8902   3.449   9.321   1.525
 2887WAT     H1 8903   3.546   9.301   1.521
 2887WAT     H2 8904   3.419   9.328   1.620
 2888WAT      O 8905   2.719   3.429   6.681
 2888WAT     H1 8906   2.650   3.450   6.751
 2888WAT     H2 8907   2.758   3.515   6.647
 2889WAT      O 8908   8.456   9.161   0.037
 2889WAT     H1 8909   8.420   9.248   0.071
 2889WAT     H2 8910   8.448   9.091   0.108
 2890WAT      O 8911   8.839   0.334   8.843
 2890WAT     H1 8912   8.817   0.404   8.910
 2890WAT     H2 8913   8.813   0.244   8.878
 2891WAT      O 8914   3.099   2.283   5.636
 2891WAT     H1 8915   3.035   2.357   5.662
 2891WAT     H2 8916   3.079   2.202   5.690
 2892WAT      O 8917   5.538   3.903   7.793
 2892WAT     H1 8918   5.477   3.976   7.761
 2892WAT     H2 8919   5.548   3.910   7.892
 2893WAT      O 8920   8.337   9.271   6.308
 2893WAT     H1 8921   8.280   9.231   6.380
 2893WAT     H2 8922   8.400   9.202   6.273
 2894WAT      O 8923   4.432   0.370   1.060
 2894WAT     H1 8924   4.451   0.461   1.022
 2894WAT     H2 8925   4.355   0.329   1.010
 2895WAT      O 8926   1.856   5.153   1.287
 2895WAT     H1 8927   1.872   5.189   1.195
 2895WAT     H2 8928   1.757   5.143   1.301
 2896WAT      O 8929   0.431   5.367   2.836
 2896WAT     H1 8930   0.427   5.326   2.745
 2896WAT     H2 8931   0.340   5.397   2.863
 2897WAT      O 8932   2.520   0.493   3.079
 2897WAT     H1 8933   2.493   0.487   3.175
 2897WAT     H2 8934   2.595   0.558   3.069
 2898WAT      O 8935   1.194   2.145   5.100
 2898WAT     H1 8936   1.283   2.102   5.089
 2898WAT     H2 8937   1.205   2.242   5.119
 2899WAT      O 8938   5.888   1.806   8.107
 2899WAT     H1 8939   5.981   1.812   8.070
 2899WAT     H2 8940   5.832   1.748   8.047
 2900WAT      O 8941   5.713   8.968   5.250
 2900WAT     H1 8942   5.692   8.973   5.348
 2900WAT     H2 8943   5.694   9.056   5.207
 2901WAT      O 8944   3.064   7.293   5.167
 2901WAT     H1 8945   2.980   7.276   5.219
 2901WAT     H2 8946   3.084   7.391   5.169
 2902WAT      O 8947   9.123   0.523   5.531
 2902WAT     H1 8948   9.057   0.538   5.458
 2902WAT     H2 8949   9.103   0.436   5.577
 2903WAT      O 8950   0.584   0.950   3.902
 2903WAT     H1 8951   0.487   0.969   3.887
 2903WAT     H2 8952   0.605   0.857   3.874
 2904WAT      O 8953   1.607   1.568   4.244
 2904WAT     H1 8954   1.696   1.538   4.280
 2904WAT     H2 8955   1.589   1.521   4.158
 2905WAT      O 8956   2.900   2.406   0.610
 2905WAT     H1 8957   2.872   2.332   0.550
 2905WAT     H2 8958   2.966   2.464   0.563
 2906WAT      O 8959   2.441   3.820   0.184
 2906WAT     H1 8960   2.492   3.756   0.126
 2906WAT     H2 8961   2.437   3.784   0.278
 2907WAT      O 8962   8.232   6.668   2.507
 2907WAT     H1 8963   8.144   6.632   2.539
 2907WAT     H2 8964   8.301   6.595   2.508
 2908WAT      O 8965   3.866   2.108   8.287
 2908WAT     H1 8966   3.822   2.029   8.245
 2908WAT     H2 8967   3.796   2.167   8.327
 2909WAT      O 8968   2.599   0.100   8.066
 2909WAT     H1 8969   2.669   0.055   8.122
 2909WAT     H2 8970   2.612   0.076   7.970
 2910WAT      O 8971   6.806   1.237   6.704
 2910WAT     H1 8972   6.763   1.313   6.656
 2910WAT     H2 8973   6.741   1.198   6.770
 2911WAT      O 8974   2.554   1.489   2.930
 2911WAT     H1 8975   2.622   1.502   3.002
 2911WAT     H2 8976   2.474   1.545   2.950
 2912WAT      O 8977   9.520   7.056   8.333
 2912WAT     H1 8978   9.449   7.105   8.281
 2912WAT     H2 8979   9.601   7.114   8.341
 2913WAT      O 8980   8.409   9.799   9.613
 2913WAT     H1 8981   8.396   9.897   9.596
 2913WAT     H2 8982   8.467   9.787   9.694
 2914WAT      O 8983   9.586   3.727   3.140
 2914WAT     H1 8984   9.588   3.694   3.046
 2914WAT     H2 8985   9.678   3.724   3.178
 2915WAT      O 8986   3.073   9.043   2.388
 2915WAT     H1 8987   3.015   9.019   2.310
 2915WAT     H2 8988   3.081   8.965   2.450
 2916WAT      O 8989   5.002   3.436   8.770
 2916WAT     H1 8990   4.906   3.461   8.762
 2916WAT     H2 8991   5.034   3.454   8.863
 2917WAT      O 8992   5.899   0.341   5.071
 2917WAT     H1 8993   5.846   0.384   5.143
 2917WAT     H2 8994   5.985   0.391   5.059
 2918WAT      O 8995   2.946   7.226   0.262
 2918WAT     H1 8996   2.976   7.170   0.339
 2918WAT     H2 8997   3.026   7.266   0.217
 2919WAT      O 8998   4.043   5.420   5.680
 2919WAT     H1 8999   4.089   5.508   5.695
 2919WAT     H2 9000   4.111   5.347   5.679
 2920WAT      O 9001   9.375   5.329   1.654
 2920WAT     H1 9002   9.302   5.355   1.592
 2920WAT     H2 9003   9.365   5.378   1.741
 2921WAT      O 9004   2.805   8.452   9.344
 2921WAT     H1 9005   2.800   8.548   9.370
 2921WAT     H2 9006   2.825   8.396   9.425
 2922WAT      O 9007   2.284   6.649   1.740
 2922WAT     H1 9008   2.217   6.626   1.670
 2922WAT     H2 9009   2.271   6.588   1.819
 2923WAT      O 9010   2.927   5.818   7.866
 2923WAT     H1 9011   2.952   5.742   7.925
 2923WAT     H2 9012   3.005   5.880   7.856
 2924WAT      O 9013   4.643   4.120   1.813
 2924WAT     H1 9014   4.645   4.183   1.891
 2924WAT     H2 9015   4.737   4.096   1.787
 2925WAT      O 9016   0.383   8.230   1.199
 2925WAT     H1 9017   0.318   8.154   1.198
 2925WAT     H2 9018   0.337   8.313   1.231
 2926WAT      O 9019   8.886   1.222   5.542
 2926WAT     H1 9020   8.825   1.146   5.521
 2926WAT     H2 9021   8.865   1.258   5.633
 2927WAT      O 9022   1.861   7.376   7.285
 2927WAT     H1 9023   1.902   7.453   7.333
 2927WAT     H2 9024   1.862   7.394   7.186
 2928WAT      O 9025   1.900   6.065   8.028
 2928WAT     H1 9026   1.984   6.117   8.043
 2928WAT     H2 9027   1.823   6.114   8.068
 2929WAT      O 9028   7.182   4.301   2.976
 2929WAT     H1 9029   7.276   4.334   2.964
 2929WAT     H2 9030   7.144   4.340   3.060
 2930WAT      O 9031   2.133   0.450   9.185
 2930WAT     H1 9032   2.178   0.476   9.100
 2930WAT     H2 9033   2.064   0.379   9.166
 2931WAT      O 9034   9.309   5.233   6.619
 2931WAT     H1 9035   9.241   5.164   6.643
 2931WAT     H2 9036   9.335   5.221   6.523
 2932WAT      O 9037   6.174   2.624   3.241
 2932WAT     H1 9038   6.140   2.566   3.167
 2932WAT     H2 9039   6.100   2.683   3.273
 2933WAT      O 9040   8.082   1.830   8.946
 2933WAT     H1 9041   8.135   1.746   8.934
 2933WAT     H2 9042   8.141   1.902   8.983
 2934WAT      O 9043   5.077   4.147   0.036
 2934WAT     H1 9044   5.021   4.167   0.117
 2934WAT     H2 9045   5.127   4.062   0.050
 2935WAT      O 9046   1.631   8.944   0.057
 2935WAT     H1 9047   1.557   8.914   0.117
 2935WAT     H2 9048   1.670   9.030   0.092
 2936WAT      O 9049   3.115   2.936   3.533
 2936WAT     H1 9050   3.023   2.971   3.553
 2936WAT     H2 9051   3.112   2.876   3.453
 2937WAT      O 9052   2.204   8.546   2.264
 2937WAT     H1 9053   2.233   8.451   2.260
 2937WAT     H2 9054   2.283   8.606   2.249
 2938WAT      O 9055   9.757   5.790   5.354
 2938WAT     H1 9056   9.718   5.745   5.273
 2938WAT     H2 9057   9.789   5.720   5.418
 2939WAT      O 9058   1.495   1.705   6.993
 2939WAT     H1 9059   1.538   1.757   7.067
 2939WAT     H2 9060   1.404   1.742   6.975
 2940WAT      O 9061   7.704   4.301   3.201
 2940WAT     H1 9062   7.744   4.252   3.124
 2940WAT     H2 9063   7.660   4.384   3.169
 2941WAT      O 9064   0.650   5.771   9.579
 2941WAT     H1 9065   0.675   5.711   9.655
 2941WAT     H2 9066   0.663   5.723   9.492
 2942WAT      O 9067   8.943   6.580   5.452
 2942WAT     H1 9068   9.034   6.586   5.491
 2942WAT     H2 9069   8.949   6.546   5.358
 2943WAT      O 9070   7.962   4.367   5.296
 2943WAT     H1 9071   7.989   4.280   5.255
 2943WAT     H2 9072   7.912   4.349   5.381
 2944WAT      O 9073   3.883   1.865   0.395
 2944WAT     H1 9074   3.821   1.894   0.468
 2944WAT     H2 9075   3.859   1.773   0.365
 2945WAT      O 9076   5.036   5.498   3.868
 2945WAT     H1 9077   5.100   5.422   3.880
 2945WAT     H2 9078   4.991   5.491   3.780
 2946WAT      O 9079   1.656   1.697   3.633
 2946WAT     H1 9080   1.710   1.768   3.678
 2946WAT     H2 9081   1.563   1.696   3.670
 2947WAT      O 9082   7.843   1.719   7.500
 2947WAT     H1 9083   7.882   1.701   7.590
 2947WAT     H2 9084   7.874   1.650   7.436
 2948WAT      O 9085   4.603   6.837   2.550
 2948WAT     H1 9086   4.636   6.782   2.474
 2948WAT     H2 9087   4.519   6.885   2.523
 2949WAT      O 9088   6.127   0.842   6.757
 2949WAT     H1 9089   6.052   0.797   6.707
 2949WAT     H2 9090   6.211   0.836   6.703
 2950WAT      O 9091   1.755   2.009   5.956
 2950WAT     H1 9092   1.671   2.053   5.924
 2950WAT     H2 9093   1.820   2.002   5.880
 2951WAT      O 9094   8.930   5.606   2.355
 2951WAT     H1 9095   8.926   5.604   2.455
 2951WAT     H2 9096   9.013   5.560   2.324
 2952WAT      O 9097   6.299   2.649   9.157
 2952WAT     H1 9098   6.337   2.655   9.065
 2952WAT     H2 9099   6.371   2.623   9.221
 2953WAT      O 9100   4.736   5.204   3.026
 2953WAT     H1 9101   4.725   5.105   3.030
 2953WAT     H2 9102   4.659   5.248   3.073
 2954WAT      O 9103   4.964   1.520   8.913
 2954WAT     H1 9104   4.966   1.438   8.971
 2954WAT     H2 9105   5.054   1.563   8.913
 2955WAT      O 9106   5.544   6.201   5.213
 2955WAT     H1 9107   5.472   6.179   5.279
 2955WAT     H2 9108   5.628   6.225   5.263
 2956WAT      O 9109   4.432   0.956   3.580
 2956WAT     H1 9110   4.508   0.918   3.633
 2956WAT     H2 9111   4.466   1.029   3.521
 2957WAT      O 9112   6.175   9.237   8.117
 2957WAT     H1 9113   6.230   9.320   8.126
 2957WAT     H2 9114   6.129   9.237   8.028
 2958WAT      O 9115   1.494   9.464   4.860
 2958WAT     H1 9116   1.484   9.516   4.945
 2958WAT     H2 9117   1.545   9.379   4.879
 2959WAT      O 9118   6.493   5.570   2.585
 2959WAT     H1 9119   6.459   5.476   2.590
 2959WAT     H2 9120   6.547   5.582   2.501
 2960WAT      O 9121   1.477   8.087   1.150
 2960WAT     H1 9122   1.460   8.180   1.119
 2960WAT     H2 9123   1.415   8.024   1.103
 2961WAT      O 9124   0.677   6.437   0.035
 2961WAT     H1 9125   0.668   6.537   0.034
 2961WAT     H2 9126   0.613   6.398   0.101
 2962WAT      O 9127   7.913   2.611   7.066
 2962WAT     H1 9128   8.010   2.586   7.077
 2962WAT     H2 9129   7.868   2.545   7.006
 2963WAT      O 9130   3.322   6.748   8.619
 2963WAT     H1 9131   3.303   6.706   8.707
 2963WAT     H2 9132   3.251   6.816   8.598
 2964WAT      O 9133   1.212   1.455   7.980
 2964WAT     H1 9134   1.169   1.539   7.947
 2964WAT     H2 9135   1.304   1.476   8.012
 2965WAT      O 9136   0.264   7.565   2.858
 2965WAT     H1 9137   0.215   7.567   2.945
 2965WAT     H2 9138   0.305   7.475   2.845
 2966WAT      O 9139   4.353   9.360   8.258
 2966WAT     H1 9140   4.385   9.387   8.348
 2966WAT     H2 9141   4.253   9.351   8.259
 2967WAT      O 9142   3.016   8.662   1.201
 2967WAT     H1 9143   3.108   8.650   1.238
 2967WAT     H2 9144   3.018   8.729   1.127
 2968WAT      O 9145   7.522   2.285   4.104
 2968WAT     H1 9146   7.578   2.346   4.048
 2968WAT     H2 9147   7.579   2.210   4.137
 2969WAT      O 9148   6.341   8.792   6.771
 2969WAT     H1 9149   6.282   8.713   6.756
 2969WAT     H2 9150   6.284   8.873   6.788
 2970WAT      O 9151   7.239   0.985   7.765
 2970WAT     H1 9152   7.218   0.972   7.862
 2970WAT     H2 9153   7.172   0.935   7.710
 2971WAT      O 9154   3.349   7.166   0.859
 2971WAT     H1 9155   3.363   7.093   0.926
 2971WAT     H2 9156   3.253   7.169   0.831
 2972WAT      O 9157   9.229   3.835   8.022
 2972WAT     H1 9158   9.153   3.898   8.007
 2972WAT     H2 9159   9.309   3.886   8.052
 2973WAT      O 9160   7.597   4.815   4.468
 2973WAT     H1 9161   7.509   4.791   4.427
 2973WAT     H2 9162   7.594   4.801   4.566
 2974WAT      O 9163   4.286   9.399   2.739
 2974WAT     H1 9164   4.192   9.427   2.722
 2974WAT     H2 9165   4.337   9.475   2.779
 2975WAT      O 9166   6.984   6.021   0.799
 2975WAT     H1 9167   7.061   6.079   0.829
 2975WAT     H2 9168   6.909   6.080   0.767
 2976WAT      O 9169   8.936   2.718   0.774
 2976WAT     H1 9170   8.907   2.623   0.763
 2976WAT     H2 9171   8.878   2.763   0.842
 2977WAT      O 9172   2.525   6.148   1.985
 2977WAT     H1 9173   2.565   6.191   1.904
 2977WAT     H2 9174   2.546   6.050   1.984
 2978WAT      O 9175   4.504   0.094   8.112
 2978WAT     H1 9176   4.428   0.147   8.149
 2978WAT     H2 9177   4.525   0.018   8.172
 2979WAT      O 9178   4.019   9.648   9.839
 2979WAT     H1 9179   3.996   9.667   9.934
 2979WAT     H2 9180   3.977   9.562   9.811
 2980WAT      O 9181   1.474   8.131   9.279
 2980WAT     H1 9182   1.473   8.097   9.373
 2980WAT     H2 9183   1.380   8.144   9.247
 2981WAT      O 9184   0.950   7.980   9.764
 2981WAT     H1 9185   0.875   7.915   9.752
 2981WAT     H2 9186   1.016   7.944   9.829
 2982WAT      O 9187   0.933   3.066   4.602
 2982WAT     H1 9188   0.979   3.015   4.529
 2982WAT     H2 9189   0.859   3.121   4.563
 2983WAT      O 9190   4.326   2.484   1.252
 2983WAT     H1 9191   4.362   2.548   1.184
 2983WAT     H2 9192   4.237   2.515   1.283
 2984WAT      O 9193   3.606   1.325   9.542
 2984WAT     H1 9194   3.592   1.356   9.448
 2984WAT     H2 9195   3.626   1.405   9.600
 2985WAT      O 9196   6.363   0.165   8.756
 2985WAT     H1 9197   6.394   0.257   8.782
 2985WAT     H2 9198   6.442   0.110   8.726
 2986WAT      O 9199   7.775   5.520   9.013
 2986WAT     H1 9200   7.837   5.442   9.016
 2986WAT     H2 9201   7.760   5.547   8.918
 2987WAT      O 9202   1.385   9.258   0.450
 2987WAT     H1 9203   1.419   9.190   0.516
 2987WAT     H2 9204   1.304   9.302   0.487
 2988WAT      O 9205   1.214   4.683   2.477
 2988WAT     H1 9206   1.167   4.633   2.550
 2988WAT     H2 9207   1.281   4.623   2.434
 2989WAT      O 9208   6.184   0.855   4.158
 2989WAT     H1 9209   6.247   0.778   4.167
 2989WAT     H2 9210   6.149   0.859   4.064
 2990WAT      O 9211   4.005   3.589   8.229
 2990WAT     H1 9212   4.089   3.545   8.199
 2990WAT     H2 9213   3.931   3.522   8.233
 2991WAT      O 9214   2.775   4.212   4.403
 2991WAT     H1 9215   2.708   4.248   4.467
 2991WAT     H2 9216   2.790   4.114   4.420
 2992WAT      O 9217   3.956   2.970   7.530
 2992WAT     H1 9218   3.975   3.016   7.444
 2992WAT     H2 9219   3.868   3.002   7.566
 2993WAT      O 9220   5.124   9.692   5.306
 2993WAT     H1 9221   5.173   9.614   5.346
 2993WAT     H2 9222   5.160   9.777   5.343
 2994WAT      O 9223   9.522   8.459   7.605
 2994WAT     H1 9224   9.545   8.553   7.630
 2994WAT     H2 9225   9.505   8.406   7.688
 2995WAT      O 9226   5.631   6.670   7.667
 2995WAT     H1 9227   5.630   6.703   7.761
 2995WAT     H2 9228   5.700   6.598   7.658
 2996WAT      O 9229   5.503   4.506   9.645
 2996WAT     H1 9230   5.595   4.512   9.606
 2996WAT     H2 9231   5.486   4.589   9.699
 2997WAT      O 9232   7.690   6.100   6.362
 2997WAT     H1 9233   7.762   6.160   6.395
 2997WAT     H2 9234   7.649   6.051   6.440
 2998WAT      O 9235   2.910   5.787   6.673
 2998WAT     H1 9236   2.811   5.800   6.684
 2998WAT     H2 9237   2.935   5.695   6.702
 2999WAT      O 9238   5.665   4.421   5.106
 2999WAT     H1 9239   5.668   4.372   5.194
 2999WAT     H2 9240   5.599   4.377   5.045
 3000WAT      O 9241   2.084   7.973   6.159
 3000WAT     H1 9242   2.099   8.011   6.068
 3000WAT     H2 9243   2.161   7.913   6.183
 3001WAT      O 9244   4.903   6.847   2.420
 3001WAT     H1 9245   4.853   6.926   2.384
 3001WAT     H2 9246   4.932   6.866   2.514
 3002WAT      O 9247   4.194   4.453   3.479
 3002WAT     H1 9248   4.246   4.502   3.409
 3002WAT     H2 9249   4.241   4.461   3.567
 3003WAT      O 9250   8.847   9.742   4.139
 3003WAT     H1 9251   8.789   9.790   4.074
 3003WAT     H2 9252   8.943   9.756   4.113
 3004WAT      O 9253   6.482   0.420   1.892
 3004WAT     H1 9254   6.484   0.339   1.951
 3004WAT     H2 9255   6.395   0.424   1.843
 3005WAT      O 9256   8.737   7.009   1.592
 3005WAT     H1 9257   8.827   7.051   1.603
 3005WAT     H2 9258   8.732   6.927   1.650
 3006WAT      O 9259   4.355   9.564   7.891
 3006WAT     H1 9260   4.406   9.649   7.903
 3006WAT     H2 9261   4.286   9.557   7.963
 3007WAT      O 9262   4.499   8.344   8.380
 3007WAT     H1 9263   4.494   8.425   8.321
 3007WAT     H2 9264   4.502   8.373   8.475
 3008WAT      O 9265   3.404   7.084   1.547
 3008WAT     H1 9266   3.456   7.161   1.509
 3008WAT     H2 9267   3.465   7.028   1.603
 3009WAT      O 9268   1.218   0.520   2.806
 3009WAT     H1 9269   1.176   0.494   2.893
 3009WAT     H2 9270   1.150   0.567   2.750
 3010WAT      O 9271   0.029   0.404   4.468
 3010WAT     H1 9272  -0.032   0.402   4.546
 3010WAT     H2 9273   0.111   0.350   4.488
 3011WAT      O 9274   5.226   3.627   1.193
 3011WAT     H1 9275   5.259   3.533   1.192
 3011WAT     H2 9276   5.268   3.677   1.269
 3012WAT      O 9277   0.979   1.096   9.108
 3012WAT     H1 9278   0.922   1.169   9.145
 3012WAT     H2 9279   1.060   1.136   9.065
 3013WAT      O 9280   3.868   7.359   1.314
 3013WAT     H1 9281   3.854   7.268   1.275
 3013WAT     H2 9282   3.940   7.406   1.263
 3014WAT      O 9283   0.131   0.207   2.389
 3014WAT     H1 9284   0.053   0.249   2.436
 3014WAT     H2 9285   0.213   0.262   2.406
 3015WAT      O 9286   6.685   5.146   3.139
 3015WAT     H1 9287   6.750   5.075   3.111
 3015WAT     H2 9288   6.710   5.180   3.230
 3016WAT      O 9289   2.787   2.530   3.182
 3016WAT     H1 9290   2.835   2.572   3.260
 3016WAT     H2 9291   2.792   2.431   3.190
 3017WAT      O 9292   5.912   1.480   7.413
 3017WAT     H1 9293   5.847   1.405   7.400
 3017WAT     H2 9294   5.993   1.446   7.460
 3018WAT      O 9295   4.528   5.359   1.258
 3018WAT     H1 9296   4.591   5.284   1.238
 3018WAT     H2 9297   4.579   5.445   1.263
 3019WAT      O 9298   5.466   5.202   0.947
 3019WAT     H1 9299   5.542   5.264   0.930
 3019WAT     H2 9300   5.479   5.156   1.034
 3020WAT      O 9301   9.199   4.693   1.477
 3020WAT     H1 9302   9.130   4.727   1.542
 3020WAT     H2 9303   9.289   4.726   1.504
 3021WAT      O 9304   5.920   4.235   4.524
 3021WAT     H1 9305   5.930   4.167   4.597
 3021WAT     H2 9306   5.992   4.304   4.532
 3022WAT      O 9307   4.992   4.209   4.575
 3022WAT     H1 9308   4.958   4.121   4.541
 3022WAT     H2 9309   4.939   4.283   4.534
 3023WAT      O 9310   2.708   5.237   4.169
 3023WAT     H1 9311   2.712   5.322   4.115
 3023WAT     H2 9312   2.678   5.162   4.110
 3024WAT      O 9313   3.902   0.357   6.757
 3024WAT     H1 9314   3.853   0.271   6.770
 3024WAT     H2 9315   3.836   0.431   6.746
 3025WAT      O 9316   7.812   1.529   8.687
 3025WAT     H1 9317   7.800   1.604   8.752
 3025WAT     H2 9318   7.906   1.495   8.691
 3026WAT      O 9319   9.402   5.369   9.760
 3026WAT     H1 9320   9.447   5.379   9.672
 3026WAT     H2 9321   9.314   5.323   9.748
 3027WAT      O 9322   6.175   7.910   0.290
 3027WAT     H1 9323   6.179   8.003   0.255
 3027WAT     H2 9324   6.246   7.896   0.359
 3028WAT      O 9325   8.202   6.792   1.641
 3028WAT     H1 9326   8.221   6.890   1.653
 3028WAT     H2 9327   8.238   6.742   1.720
 3029WAT      O 9328   5.404   9.708   1.399
 3029WAT     H1 9329   5.312   9.672   1.384
 3029WAT     H2 9330   5.439   9.677   1.487
 3030WAT      O 9331   2.761   2.004   6.365
 3030WAT     H1 9332   2.844   1.962   6.328
 3030WAT     H2 9333   2.787   2.072   6.434
 3031WAT      O 9334   7.882   9.645   7.248
 3031WAT     H1 9335   7.944   9.607   7.317
 3031WAT     H2 9336   7.794   9.597   7.253
 3032WAT      O 9337   8.676   4.279   4.248
 3032WAT     H1 9338   8.658   4.212   4.320
 3032WAT     H2 9339   8.773   4.306   4.251
 3033WAT      O 9340   4.729   1.106   7.294
 3033WAT     H1 9341   4.742   1.061   7.206
 3033WAT     H2 9342   4.687   1.043   7.359
 3034WAT      O 9343   9.185   8.264   4.732
 3034WAT     H1 9344   9.221   8.355   4.707
 3034WAT     H2 9345   9.172   8.260   4.831
 3035WAT      O 9346   4.848   2.374   7.277
 3035WAT     H1 9347   4.941   2.357   7.310
 3035WAT     H2 9348   4.850   2.441   7.202
 3036WAT      O 9349   6.546   3.197   2.673
 3036WAT     H1 9350   6.509   3.184   2.581
 3036WAT     H2 9351   6.482   3.252   2.727
 3037WAT      O 9352   4.374   5.550   1.923
 3037WAT     H1 9353   4.400   5.496   2.003
 3037WAT     H2 9354   4.275   5.562   1.921
 3038WAT      O 9355   6.400   2.389   4.502
 3038WAT     H1 9356   6.476   2.327   4.483
 3038WAT     H2 9357   6.365   2.371   4.594
 3039WAT      O 9358   6.686   3.700   1.333
 3039WAT     H1 9359   6.642   3.640   1.266
 3039WAT     H2 9360   6.624   3.775   1.355
 3040WAT      O 9361   7.798   5.985   6.146
 3040WAT     H1 9362   7.758   5.999   6.237
 3040WAT     H2 9363   7.742   6.031   6.078
 3041WAT      O 9364   2.716   2.565   5.087
 3041WAT     H1 9365   2.756   2.503   5.154
 3041WAT     H2 9366   2.743   2.659   5.108
 3042WAT      O 9367   7.431   3.143   2.843
 3042WAT     H1 9368   7.528   3.162   2.863
 3042WAT     H2 9369   7.374   3.186   2.913
 3043WAT      O 9370   4.883   0.420   5.265
 3043WAT     H1 9371   4.957   0.481   5.292
 3043WAT     H2 9372   4.827   0.466   5.195
 3044WAT      O 9373   1.450   0.030   7.343
 3044WAT     H1 9374   1.355   0.060   7.351
 3044WAT     H2 9375   1.484   0.002   7.432
 3045WAT      O 9376   7.434   6.304   9.170
 3045WAT     H1 9377   7.410   6.220   9.122
 3045WAT     H2 9378   7.452   6.284   9.267
 3046WAT      O 9379   2.639   7.732   7.899
 3046WAT     H1 9380   2.644   7.637   7.869
 3046WAT     H2 9381   2.558   7.745   7.956
 3047WAT      O 9382   5.341   1.928   2.576
 3047WAT     H1 9383   5.323   1.925   2.478
 3047WAT     H2 9384   5.253   1.929   2.625
 3048WAT      O 9385   3.721   4.852   3.021
 3048WAT     H1 9386   3.776   4.869   2.940
 3048WAT     H2 9387   3.711   4.936   3.074
 3049WAT      O 9388   4.896   8.919   9.253
 3049WAT     H1 9389   4.837   8.878   9.323
 3049WAT     H2 9390   4.878   9.017   9.247
 3050WAT      O 9391   8.054   6.905   5.724
 3050WAT     H1 9392   8.134   6.850   5.750
 3050WAT     H2 9393   7.971   6.864   5.762
 3051WAT      O 9394   7.067   4.383   5.845
 3051WAT     H1 9395   6.977   4.368   5.805
 3051WAT     H2 9396   7.113   4.295   5.860
 3052WAT      O 9397   0.938   3.406   1.369
 3052WAT     H1 9398   0.906   3.480   1.309
 3052WAT     H2 9399   1.038   3.410   1.377
 3053WAT      O 9400   5.595   3.511   7.493
 3053WAT     H1 9401   5.666   3.573   7.460
 3053WAT     H2 9402   5.587   3.433   7.432
 3054WAT      O 9403   4.347   5.250   5.632
 3054WAT     H1 9404   4.369   5.335   5.681
 3054WAT     H2 9405   4.427   5.222   5.578
 3055WAT      O 9406   1.140   4.619   4.285
 3055WAT     H1 9407   1.071   4.625   4.213
 3055WAT     H2 9408   1.229   4.647   4.248
 3056WAT      O 9409   2.898   5.068   8.429
 3056WAT     H1 9410   2.852   4.991   8.473
 3056WAT     H2 9411   2.967   5.034   8.365
 3057WAT      O 9412   6.154   9.634   7.065
 3057WAT     H1 9413   6.244   9.671   7.041
 3057WAT     H2 9414   6.143   9.544   7.023
 3058WAT      O 9415   3.157   7.540   8.192
 3058WAT     H1 9416   3.183   7.592   8.111
 3058WAT     H2 9417   3.108   7.457   8.165
 3059WAT      O 9418   0.857   3.636   0.257
 3059WAT     H1 9419   0.770   3.617   0.302
 3059WAT     H2 9420   0.875   3.735   0.258
 3060WAT      O 9421   1.963   0.858   5.319
 3060WAT     H1 9422   1.990   0.891   5.410
 3060WAT     H2 9423   2.019   0.778   5.295
 3061WAT      O 9424   5.229   9.569   0.808
 3061WAT     H1 9425   5.314   9.613   0.777
 3061WAT     H2 9426   5.236   9.549   0.905
 3062WAT      O 9427   8.263   4.364   3.971
 3062WAT     H1 9428   8.196   4.319   4.030
 3062WAT     H2 9429   8.351   4.369   4.019
 3063WAT      O 9430   8.019   9.119   8.739
 3063WAT     H1 9431   7.983   9.125   8.832
 3063WAT     H2 9432   7.945   9.135   8.674
 3064WAT      O 9433   8.947   1.854   2.591
 3064WAT     H1 9434   8.927   1.900   2.504
 3064WAT     H2 9435   8.901   1.903   2.665
 3065WAT      O 9436   1.356   7.315   6.464
 3065WAT     H1 9437   1.378   7.294   6.368
 3065WAT     H2 9438   1.434   7.291   6.522
 3066WAT      O 9439   3.648   4.195   0.690
 3066WAT     H1 9440   3.663   4.177   0.787
 3066WAT     H2 9441   3.705   4.272   0.661
 3067WAT      O 9442   6.863   2.665   8.362
 3067WAT     H1 9443   6.891   2.657   8.267
 3067WAT     H2 9444   6.823   2.579   8.393
 3068WAT      O 9445   9.022   1.691   9.807
 3068WAT     H1 9446   8.978   1.647   9.885
 3068WAT     H2 9447   8.954   1.711   9.737
 3069WAT      O 9448   3.800   3.692   0.609
 3069WAT     H1 9449   3.723   3.638   0.644
 3069WAT     H2 9450   3.766   3.779   0.572
 3070WAT      O 9451   0.675   3.504   3.179
 3070WAT     H1 9452   0.582   3.495   3.142
 3070WAT     H2 9453   0.734   3.546   3.109
 3071WAT      O 9454   5.191   7.745   8.186
 3071WAT     H1 9455   5.261   7.729   8.257
 3071WAT     H2 9456   5.233   7.791   8.108
 3072WAT      O 9457   4.863   4.835   7.405
 3072WAT     H1 9458   4.785   4.887   7.438
 3072WAT     H2 9459   4.869   4.843   7.305
 3073WAT      O 9460   0.043   2.027   3.302
 3073WAT     H1 9461   0.045   1.975   3.387
 3073WAT     H2 9462   0.014   2.121   3.321
 3074WAT      O 9463   7.386   7.410   3.300
 3074WAT     H1 9464   7.301   7.399   3.248
 3074WAT     H2 9465   7.368   7.460   3.384
 3075WAT      O 9466   1.412   4.097   5.030
 3075WAT     H1 9467   1.484   4.091   4.961
 3075WAT     H2 9468   1.323   4.101   4.986
 3076WAT      O 9469   6.118   8.122   1.636
 3076WAT     H1 9470   6.107   8.065   1.554
 3076WAT     H2 9471   6.092   8.216   1.615
 3077WAT      O 9472   5.014   7.365   9.394
 3077WAT     H1 9473   4.987   7.412   9.478
 3077WAT     H2 9474   4.994   7.268   9.402
 3078WAT      O 9475   2.674   7.884   6.119
 3078WAT     H1 9476   2.578   7.870   6.092
 3078WAT     H2 9477   2.733   7.825   6.064
 3079WAT      O 9478   0.820   4.677   4.811
 3079WAT     H1 9479   0.895   4.640   4.757
 3079WAT     H2 9480   0.823   4.777   4.809
 3080WAT      O 9481   1.468   9.646   5.884
 3080WAT     H1 9482   1.556   9.686   5.859
 3080WAT     H2 9483   1.468   9.549   5.860
 3081WAT      O 9484   4.490   0.850   8.272
 3081WAT     H1 9485   4.470   0.812   8.181
 3081WAT     H2 9486   4.411   0.837   8.331
 3082WAT      O 9487   7.885   0.208   4.308
 3082WAT     H1 9488   7.789   0.201   4.335
 3082WAT     H2 9489   7.916   0.119   4.274
 3083WAT      O 9490   0.778   4.395   1.147
 3083WAT     H1 9491   0.731   4.308   1.164
 3083WAT     H2 9492   0.865   4.377   1.102
 3084WAT      O 9493   9.034   8.788   5.914
 3084WAT     H1 9494   9.071   8.814   5.824
 3084WAT     H2 9495   9.101   8.731   5.962
 3085WAT      O 9496   6.799   9.592   8.637
 3085WAT     H1 9497   6.845   9.618   8.722
 3085WAT     H2 9498   6.728   9.659   8.616
 3086WAT      O 9499   6.225   5.917   6.996
 3086WAT     H1 9500   6.246   5.838   6.939
 3086WAT     H2 9501   6.126   5.934   6.994
 3087WAT      O 9502   9.233   0.469   4.698
 3087WAT     H1 9503   9.228   0.487   4.797
 3087WAT     H2 9504   9.162   0.403   4.673
 3088WAT      O 9505   1.638   2.162   7.538
 3088WAT     H1 9506   1.696   2.129   7.464
 3088WAT     H2 9507   1.542   2.139   7.519
 3089WAT      O 9508   1.377   5.006   4.071
 3089WAT     H1 9509   1.325   4.923   4.053
 3089WAT     H2 9510   1.322   5.086   4.048
 3090WAT      O 9511   0.956   3.721   7.349
 3090WAT     H1 9512   0.889   3.705   7.276
 3090WAT     H2 9513   0.909   3.732   7.436
 3091WAT      O 9514   0.343   7.876   8.519
 3091WAT     H1 9515   0.305   7.965   8.543
 3091WAT     H2 9516   0.293   7.837   8.441
 3092WAT      O 9517   7.298   9.223   3.807
 3092WAT     H1 9518   7.345   9.250   3.891
 3092WAT     H2 9519   7.340   9.140   3.770
 3093WAT      O 9520   3.815   5.281   7.372
 3093WAT     H1 9521   3.894   5.337   7.397
 3093WAT     H2 9522   3.834   5.186   7.395
 3094WAT      O 9523   3.276   0.886   3.941
 3094WAT     H1 9524   3.243   0.793   3.958
 3094WAT     H2 9525   3.372   0.882   3.913
 3095WAT      O 9526   1.875   3.633   6.997
 3095WAT     H1 9527   1.830   3.697   6.935
 3095WAT     H2 9528   1.827   3.546   6.995
 3096WAT      O 9529   3.583   5.711   5.322
 3096WAT     H1 9530   3.677   5.707   5.286
 3096WAT     H2 9531   3.552   5.619   5.343
 3097WAT      O 9532   7.074   4.178   5.239
 3097WAT     H1 9533   7.146   4.180   5.308
 3097WAT     H2 9534   7.113   4.203   5.150
 3098WAT      O 9535   0.927   1.593   2.848
 3098WAT     H1 9536   0.847   1.627   2.898
 3098WAT     H2 9537   0.952   1.658   2.776
 3099WAT      O 9538   7.241   1.083   3.453
 3099WAT     H1 9539   7.230   1.178   3.482
 3099WAT     H2 9540   7.170   1.060   3.387
 3100WAT      O 9541   6.287   5.191   1.354
 3100WAT     H1 9542   6.233   5.232   1.427
 3100WAT     H2 9543   6.296   5.093   1.371
 3101WAT      O 9544   0.799   1.927   8.923
 3101WAT     H1 9545   0.727   1.962   8.984
 3101WAT     H2 9546   0.786   1.965   8.831
 3102WAT      O 9547   7.106   5.447   6.896
 3102WAT     H1 9548   7.034   5.452   6.827
 3102WAT     H2 9549   7.169   5.524   6.886
 3103WAT      O 9550   3.693   1.004   5.424
 3103WAT     H1 9551   3.730   0.949   5.498
 3103WAT     H2 9552   3.768   1.039   5.367
 3104WAT      O 9553   0.461   5.242   3.453
 3104WAT     H1 9554   0.500   5.330   3.429
 3104WAT     H2 9555   0.362   5.252   3.464
 3105WAT      O 9556   4.467   3.408   1.370
 3105WAT     H1 9557   4.564   3.385   1.362
 3105WAT     H2 9558   4.450   3.496   1.324
 3106WAT      O 9559   3.607   1.618   8.324
 3106WAT     H1 9560   3.575   1.541   8.269
 3106WAT     H2 9561   3.675   1.670   8.273
 3107WAT      O 9562   2.281   1.442   3.200
 3107WAT     H1 9563   2.241   1.366   3.250
 3107WAT     H2 9564   2.210   1.510   3.180
 3108WAT      O 9565   3.537   3.166   3.067
 3108WAT     H1 9566   3.635   3.181   3.053
 3108WAT     H2 9567   3.496   3.248   3.107
 3109WAT      O 9568   3.935   1.634   9.726
 3109WAT     H1 9569   4.017   1.607   9.775
 3109WAT     H2 9570   3.903   1.723   9.760
 3110WAT      O 9571   3.060   6.641   2.861
 3110WAT     H1 9572   3.125   6.613   2.931
 3110WAT     H2 9573   3.094   6.612   2.771
 3111WAT      O 9574   9.436   7.739   5.139
 3111WAT     H1 9575   9.451   7.817   5.078
 3111WAT     H2 9576   9.482   7.757   5.226
 3112WAT      O 9577   8.999   4.221   0.154
 3112WAT     H1 9578   8.927   4.167   0.197
 3112WAT     H2 9579   9.056   4.264   0.224
 3113WAT      O 9580   4.884   3.401   3.279
 3113WAT     H1 9581   4.981   3.375   3.273
 3113WAT     H2 9582   4.871   3.465   3.355
 3114WAT      O 9583   8.769   4.678   6.524
 3114WAT     H1 9584   8.812   4.630   6.448
 3114WAT     H2 9585   8.828   4.674   6.605
 3115WAT      O 9586   8.664   7.131   8.091
 3115WAT     H1 9587   8.706   7.040   8.089
 3115WAT     H2 9588   8.565   7.122   8.094
 3116WAT      O 9589   8.683   6.318   5.890
 3116WAT     H1 9590   8.751   6.255   5.851
 3116WAT     H2 9591   8.691   6.407   5.845
 3117WAT      O 9592   8.713   5.994   4.235
 3117WAT     H1 9593   8.740   5.996   4.139
 3117WAT     H2 9594   8.695   5.899   4.262
 3118WAT      O 9595   4.470   3.474   3.030
 3118WAT     H1 9596   4.435   3.529   2.954
 3118WAT     H2 9597   4.563   3.443   3.009
 3119WAT      O 9598   6.317   4.071   9.381
 3119WAT     H1 9599   6.223   4.096   9.404
 3119WAT     H2 9600   6.360   4.027   9.460
 3120WAT      O 9601   5.545   2.133   4.535
 3120WAT     H1 9602   5.573   2.222   4.499
 3120WAT     H2 9603   5.625   2.087   4.575
 3121WAT      O 9604   0.370   7.736   9.725
 3121WAT     H1 9605   0.436   7.661   9.716
 3121WAT     H2 9606   0.284   7.701   9.761
 3122WAT      O 9607   0.809   4.453   7.482
 3122WAT     H1 9608   0.814   4.463   7.582
 3122WAT     H2 9609   0.719   4.418   7.457
 3123WAT      O 9610   8.988   4.241   5.536
 3123WAT     H1 9611   8.890   4.260   5.525
 3123WAT     H2 9612   9.027   4.216   5.447
 3124WAT      O 9613   9.316   5.949   7.338
 3124WAT     H1 9614   9.305   6.018   7.410
 3124WAT     H2 9615   9.322   5.859   7.380
 3125WAT      O 9616   8.636   1.600   5.219
 3125WAT     H1 9617   8.639   1.665   5.143
 3125WAT     H2 9618   8.595   1.514   5.187
 3126WAT      O 9619   4.857   6.977   3.268
 3126WAT     H1 9620   4.817   7.006   3.356
 3126WAT     H2 9621   4.895   6.885   3.277
 3127WAT      O 9622   6.949   2.036   4.542
 3127WAT     H1 9623   7.023   2.044   4.474
 3127WAT     H2 9624   6.943   1.941   4.574
 3128WAT      O 9625   4.941   1.200   5.589
 3128WAT     H1 9626   4.920   1.149   5.505
 3128WAT     H2 9627   4.978   1.138   5.658
 3129WAT      O 9628   1.588   7.938   2.087
 3129WAT     H1 9629   1.577   7.926   2.186
 3129WAT     H2 9630   1.503   7.912   2.041
 3130WAT      O 9631   2.186   6.663   0.624
 3130WAT     H1 9632   2.098   6.691   0.663
 3130WAT     H2 9633   2.211   6.726   0.550
 3131WAT      O 9634   8.796   2.668   8.109
 3131WAT     H1 9635   8.797   2.660   8.209
 3131WAT     H2 9636   8.889   2.682   8.076
 3132WAT      O 9637   8.902   7.360   2.443
 3132WAT     H1 9638   8.867   7.310   2.364
 3132WAT     H2 9639   9.002   7.353   2.444
 3133WAT      O 9640   7.356   3.165   0.633
 3133WAT     H1 9641   7.432   3.228   0.645
 3133WAT     H2 9642   7.351   3.104   0.712
 3134WAT      O 9643   0.619   1.908   1.533
 3134WAT     H1 9644   0.545   1.902   1.600
 3134WAT     H2 9645   0.675   1.989   1.551
 3135WAT      O 9646   7.916   6.084   1.880
 3135WAT     H1 9647   7.849   6.140   1.831
 3135WAT     H2 9648   7.871   6.002   1.915
 3136WAT      O 9649   7.806   9.149   7.869
 3136WAT     H1 9650   7.848   9.239   7.853
 3136WAT     H2 9651   7.738   9.131   7.799
 3137WAT      O 9652   6.393   7.539   2.696
 3137WAT     H1 9653   6.320   7.471   2.699
 3137WAT     H2 9654   6.356   7.629   2.721
 3138WAT      O 9655   2.926   7.096   9.806
 3138WAT     H1 9656   2.865   7.153   9.863
 3138WAT     H2 9657   2.941   7.142   9.719
 3139WAT      O 9658   2.043   6.648   3.785
 3139WAT     H1 9659   2.142   6.644   3.769
 3139WAT     H2 9660   2.025   6.682   3.877
 3140WAT      O 9661   7.413   2.245   4.682
 3140WAT     H1 9662   7.333   2.190   4.657
 3140WAT     H2 9663   7.491   2.218   4.625
 3141WAT      O 9664   2.785   8.402   5.338
 3141WAT     H1 9665   2.711   8.468   5.351
 3141WAT     H2 9666   2.873   8.448   5.351
 3142WAT      O 9667   9.005   9.793   7.331
 3142WAT     H1 9668   8.951   9.834   7.258
 3142WAT     H2 9669   9.038   9.704   7.302
 3143WAT      O 9670   2.324   6.613   9.335
 3143WAT     H1 9671   2.326   6.520   9.373
 3143WAT     H2 9672   2.235   6.629   9.292
 3144WAT      O 9673   8.075   6.800   7.040
 3144WAT     H1 9674   8.149   6.858   7.006
 3144WAT     H2 9675   8.019   6.770   6.963
 3145WAT      O 9676   7.202   1.082   0.200
 3145WAT     H1 9677   7.106   1.107   0.211
 3145WAT     H2 9678   7.220   1.060   0.104
 3146WAT      O 9679   1.423   6.915   4.939
 3146WAT     H1 9680   1.373   6.865   4.868
 3146WAT     H2 9681   1.474   6.850   4.996
 3147WAT      O 9682   4.644   3.754   6.042
 3147WAT     H1 9683   4.650   3.809   6.125
 3147WAT     H2 9684   4.736   3.739   6.006
 3148WAT      O 9685   4.758   3.761   3.252
 3148WAT     H1 9686   4.665   3.730   3.234
 3148WAT     H2 9687   4.754   3.853   3.292
 3149WAT      O 9688   3.699   4.412   5.580
 3149WAT     H1 9689   3.626   4.346   5.561
 3149WAT     H2 9690   3.673   4.471   5.655
 3150WAT      O 9691   3.858   3.491   6.102
 3150WAT     H1 9692   3.790   3.425   6.069
 3150WAT     H2 9693   3.878   3.473   6.198
 3151WAT      O 9694   6.465   3.823   2.591
 3151WAT     H1 9695   6.484   3.745   2.649
 3151WAT     H2 9696   6.464   3.794   2.495
 3152WAT      O 9697   6.747   9.396   2.858
 3152WAT     H1 9698   6.835   9.439   2.837
 3152WAT     H2 9699   6.762   9.300   2.883
 3153WAT      O 9700   1.169   0.193   6.042
 3153WAT     H1 9701   1.186   0.290   6.063
 3153WAT     H2 9702   1.178   0.178   5.943
 3154WAT      O 9703   5.308   7.120   7.753
 3154WAT     H1 9704   5.291   7.087   7.845
 3154WAT     H2 9705   5.393   7.080   7.718
 3155WAT      O 9706   0.293   6.237   3.983
 3155WAT     H1 9707   0.279   6.149   3.938
 3155WAT     H2 9708   0.312   6.308   3.914
 3156WAT      O 9709   8.931   4.879   6.909
 3156WAT     H1 9710   9.011   4.939   6.908
 3156WAT     H2 9711   8.849   4.932   6.887
 3157WAT      O 9712   8.635   7.789   4.158
 3157WAT     H1 9713   8.653   7.845   4.239
 3157WAT     H2 9714   8.546   7.744   4.167
 3158WAT      O 9715   0.722   1.412   9.595
 3158WAT     H1 9716   0.801   1.358   9.567
 3158WAT     H2 9717   0.682   1.457   9.514
 3159WAT      O 9718   2.141   8.519   1.812
 3159WAT     H1 9719   2.148   8.420   1.820
 3159WAT     H2 9720   2.205   8.552   1.743
 3160WAT      O 9721   3.114   4.351   0.251
 3160WAT     H1 9722   3.163   4.401   0.180
 3160WAT     H2 9723   3.159   4.263   0.267
 3161WAT      O 9724   1.097   4.010   9.609
 3161WAT     H1 9725   1.195   4.004   9.629
 3161WAT     H2 9726   1.078   4.094   9.558
 3162WAT      O 9727   1.834   8.360   5.448
 3162WAT     H1 9728   1.918   8.396   5.407
 3162WAT     H2 9729   1.779   8.316   5.378
 3163WAT      O 9730   1.686   0.080   9.867
 3163WAT     H1 9731   1.687   0.075   9.967
 3163WAT     H2 9732   1.770   0.040   9.830
 3164WAT      O 9733   3.580   0.384   9.235
 3164WAT     H1 9734   3.614   0.300   9.278
 3164WAT     H2 9735   3.489   0.404   9.271
 3165WAT      O 9736   2.473   0.824   0.990
 3165WAT     H1 9737   2.477   0.731   1.026
 3165WAT     H2 9738   2.563   0.867   0.997
 3166WAT      O 9739   3.915   9.508   2.900
 3166WAT     H1 9740   3.899   9.418   2.939
 3166WAT     H2 9741   3.940   9.572   2.972
 3167WAT      O 9742   1.914   3.823   4.204
 3167WAT     H1 9743   1.938   3.782   4.116
 3167WAT     H2 9744   1.815   3.842   4.206
 3168WAT      O 9745   6.205   3.946   6.910
 3168WAT     H1 9746   6.178   3.925   6.816
 3168WAT     H2 9747   6.293   3.995   6.910
 3169WAT      O 9748   1.752   6.615   6.679
 3169WAT     H1 9749   1.838   6.596   6.726
 3169WAT     H2 9750   1.743   6.714   6.666
 3170WAT      O 9751   0.194   6.457   9.592
 3170WAT     H1 9752   0.282   6.447   9.546
 3170WAT     H2 9753   0.208   6.474   9.689
 3171WAT      O 9754   7.194   4.052   3.389
 3171WAT     H1 9755   7.232   4.035   3.480
 3171WAT     H2 9756   7.108   4.101   3.397
 3172WAT      O 9757   9.874   8.726   1.515
 3172WAT     H1 9758   9.859   8.696   1.421
 3172WAT     H2 9759   9.907   8.820   1.516
 3173WAT      O 9760   7.476   2.315   1.716
 3173WAT     H1 9761   7.380   2.334   1.700
 3173WAT     H2 9762   7.499   2.337   1.811
 3174WAT      O 9763   0.746   2.200   7.091
 3174WAT     H1 9764   0.802   2.276   7.059
 3174WAT     H2 9765   0.802   2.117   7.097
 3175WAT      O 9766   9.054   9.618   1.883
 3175WAT     H1 9767   9.015   9.534   1.847
 3175WAT     H2 9768   9.103   9.599   1.968
 3176WAT      O 9769   7.158   8.885   2.310
 3176WAT     H1 9770   7.233   8.902   2.246
 3176WAT     H2 9771   7.100   8.811   2.274
 3177WAT      O 9772   5.758   5.839   0.998
 3177WAT     H1 9773   5.830   5.848   1.067
 3177WAT     H2 9774   5.799   5.836   0.907
 3178WAT      O 9775   0.121   8.753   8.097
 3178WAT     H1 9776   0.167   8.666   8.116
 3178WAT     H2 9777   0.022   8.741   8.106
 3179WAT      O 9778   5.246   0.296   3.290
 3179WAT     H1 9779   5.257   0.396   3.288
 3179WAT     H2 9780   5.233   0.266   3.385
 3180WAT      O 9781   4.855   5.591   0.410
 3180WAT     H1 9782   4.926   5.652   0.376
 3180WAT     H2 9783   4.786   5.578   0.339
 3181WAT      O 9784   6.971   2.393   1.251
 3181WAT     H1 9785   6.928   2.475   1.289
 3181WAT     H2 9786   7.018   2.417   1.166
 3182WAT      O 9787   0.257   4.098   3.408
 3182WAT     H1 9788   0.182   4.110   3.472
 3182WAT     H2 9789   0.328   4.041   3.450
 3183WAT      O 9790   1.826   8.984   7.435
 3183WAT     H1 9791   1.847   8.960   7.530
 3183WAT     H2 9792   1.828   8.902   7.379
 3184WAT      O 9793   7.077   9.546   7.991
 3184WAT     H1 9794   7.054   9.524   7.896
 3184WAT     H2 9795   7.111   9.640   7.996
 3185WAT      O 9796   9.666   7.336   0.308
 3185WAT     H1 9797   9.763   7.359   0.306
 3185WAT     H2 9798   9.612   7.420   0.295
 3186WAT      O 9799   1.059   4.380   4.396
 3186WAT     H1 9800   1.092   4.463   4.351
 3186WAT     H2 9801   0.960   4.384   4.406
 3187WAT      O 9802   0.036   3.874   6.566
 3187WAT     H1 9803  -0.009   3.913   6.486
 3187WAT     H2 9804  -0.032   3.825   6.621
 3188WAT      O 9805   4.265   5.755   4.948
 3188WAT     H1 9806   4.224   5.674   4.990
 3188WAT     H2 9807   4.364   5.753   4.961
 3189WAT      O 9808   0.860   6.332   1.692
 3189WAT     H1 9809   0.767   6.343   1.658
 3189WAT     H2 9810   0.887   6.236   1.686
 3190WAT      O 9811   3.434   5.100   9.174
 3190WAT     H1 9812   3.474   5.149   9.097
 3190WAT     H2 9813   3.470   5.136   9.260
 3191WAT      O 9814   2.902   6.095   8.698
 3191WAT     H1 9815   2.909   6.179   8.751
 3191WAT     H2 9816   2.843   6.030   8.746
 3192WAT      O 9817   2.303   7.635   5.470
 3192WAT     H1 9818   2.213   7.597   5.493
 3192WAT     H2 9819   2.327   7.608   5.377
 3193WAT      O 9820   1.418   5.098   0.458
 3193WAT     H1 9821   1.471   5.013   0.472
 3193WAT     H2 9822   1.480   5.171   0.428
 3194WAT      O 9823   4.202   8.463   8.946
 3194WAT     H1 9824   4.298   8.460   8.920
 3194WAT     H2 9825   4.192   8.432   9.041
 3195WAT      O 9826   0.906   7.845   7.023
 3195WAT     H1 9827   0.961   7.912   6.974
 3195WAT     H2 9828   0.853   7.891   7.094
 3196WAT      O 9829   1.574   5.719   6.269
 3196WAT     H1 9830   1.547   5.695   6.362
 3196WAT     H2 9831   1.674   5.720   6.263
 3197WAT      O 9832   3.314   4.887   3.184
 3197WAT     H1 9833   3.284   4.807   3.133
 3197WAT     H2 9834   3.270   4.888   3.274
 3198WAT      O 9835   9.802   2.007   7.633
 3198WAT     H1 9836   9.705   1.984   7.624
 3198WAT     H2 9837   9.854   1.961   7.561
 3199WAT      O 9838   9.095   0.108   6.520
 3199WAT     H1 9839   9.104   0.170   6.598
 3199WAT     H2 9840   9.014   0.132   6.467
 3200WAT      O 9841   3.253   3.789   2.685
 3200WAT     H1 9842   3.229   3.885   2.700
 3200WAT     H2 9843   3.173   3.731   2.706
 3201WAT      O 9844   9.333   8.233   1.824
 3201WAT     H1 9845   9.242   8.261   1.855
 3201WAT     H2 9846   9.392   8.313   1.815
 3202WAT      O 9847   6.339   5.506   1.959
 3202WAT     H1 9848   6.250   5.537   1.993
 3202WAT     H2 9849   6.378   5.578   1.901
 3203WAT      O 9850   1.769   8.419   8.774
 3203WAT     H1 9851   1.678   8.453   8.752
 3203WAT     H2 9852   1.764   8.363   8.856
 3204WAT      O 9853   9.467   6.414   3.323
 3204WAT     H1 9854   9.378   6.458   3.309
 3204WAT     H2 9855   9.456   6.336   3.385
 3205WAT      O 9856   1.491   6.576   5.292
 3205WAT     H1 9857   1.398   6.588   5.328
 3205WAT     H2 9858   1.555   6.627   5.347
 3206WAT      O 9859   0.927   8.425   4.842
 3206WAT     H1 9860   0.959   8.425   4.747
 3206WAT     H2 9861   0.827   8.434   4.842
 3207WAT      O 9862   2.385   7.555   4.006
 3207WAT     H1 9863   2.428   7.582   3.920
 3207WAT     H2 9864   2.303   7.611   4.021
 3208WAT      O 9865   2.946   1.990   6.931
 3208WAT     H1 9866   2.892   1.928   6.874
 3208WAT     H2 9867   3.007   2.044   6.873
 3209WAT      O 9868   2.361   9.598   0.540
 3209WAT     H1 9869   2.367   9.680   0.597
 3209WAT     H2 9870   2.266   9.584   0.511
 3210WAT      O 9871   3.162   8.449   2.080
 3210WAT     H1 9872   3.136   8.408   1.992
 3210WAT     H2 9873   3.081   8.459   2.137
 3211WAT      O 9874   4.902   2.083   4.409
 3211WAT     H1 9875   4.999   2.110   4.405
 3211WAT     H2 9876   4.854   2.123   4.331
 3212WAT      O 9877   3.042   1.146   6.777
 3212WAT     H1 9878   3.109   1.163   6.849
 3212WAT     H2 9879   2.968   1.212   6.784
 3213WAT      O 9880   8.500   6.712   0.598
 3213WAT     H1 9881   8.594   6.678   0.603
 3213WAT     H2 9882   8.463   6.697   0.506
 3214WAT      O 9883   3.104   7.646   2.824
 3214WAT     H1 9884   3.057   7.561   2.847
 3214WAT     H2 9885   3.088   7.668   2.727
 3215WAT      O 9886   1.201   4.169   9.424
 3215WAT     H1 9887   1.264   4.092   9.421
 3215WAT     H2 9888   1.155   4.178   9.336
 3216WAT      O 9889   9.060   4.436   8.065
 3216WAT     H1 9890   9.156   4.412   8.084
 3216WAT     H2 9891   9.021   4.482   8.145
 3217WAT      O 9892   3.767   0.421   4.426
 3217WAT     H1 9893   3.854   0.454   4.463
 3217WAT     H2 9894   3.756   0.455   4.332
 3218WAT      O 9895   2.916   6.121   7.314
 3218WAT     H1 9896   2.900   6.163   7.403
 3218WAT     H2 9897   3.004   6.073   7.315
 3219WAT      O 9898   5.365   6.918   8.445
 3219WAT     H1 9899   5.464   6.907   8.456
 3219WAT     H2 9900   5.344   7.013   8.421
 3220WAT      O 9901   3.999   1.597   6.983
 3220WAT     H1 9902   4.091   1.623   6.951
 3220WAT     H2 9903   3.932   1.618   6.912
 3221WAT      O 9904   8.915   1.882   7.868
 3221WAT     H1 9905   8.838   1.917   7.815
 3221WAT     H2 9906   9.001   1.915   7.827
 3222WAT      O 9907   0.564   1.100   9.442
 3222WAT     H1 9908   0.544   1.174   9.506
 3222WAT     H2 9909   0.550   1.133   9.348
 3223WAT      O 9910   4.665   0.158   3.010
 3223WAT     H1 9911   4.577   0.171   2.964
 3223WAT     H2 9912   4.715   0.084   2.965
 3224WAT      O 9913   9.341   4.362   7.614
 3224WAT     H1 9914   9.275   4.407   7.674
 3224WAT     H2 9915   9.323   4.263   7.615
 3225WAT      O 9916   1.180   6.763   9.441
 3225WAT     H1 9917   1.236   6.839   9.408
 3225WAT     H2 9918   1.085   6.794   9.452
 3226WAT      O 9919   0.151   1.422   0.787
 3226WAT     H1 9920   0.229   1.370   0.822
 3226WAT     H2 9921   0.162   1.519   0.811
 3227WAT      O 9922   1.215   7.298   8.072
 3227WAT     H1 9923   1.213   7.269   8.167
 3227WAT     H2 9924   1.267   7.232   8.017
 3228WAT      O 9925   7.316   5.855   7.442
 3228WAT     H1 9926   7.243   5.916   7.473
 3228WAT     H2 9927   7.316   5.771   7.497
 3229WAT      O 9928   9.051   3.955   1.128
 3229WAT     H1 9929   9.035   4.045   1.087
 3229WAT     H2 9930   9.093   3.895   1.060
 3230WAT      O 9931   0.374   0.715   8.528
 3230WAT     H1 9932   0.298   0.676   8.579
 3230WAT     H2 9933   0.425   0.778   8.588
 3231WAT      O 9934   9.839   3.708   5.937
 3231WAT     H1 9935   9.904   3.636   5.914
 3231WAT     H2 9936   9.881   3.797   5.922
 3232WAT      O 9937   4.882   8.277   3.772
 3232WAT     H1 9938   4.981   8.285   3.774
 3232WAT     H2 9939   4.855   8.228   3.689
 3233WAT      O 9940   9.246   8.058   1.606
 3233WAT     H1 9941   9.287   8.093   1.522
 3233WAT     H2 9942   9.267   8.120   1.681
 3234WAT      O 9943   1.473   7.514   0.027
 3234WAT     H1 9944   1.541   7.482   0.094
 3234WAT     H2 9945   1.490   7.470  -0.061
 3235WAT      O 9946   6.871   6.152   6.118
 3235WAT     H1 9947   6.951   6.093   6.125
 3235WAT     H2 9948   6.900   6.245   6.095
 3236WAT      O 9949   8.103   1.858   2.576
 3236WAT     H1 9950   8.194   1.858   2.616
 3236WAT     H2 9951   8.057   1.944   2.598
 3237WAT      O 9952   5.552   2.702   3.213
 3237WAT     H1 9953   5.513   2.744   3.131
 3237WAT     H2 9954   5.480   2.691   3.282
 3238WAT      O 9955   6.797   8.163   3.526
 3238WAT     H1 9956   6.796   8.230   3.452
 3238WAT     H2 9957   6.765   8.075   3.491
 3239WAT      O 9958   4.940   7.726   5.875
 3239WAT     H1 9959   4.909   7.789   5.946
 3239WAT     H2 9960   4.942   7.633   5.911
 3240WAT      O 9961   4.026   1.653   3.673
 3240WAT     H1 9962   4.090   1.594   3.624
 3240WAT     H2 9963   4.054   1.658   3.769
 3241WAT      O 9964   9.540   1.465   7.504
 3241WAT     H1 9965   9.441   1.457   7.513
 3241WAT     H2 9966   9.570   1.425   7.417
 3242WAT      O 9967   8.508   2.337   7.480
 3242WAT     H1 9968   8.463   2.368   7.564
 3242WAT     H2 9969   8.517   2.237   7.482
 3243WAT      O 9970   0.576   6.123   0.659
 3243WAT     H1 9971   0.639   6.059   0.616
 3243WAT     H2 9972   0.488   6.121   0.610
 3244WAT      O 9973   9.368   2.960   9.625
 3244WAT     H1 9974   9.462   2.954   9.659
 3244WAT     H2 9975   9.339   2.870   9.592
 3245WAT      O 9976   7.413   1.442   6.584
 3245WAT     H1 9977   7.470   1.384   6.642
 3245WAT     H2 9978   7.464   1.465   6.501
 3246WAT      O 9979   5.276   5.948   6.748
 3246WAT     H1 9980   5.249   6.008   6.673
 3246WAT     H2 9981   5.293   5.856   6.712
 3247WAT      O 9982   2.194   2.330   6.783
 3247WAT     H1 9983   2.264   2.378   6.730
 3247WAT     H2 9984   2.206   2.232   6.772
 3248WAT      O 9985   5.286   4.840   1.169
 3248WAT     H1 9986   5.348   4.774   1.126
 3248WAT     H2 9987   5.236   4.796   1.243
 3249WAT      O 9988   7.582   3.246   7.441
 3249WAT     H1 9989   7.551   3.319   7.502
 3249WAT     H2 9990   7.639   3.182   7.494
 3250WAT      O 9991   7.937   7.766   2.304
 3250WAT     H1 9992   7.937   7.683   2.249
 3250WAT     H2 9993   7.844   7.805   2.306
 3251WAT      O 9994   2.354   2.865   6.406
 3251WAT     H1 9995   2.271   2.864   6.461
 3251WAT     H2 9996   2.384   2.959   6.392
 3252WAT      O 9997   7.892   1.340   5.552
 3252WAT     H1 9998   7.811   1.281   5.557
 3252WAT     H2 9999   7.964   1.304   5.611
 3253WAT      O10000   8.370   1.378   6.954
 3253WAT     H110001   8.348   1.442   6.881
 3253WAT     H210002   8.393   1.428   7.037
 3254WAT      O10003   0.500   3.433   0.880
 3254WAT     H110004   0.499   3.350   0.935
 3254WAT     H210005   0.552   3.417   0.796
 3255WAT      O10006   2.667   0.629   9.782
 3255WAT     H110007   2.607   0.700   9.748
 3255WAT     H210008   2.746   0.619   9.721
 3256WAT      O10009   4.627   5.182   5.839
 3256WAT     H110010   4.631   5.247   5.763
 3256WAT     H210011   4.571   5.104   5.812
 3257WAT      O10012   5.446   9.193   5.706
 3257WAT     H110013   5.360   9.142   5.718
 3257WAT     H210014   5.429   9.290   5.720
 3258WAT      O10015   2.285   6.855   0.446
 3258WAT     H110016   2.278   6.952   0.421
 3258WAT     H210017   2.355   6.811   0.389
 3259WAT      O10018   2.748   7.547   3.857
 3259WAT     H110019   2.715   7.502   3.940
 3259WAT     H210020   2.812   7.487   3.809
 3260WAT      O10021   9.429   0.935   3.209
 3260WAT     H110022   9.379   0.986   3.139
 3260WAT     H210023   9.384   0.847   3.225
 3261WAT      O10024   2.571   5.872   2.001
 3261WAT     H110025   2.550   5.856   1.905
 3261WAT     H210026   2.658   5.829   2.024
 3262WAT      O10027   1.575   3.750   4.534
 3262WAT     H110028   1.523   3.835   4.544
 3262WAT     H210029   1.658   3.754   4.590
 3263WAT      O10030   8.412   3.755   2.555
 3263WAT     H110031   8.368   3.728   2.640
 3263WAT     H210032   8.448   3.674   2.509
 3264WAT      O10033   0.132   3.378   1.600
 3264WAT     H110034   0.213   3.326   1.573
 3264WAT     H210035   0.089   3.417   1.519
 3265WAT      O10036   7.080   4.715   2.529
 3265WAT     H110037   7.129   4.789   2.482
 3265WAT     H210038   7.145   4.641   2.550
 3266WAT      O10039   1.129   3.268   6.699
 3266WAT     H110040   1.107   3.363   6.720
 3266WAT     H210041   1.049   3.211   6.714
 3267WAT      O10042   6.038   6.081   7.916
 3267WAT     H110043   6.028   6.108   7.820
 3267WAT     H210044   5.951   6.046   7.951
 3268WAT      O10045   2.863   8.403   3.450
 3268WAT     H110046   2.933   8.439   3.389
 3268WAT     H210047   2.892   8.314   3.485
 3269WAT      O10048   6.954   2.360   8.344
 3269WAT     H110049   7.019   2.410   8.286
 3269WAT     H210050   6.907   2.291   8.289
 3270WAT      O10051   9.287   1.603   4.341
 3270WAT     H110052   9.267   1.547   4.421
 3270WAT     H210053   9.380   1.582   4.308
 3271WAT      O10054   8.017   7.909   9.263
 3271WAT     H110055   8.114   7.923   9.282
 3271WAT     H210056   7.977   7.850   9.334
 3272WAT      O10057   1.824   1.357   4.313
 3272WAT     H110058   1.816   1.261   4.286
 3272WAT     H210059   1.776   1.372   4.400
 3273WAT      O10060   4.558   6.367   2.720
 3273WAT     H110061   4.530   6.303   2.792
 3273WAT     H210062   4.483   6.380   2.656
 3274WAT      O10063   3.219   1.620   1.014
 3274WAT     H110064   3.214   1.688   1.086
 3274WAT     H210065   3.284   1.649   0.944
 3275WAT      O10066   1.008   6.134   5.337
 3275WAT     H110067   1.028   6.217   5.389
 3275WAT     H210068   0.942   6.155   5.264
 3276WAT      O10069   3.126   3.524   9.392
 3276WAT     H110070   3.135   3.479   9.303
 3276WAT     H210071   3.201   3.589   9.404
 3277WAT      O10072   4.431   4.852   0.295
 3277WAT     H110073   4.414   4.866   0.393
 3277WAT     H210074   4.530   4.850   0.279
 3278WAT      O10075   9.348   7.703   8.169
 3278WAT     H110076   9.416   7.647   8.121
 3278WAT     H210077   9.259   7.691   8.126
 3279WAT      O10078   3.793   9.343   0.477
 3279WAT     H110079   3.701   9.306   0.464
 3279WAT     H210080   3.860   9.270   0.460
 3280WAT      O10081   7.138   7.559   1.487
 3280WAT     H110082   7.148   7.465   1.455
 3280WAT     H210083   7.224   7.588   1.530
 3281WAT      O10084   3.917   7.382   5.666
 3281WAT     H110085   3.868   7.295   5.679
 3281WAT     H210086   3.965   7.406   5.750
 3282WAT      O10087   4.545   0.381   6.559
 3282WAT     H110088   4.577   0.466   6.601
 3282WAT     H210089   4.532   0.395   6.461
 3283WAT      O10090   5.250   6.431   3.209
 3283WAT     H110091   5.220   6.417   3.303
 3283WAT     H210092   5.332   6.488   3.208
 3284WAT      O10093   7.619   1.016   0.403
 3284WAT     H110094   7.668   1.067   0.332
 3284WAT     H210095   7.678   0.942   0.437
 3285WAT      O10096   7.817   7.299   5.657
 3285WAT     H110097   7.900   7.251   5.630
 3285WAT     H210098   7.745   7.282   5.589
 3286WAT      O10099   3.576   1.607   7.105
 3286WAT     H110100   3.652   1.590   7.169
 3286WAT     H210101   3.577   1.703   7.078
 3287WAT      O10102   7.532   7.396   2.877
 3287WAT     H110103   7.532   7.478   2.820
 3287WAT     H210104   7.625   7.358   2.882
 3288WAT      O10105   4.413   9.801   8.623
 3288WAT     H110106   4.351   9.747   8.681
 3288WAT     H210107   4.502   9.754   8.618
 3289WAT      O10108   1.404   3.854   7.149
 3289WAT     H110109   1.367   3.947   7.155
 3289WAT     H210110   1.504   3.859   7.149
 3290WAT      O10111   3.832   5.617   1.865
 3290WAT     H110112   3.775   5.534   1.866
 3290WAT     H210113   3.779   5.694   1.899
 3291WAT      O10114   7.777   8.295   2.653
 3291WAT     H110115   7.874   8.285   2.672
 3291WAT     H210116   7.724   8.277   2.736
 3292WAT      O10117   9.134   6.506   8.527
 3292WAT     H110118   9.134   6.494   8.626
 3292WAT     H210119   9.202   6.444   8.486
 3293WAT      O10120   4.428   2.964   1.133
 3293WAT     H110121   4.470   2.950   1.044
 3293WAT     H210122   4.336   3.000   1.122
 3294WAT      O10123   0.323   7.470   1.618
 3294WAT     H110124   0.361   7.521   1.542
 3294WAT     H210125   0.314   7.530   1.698
 3295WAT      O10126   6.083   4.570   8.455
 3295WAT     H110127   6.159   4.604   8.511
 3295WAT     H210128   6.106   4.480   8.419
 3296WAT      O10129   4.476   9.308   2.554
 3296WAT     H110130   4.405   9.339   2.617
 3296WAT     H210131   4.528   9.386   2.521
 3297WAT      O10132   5.391   8.921   9.763
 3297WAT     H110133   5.466   8.986   9.767
 3297WAT     H210134   5.337   8.928   9.847
 3298WAT      O10135   4.683   4.083   6.116
 3298WAT     H110136   4.672   4.011   6.184
 3298WAT     H210137   4.765   4.136   6.138
 3299WAT      O10138   5.141   0.483   0.288
 3299WAT     H110139   5.202   0.562   0.291
 3299WAT     H210140   5.177   0.410   0.345
 3300WAT      O10141   8.388   6.941   9.866
 3300WAT     H110142   8.369   6.928   9.964
 3300WAT     H210143   8.363   6.857   9.817
 3301WAT      O10144   6.691   3.289   3.427
 3301WAT     H110145   6.745   3.358   3.377
 3301WAT     H210146   6.594   3.310   3.416
 3302WAT      O10147   0.338   0.025   1.260
 3302WAT     H110148   0.379   0.092   1.198
 3302WAT     H210149   0.410  -0.018   1.314
 3303WAT      O10150   3.554   0.879   5.797
 3303WAT     H110151   3.634   0.859   5.741
 3303WAT     H210152   3.543   0.978   5.805
 3304WAT      O10153   3.195   5.900   0.005
 3304WAT     H110154   3.228   5.994   0.010
 3304WAT     H210155   3.243   5.845   0.074
 3305WAT      O10156   9.015   7.096   4.782
 3305WAT     H110157   9.013   7.020   4.717
 3305WAT     H210158   8.975   7.177   4.740
 3306WAT      O10159   9.732   4.570   4.771
 3306WAT     H110160   9.716   4.619   4.857
 3306WAT     H210161   9.791   4.491   4.788
 3307WAT      O10162   8.183   6.565   2.863
 3307WAT     H110163   8.143   6.511   2.788
 3307WAT     H210164   8.253   6.626   2.826
 3308WAT      O10165   0.449   3.801   8.147
 3308WAT     H110166   0.414   3.850   8.227
 3308WAT     H210167   0.385   3.727   8.123
 3309WAT      O10168   2.655   9.209   9.380
 3309WAT     H110169   2.614   9.285   9.430
 3309WAT     H210170   2.660   9.232   9.283
 3310WAT      O10171   5.013   7.344   5.547
 3310WAT     H110172   4.997   7.276   5.476
 3310WAT     H210173   4.991   7.435   5.512
 3311WAT      O10174   7.496   2.016   7.064
 3311WAT     H110175   7.566   2.001   6.995
 3311WAT     H210176   7.407   1.985   7.030
 3312WAT      O10177   6.050   5.134   2.459
 3312WAT     H110178   6.079   5.169   2.370
 3312WAT     H210179   6.028   5.037   2.450
 3313WAT      O10180   0.461   0.602   3.676
 3313WAT     H110181   0.528   0.673   3.699
 3313WAT     H210182   0.377   0.646   3.645
 3314WAT      O10183   5.107   8.993   7.674
 3314WAT     H110184   5.154   9.057   7.735
 3314WAT     H210185   5.174   8.931   7.633
 3315WAT      O10186   1.354   2.680   4.999
 3315WAT     H110187   1.294   2.645   4.926
 3315WAT     H210188   1.407   2.604   5.037
 3316WAT      O10189   3.653   0.302   2.321
 3316WAT     H110190   3.644   0.382   2.262
 3316WAT     H210191   3.623   0.325   2.413
 3317WAT      O10192   7.843   2.280   6.913
 3317WAT     H110193   7.768   2.335   6.949
 3317WAT     H210194   7.847   2.290   6.813
 3318WAT      O10195   8.204   7.119   6.129
 3318WAT     H110196   8.296   7.129   6.092
 3318WAT     H210197   8.155   7.206   6.122
 3319WAT      O10198   6.298   3.896   9.173
 3319WAT     H110199   6.303   3.979   9.229
 3319WAT     H210200   6.362   3.828   9.208
 3320WAT      O10201   9.640   4.068   7.915
 3320WAT     H110202   9.628   3.990   7.854
 3320WAT     H210203   9.593   4.148   7.877
 3321WAT      O10204   5.512   1.403   6.198
 3321WAT     H110205   5.431   1.461   6.189
 3321WAT     H210206   5.586   1.439   6.142
 3322WAT      O10207   6.695   1.142   5.678
 3322WAT     H110208   6.719   1.063   5.733
 3322WAT     H210209   6.778   1.183   5.640
 3323WAT      O10210   8.740   6.668   0.747
 3323WAT     H110211   8.726   6.767   0.756
 3323WAT     H210212   8.823   6.651   0.694
 3324WAT      O10213   6.200   5.583   7.012
 3324WAT     H110214   6.208   5.486   6.993
 3324WAT     H210215   6.118   5.619   6.966
 3325WAT      O10216   1.756   4.231   6.013
 3325WAT     H110217   1.831   4.212   5.949
 3325WAT     H210218   1.793   4.243   6.105
 3326WAT      O10219   1.617   2.903   3.140
 3326WAT     H110220   1.623   2.935   3.046
 3326WAT     H210221   1.565   2.970   3.194
 3327WAT      O10222   5.185   1.526   4.062
 3327WAT     H110223   5.120   1.481   4.122
 3327WAT     H210224   5.220   1.609   4.106
 3328WAT      O10225   0.197   7.331   6.510
 3328WAT     H110226   0.179   7.233   6.501
 3328WAT     H210227   0.296   7.347   6.508
 3329WAT      O10228   0.815   6.616   1.023
 3329WAT     H110229   0.827   6.540   0.959
 3329WAT     H210230   0.742   6.675   0.991
 3330WAT      O10231   2.899   5.603   0.278
 3330WAT     H110232   2.856   5.682   0.235
 3330WAT     H210233   2.997   5.621   0.290
 3331WAT      O10234   8.945   8.794   3.488
 3331WAT     H110235   9.012   8.721   3.471
 3331WAT     H210236   8.991   8.871   3.534
 3332WAT      O10237   4.951   0.131   7.814
 3332WAT     H110238   4.921   0.174   7.899
 3332WAT     H210239   4.936   0.194   7.738
 3333WAT      O10240   8.925   5.996   8.823
 3333WAT     H110241   8.842   6.045   8.848
 3333WAT     H210242   8.983   6.055   8.766
 3334WAT      O10243   0.815   6.869   3.751
 3334WAT     H110244   0.906   6.871   3.710
 3334WAT     H210245   0.821   6.897   3.847
 3335WAT      O10246   4.142   0.659   6.406
 3335WAT     H110247   4.234   0.693   6.427
 3335WAT     H210248   4.138   0.561   6.422
 3336WAT      O10249   3.223   3.526   0.670
 3336WAT     H110250   3.235   3.430   0.646
 3336WAT     H210251   3.287   3.550   0.744
 3337WAT      O10252   7.336   3.660   8.845
 3337WAT     H110253   7.255   3.625   8.797
 3337WAT     H210254   7.324   3.757   8.865
 3338WAT      O10255   6.569   3.259   5.212
 3338WAT     H110256   6.599   3.165   5.223
 3338WAT     H210257   6.469   3.264   5.217
 3339WAT      O10258   5.812   2.081   6.567
 3339WAT     H110259   5.765   2.091   6.655
 3339WAT     H210260   5.911   2.085   6.580
 3340WAT      O10261   3.753   6.053   1.807
 3340WAT     H110262   3.845   6.039   1.770
 3340WAT     H210263   3.716   5.964   1.836
 3341WAT      O10264   2.498   6.980   0.641
 3341WAT     H110265   2.510   7.077   0.662
 3341WAT     H210266   2.490   6.968   0.542
 3342WAT      O10267   0.861   9.483   8.630
 3342WAT     H110268   0.920   9.424   8.686
 3342WAT     H210269   0.832   9.562   8.684
 3343WAT      O10270   9.157   2.092   1.979
 3343WAT     H110271   9.198   2.053   1.897
 3343WAT     H210272   9.168   2.192   1.978
 3344WAT      O10273   1.490   6.250   1.957
 3344WAT     H110274   1.568   6.229   1.898
 3344WAT     H210275   1.405   6.225   1.911
 3345WAT      O10276   6.109   4.106   6.240
 3345WAT     H110277   6.206   4.089   6.255
 3345WAT     H210278   6.085   4.080   6.147
 3346WAT      O10279   7.695   2.966   9.835
 3346WAT     H110280   7.681   2.899   9.762
 3346WAT     H210281   7.749   2.925   9.909
 3347WAT      O10282   0.956   2.005   5.141
 3347WAT     H110283   1.032   2.070   5.131
 3347WAT     H210284   0.875   2.042   5.095
 3348WAT      O10285   9.136   8.356   6.253
 3348WAT     H110286   9.118   8.263   6.285
 3348WAT     H210287   9.118   8.361   6.155
 3349WAT      O10288   9.879   5.154   4.159
 3349WAT     H110289   9.856   5.077   4.218
 3349WAT     H210290   9.811   5.227   4.171
 3350WAT      O10291   2.187   0.446   9.689
 3350WAT     H110292   2.275   0.478   9.656
 3350WAT     H210293   2.164   0.359   9.644
 3351WAT      O10294   1.114   8.943   6.513
 3351WAT     H110295   1.129   8.874   6.584
 3351WAT     H210296   1.027   8.926   6.467
 3352WAT      O10297   9.812   5.417   1.613
 3352WAT     H110298   9.831   5.472   1.694
 3352WAT     H210299   9.840   5.467   1.531
 3353WAT      O10300   8.728   5.212   9.024
 3353WAT     H110301   8.741   5.114   9.006
 3353WAT     H210302   8.772   5.265   8.951
 3354WAT      O10303   3.022   8.182   6.714
 3354WAT     H110304   2.964   8.242   6.659
 3354WAT     H210305   3.109   8.166   6.666
 3355WAT      O10306   9.759   7.809   3.835
 3355WAT     H110307   9.698   7.740   3.798
 3355WAT     H210308   9.750   7.812   3.935
 3356WAT      O10309   1.041   4.913   6.209
 3356WAT     H110310   1.033   4.985   6.277
 3356WAT     H210311   0.950   4.878   6.186
 3357WAT      O10312   0.832   2.581   0.190
 3357WAT     H110313   0.872   2.491   0.204
 3357WAT     H210314   0.840   2.607   0.094
 3358WAT      O10315   1.909   3.595   9.337
 3358WAT     H110316   1.815   3.573   9.364
 3358WAT     H210317   1.964   3.610   9.419
 3359WAT      O10318   0.862   9.512   1.648
 3359WAT     H110319   0.777   9.486   1.694
 3359WAT     H210320   0.841   9.572   1.571
 3360WAT      O10321   9.740   8.942   7.519
 3360WAT     H110322   9.754   9.001   7.598
 3360WAT     H210323   9.828   8.904   7.490
 3361WAT      O10324   2.358   4.721   4.119
 3361WAT     H110325   2.258   4.721   4.131
 3361WAT     H210326   2.401   4.670   4.193
 3362WAT      O10327   3.942   0.433   0.753
 3362WAT     H110328   3.980   0.512   0.802
 3362WAT     H210329   3.850   0.454   0.722
 3363WAT      O10330   3.087   8.117   0.238
 3363WAT     H110331   3.064   8.215   0.232
 3363WAT     H210332   3.149   8.093   0.164
 3364WAT      O10333   7.279   8.366   5.363
 3364WAT     H110334   7.287   8.465   5.364
 3364WAT     H210335   7.353   8.327   5.309
 3365WAT      O10336   8.868   3.939   5.921
 3365WAT     H110337   8.955   3.895   5.897
 3365WAT     H210338   8.816   3.957   5.838
 3366WAT      O10339   5.139   3.409   8.279
 3366WAT     H110340   5.088   3.364   8.351
 3366WAT     H210341   5.197   3.342   8.232
 3367WAT      O10342   7.451   3.933   1.083
 3367WAT     H110343   7.372   3.871   1.075
 3367WAT     H210344   7.470   3.949   1.180
 3368WAT      O10345   6.631   2.528   2.763
 3368WAT     H110346   6.714   2.548   2.711
 3368WAT     H210347   6.592   2.613   2.798
 3369WAT      O10348   7.662   7.901   9.895
 3369WAT     H110349   7.738   7.840   9.918
 3369WAT     H210350   7.681   7.948   9.809
 3370WAT      O10351   3.199   2.807   9.559
 3370WAT     H110352   3.294   2.832   9.578
 3370WAT     H210353   3.138   2.878   9.594
 3371WAT      O10354   5.956   5.123   3.101
 3371WAT     H110355   5.890   5.064   3.146
 3371WAT     H210356   5.937   5.127   3.003
 3372WAT      O10357   4.309   4.060   0.838
 3372WAT     H110358   4.305   3.973   0.790
 3372WAT     H210359   4.351   4.129   0.779
 3373WAT      O10360   6.060   6.821   1.216
 3373WAT     H110361   6.150   6.864   1.201
 3373WAT     H210362   6.019   6.860   1.298
 3374WAT      O10363   7.229   4.305   6.355
 3374WAT     H110364   7.261   4.397   6.333
 3374WAT     H210365   7.217   4.297   6.454
 3375WAT      O10366   5.187   4.985   0.270
 3375WAT     H110367   5.200   5.007   0.367
 3375WAT     H210368   5.154   5.066   0.221
 3376WAT      O10369   3.825   5.556   9.205
 3376WAT     H110370   3.829   5.475   9.146
 3376WAT     H210371   3.799   5.636   9.149
 3377WAT      O10372   8.456   3.657   5.196
 3377WAT     H110373   8.524   3.593   5.231
 3377WAT     H210374   8.415   3.621   5.112
 3378WAT      O10375   6.534   2.764   9.454
 3378WAT     H110376   6.632   2.779   9.472
 3378WAT     H210377   6.524   2.686   9.392
 3379WAT      O10378   4.479   5.329   3.045
 3379WAT     H110379   4.396   5.274   3.057
 3379WAT     H210380   4.478   5.373   2.955
 3380WAT      O10381   6.926   2.183   7.195
 3380WAT     H110382   6.829   2.183   7.172
 3380WAT     H210383   6.939   2.224   7.286
 3381WAT      O10384   6.530   8.617   5.201
 3381WAT     H110385   6.592   8.678   5.151
 3381WAT     H210386   6.470   8.570   5.137
 3382WAT      O10387   4.794   8.638   8.572
 3382WAT     H110388   4.876   8.583   8.557
 3382WAT     H210389   4.796   8.720   8.514
 3383WAT      O10390   4.400   9.712   0.721
 3383WAT     H110391   4.307   9.691   0.751
 3383WAT     H210392   4.431   9.795   0.767
 3384WAT      O10393   3.595   9.069   1.723
 3384WAT     H110394   3.596   9.041   1.819
 3384WAT     H210395   3.664   9.140   1.709
 3385WAT      O10396   7.279   9.520   3.981
 3385WAT     H110397   7.225   9.600   4.009
 3385WAT     H210398   7.245   9.440   4.030
 3386WAT      O10399   6.613   9.053   9.711
 3386WAT     H110400   6.609   8.961   9.672
 3386WAT     H210401   6.553   9.058   9.791
 3387WAT      O10402   9.188   4.197   0.722
 3387WAT     H110403   9.101   4.152   0.743
 3387WAT     H210404   9.192   4.285   0.769
 3388WAT      O10405   3.860   8.814   2.851
 3388WAT     H110406   3.905   8.830   2.939
 3388WAT     H210407   3.914   8.854   2.778
 3389WAT      O10408   6.656   8.373   8.049
 3389WAT     H110409   6.720   8.426   8.103
 3389WAT     H210410   6.590   8.327   8.109
 3390WAT      O10411   7.331   8.161   0.854
 3390WAT     H110412   7.263   8.093   0.880
 3390WAT     H210413   7.375   8.198   0.935
 3391WAT      O10414   7.076   4.075   0.804
 3391WAT     H110415   7.131   4.118   0.732
 3391WAT     H210416   7.128   4.072   0.889
 3392WAT      O10417   0.200   4.586   2.847
 3392WAT     H110418   0.292   4.611   2.876
 3392WAT     H210419   0.167   4.511   2.904
 3393WAT      O10420   1.049   4.648   9.539
 3393WAT     H110421   0.970   4.708   9.522
 3393WAT     H210422   1.112   4.692   9.601
 3394WAT      O10423   5.651   8.645   8.401
 3394WAT     H110424   5.732   8.697   8.428
 3394WAT     H210425   5.580   8.707   8.369
 3395WAT      O10426   2.915   0.465   8.541
 3395WAT     H110427   2.895   0.411   8.623
 3395WAT     H210428   2.841   0.453   8.475
 3396WAT      O10429   7.563   5.126   8.835
 3396WAT     H110430   7.463   5.131   8.844
 3396WAT     H210431   7.586   5.053   8.771
 3397WAT      O10432   0.810   4.326   4.326
 3397WAT     H110433   0.735   4.306   4.264
 3397WAT     H210434   0.814   4.255   4.397
 3398WAT      O10435   4.660   7.110   1.302
 3398WAT     H110436   4.582   7.078   1.247
 3398WAT     H210437   4.695   7.195   1.263
 3399WAT      O10438   4.867   7.294   6.147
 3399WAT     H110439   4.927   7.355   6.096
 3399WAT     H210440   4.899   7.288   6.242
 3400WAT      O10441   6.823   8.411   2.023
 3400WAT     H110442   6.743   8.428   2.081
 3400WAT     H210443   6.820   8.317   1.989
 3401WAT      O10444   4.917   7.968   9.271
 3401WAT     H110445   4.822   7.941   9.260
 3401WAT     H210446   4.977   7.896   9.235
 3402WAT      O10447   9.854   0.319   0.822
 3402WAT     H110448   9.943   0.305   0.866
 3402WAT     H210449   9.783   0.326   0.892
 3403WAT      O10450   8.280   1.421   4.639
 3403WAT     H110451   8.195   1.456   4.677
 3403WAT     H210452   8.342   1.498   4.621
 3404WAT      O10453   4.137   2.477   4.251
 3404WAT     H110454   4.149   2.544   4.178
 3404WAT     H210455   4.211   2.411   4.248
 3405WAT      O10456   6.511   4.898   2.807
 3405WAT     H110457   6.433   4.835   2.806
 3405WAT     H210458   6.596   4.845   2.807
 3406WAT      O10459   4.470   3.522   7.623
 3406WAT     H110460   4.399   3.489   7.561
 3406WAT     H210461   4.469   3.467   7.706
 3407WAT      O10462   7.811   6.852   9.673
 3407WAT     H110463   7.887   6.848   9.607
 3407WAT     H210464   7.810   6.942   9.716
 3408WAT      O10465   4.412   6.023   3.943
 3408WAT     H110466   4.438   6.016   3.846
 3408WAT     H210467   4.442   6.112   3.979
 3409WAT      O10468   1.417   1.232   0.285
 3409WAT     H110469   1.399   1.296   0.360
 3409WAT     H210470   1.335   1.179   0.265
 3410WAT      O10471   8.844   7.890   9.244
 3410WAT     H110472   8.768   7.830   9.269
 3410WAT     H210473   8.816   7.986   9.254
 3411WAT      O10474   0.142   3.951   5.903
 3411WAT     H110475   0.224   3.894   5.895
 3411WAT     H210476   0.162   4.043   5.871
 3412WAT      O10477   5.875   8.818   8.432
 3412WAT     H110478   5.899   8.809   8.529
 3412WAT     H210479   5.953   8.792   8.376
 3413WAT      O10480   1.835   0.387   0.591
 3413WAT     H110481   1.917   0.445   0.586
 3413WAT     H210482   1.760   0.439   0.632
 3414WAT      O10483   4.971   9.608   4.053
 3414WAT     H110484   4.967   9.590   4.151
 3414WAT     H210485   4.880   9.596   4.013
 3415WAT      O10486   5.561   0.730   2.263
 3415WAT     H110487   5.558   0.823   2.226
 3415WAT     H210488   5.650   0.715   2.306
 3416WAT      O10489   9.183   6.757   9.063
 3416WAT     H110490   9.161   6.660   9.073
 3416WAT     H210491   9.107   6.812   9.097
 3417WAT      O10492   1.739   3.105   9.236
 3417WAT     H110493   1.814   3.040   9.251
 3417WAT     H210494   1.754   3.186   9.292
 3418WAT      O10495   1.133   4.370   1.824
 3418WAT     H110496   1.114   4.274   1.807
 3418WAT     H210497   1.226   4.380   1.862
 3419WAT      O10498   6.495   5.833   5.976
 3419WAT     H110499   6.501   5.737   5.947
 3419WAT     H210500   6.587   5.870   5.988
 3420WAT      O10501   2.708   2.722   8.930
 3420WAT     H110502   2.706   2.820   8.909
 3420WAT     H210503   2.716   2.669   8.845
 3421WAT      O10504   7.831   3.473   9.852
 3421WAT     H110505   7.874   3.382   9.852
 3421WAT     H210506   7.741   3.467   9.809
 3422WAT      O10507   6.396   8.733   0.166
 3422WAT     H110508   6.356   8.656   0.116
 3422WAT     H210509   6.332   8.762   0.238
 3423WAT      O10510   5.497   3.437   1.375
 3423WAT     H110511   5.574   3.472   1.321
 3423WAT     H210512   5.507   3.338   1.385
 3424WAT      O10513   3.899   3.913   4.824
 3424WAT     H110514   3.861   3.824   4.846
 3424WAT     H210515   3.861   3.945   4.737
 3425WAT      O10516   7.982   0.151   1.219
 3425WAT     H110517   7.909   0.183   1.159
 3425WAT     H210518   7.989   0.052   1.215
 3426WAT      O10519   3.500   3.131   1.112
 3426WAT     H110520   3.462   3.045   1.080
 3426WAT     H210521   3.595   3.140   1.081
 3427WAT      O10522   3.204   3.751   0.506
 3427WAT     H110523   3.248   3.825   0.557
 3427WAT     H210524   3.203   3.668   0.561
 3428WAT      O10525   3.645   1.258   1.924
 3428WAT     H110526   3.625   1.264   2.022
 3428WAT     H210527   3.605   1.174   1.887
 3429WAT      O10528   7.805   0.979   7.111
 3429WAT     H110529   7.876   0.951   7.046
 3429WAT     H210530   7.716   0.978   7.067
 3430WAT      O10531   8.089   2.031   1.507
 3430WAT     H110532   7.996   2.002   1.483
 3430WAT     H210533   8.119   2.103   1.444
 3431WAT      O10534   4.393   5.724   4.235
 3431WAT     H110535   4.308   5.763   4.200
 3431WAT     H210536   4.457   5.711   4.160
 3432WAT      O10537   3.409   1.119   3.676
 3432WAT     H110538   3.397   1.025   3.644
 3432WAT     H210539   3.456   1.117   3.764
 3433WAT      O10540   1.504   9.682   9.270
 3433WAT     H110541   1.426   9.743   9.253
 3433WAT     H210542   1.554   9.666   9.185
 3434WAT      O10543   0.561   9.609   5.551
 3434WAT     H110544   0.472   9.583   5.588
 3434WAT     H210545   0.612   9.662   5.618
 3435WAT      O10546   0.768   3.845   2.871
 3435WAT     H110547   0.702   3.920   2.865
 3435WAT     H210548   0.727   3.761   2.836
 3436WAT      O10549   2.912   5.463   7.243
 3436WAT     H110550   2.913   5.512   7.330
 3436WAT     H210551   2.849   5.385   7.249
 3437WAT      O10552   0.938   0.413   1.718
 3437WAT     H110553   1.028   0.381   1.745
 3437WAT     H210554   0.871   0.387   1.787
 3438WAT      O10555   9.884   5.819   8.934
 3438WAT     H110556   9.852   5.783   9.022
 3438WAT     H210557   9.966   5.873   8.947
 3439WAT      O10558   9.492   6.734   1.905
 3439WAT     H110559   9.560   6.679   1.856
 3439WAT     H210560   9.415   6.753   1.845
 3440WAT      O10561   0.847   5.973   8.045
 3440WAT     H110562   0.773   6.029   8.009
 3440WAT     H210563   0.812   5.913   8.117
 3441WAT      O10564   6.127   7.064   0.226
 3441WAT     H110565   6.119   7.105   0.134
 3441WAT     H210566   6.093   6.970   0.223
 3442WAT      O10567   8.850   5.349   6.658
 3442WAT     H110568   8.857   5.339   6.757
 3442WAT     H210569   8.776   5.413   6.636
 3443WAT      O10570   1.555   3.060   5.556
 3443WAT     H110571   1.574   2.979   5.500
 3443WAT     H210572   1.476   3.042   5.614
 3444WAT      O10573   7.779   0.182   9.674
 3444WAT     H110574   7.767   0.193   9.773
 3444WAT     H210575   7.788   0.084   9.652
 3445WAT      O10576   6.149   6.476   6.445
 3445WAT     H110577   6.101   6.507   6.527
 3445WAT     H210578   6.114   6.525   6.365
 3446WAT      O10579   1.445   2.073   0.209
 3446WAT     H110580   1.359   2.065   0.260
 3446WAT     H210581   1.456   1.992   0.151
 3447WAT      O10582   5.818   4.680   8.452
 3447WAT     H110583   5.778   4.648   8.366
 3447WAT     H210584   5.916   4.661   8.451
 3448WAT      O10585   9.475   0.320   4.730
 3448WAT     H110586   9.401   0.382   4.705
 3448WAT     H210587   9.561   0.355   4.694
 3449WAT      O10588   8.024   4.276   6.425
 3449WAT     H110589   8.027   4.373   6.402
 3449WAT     H210590   7.953   4.261   6.495
 3450WAT      O10591   3.236   1.707   9.844
 3450WAT     H110592   3.226   1.762   9.762
 3450WAT     H210593   3.333   1.683   9.856
 3451WAT      O10594   5.735   0.351   2.368
 3451WAT     H110595   5.753   0.257   2.338
 3451WAT     H210596   5.668   0.350   2.442
 3452WAT      O10597   0.195   1.585   1.723
 3452WAT     H110598   0.167   1.681   1.722
 3452WAT     H210599   0.270   1.572   1.789
 3453WAT      O10600   5.209   5.058   0.582
 3453WAT     H110601   5.302   5.049   0.618
 3453WAT     H210602   5.165   5.138   0.624
 3454WAT      O10603   7.427   1.583   8.005
 3454WAT     H110604   7.453   1.583   8.101
 3454WAT     H210605   7.434   1.676   7.968
 3455WAT      O10606   3.242   2.482   8.515
 3455WAT     H110607   3.229   2.402   8.573
 3455WAT     H210608   3.158   2.502   8.465
 3456WAT      O10609   2.709   3.010   1.196
 3456WAT     H110610   2.692   3.002   1.294
 3456WAT     H210611   2.655   2.940   1.148
 3457WAT      O10612   8.392   6.377   1.620
 3457WAT     H110613   8.298   6.376   1.655
 3457WAT     H210614   8.390   6.366   1.520
 3458WAT      O10615   0.640   3.398   6.053
 3458WAT     H110616   0.712   3.345   6.010
 3458WAT     H210617   0.661   3.413   6.149
 3459WAT      O10618   3.671   8.444   9.452
 3459WAT     H110619   3.587   8.395   9.475
 3459WAT     H210620   3.743   8.421   9.518
 3460WAT      O10621   7.678   2.905   9.276
 3460WAT     H110622   7.707   2.940   9.187
 3460WAT     H210623   7.711   2.965   9.349
 3461WAT      O10624   1.305   5.543   4.542
 3461WAT     H110625   1.315   5.529   4.444
 3461WAT     H210626   1.233   5.483   4.577
 3462WAT      O10627   7.141   1.829   1.349
 3462WAT     H110628   7.116   1.909   1.404
 3462WAT     H210629   7.070   1.760   1.355
 3463WAT      O10630   1.623   3.983   3.641
 3463WAT     H110631   1.606   4.082   3.644
 3463WAT     H210632   1.595   3.943   3.728
 3464WAT      O10633   9.472   6.692   7.798
 3464WAT     H110634   9.504   6.617   7.856
 3464WAT     H210635   9.445   6.657   7.709
 3465WAT      O10636   6.401   4.254   7.479
 3465WAT     H110637   6.358   4.343   7.463
 3465WAT     H210638   6.388   4.196   7.398
 3466WAT      O10639   2.145   4.148   1.447
 3466WAT     H110640   2.153   4.049   1.460
 3466WAT     H210641   2.088   4.186   1.520
 3467WAT      O10642   7.471   3.626   1.821
 3467WAT     H110643   7.372   3.620   1.814
 3467WAT     H210644   7.496   3.649   1.916
 3468WAT      O10645   4.053   1.413   6.735
 3468WAT     H110646   4.134   1.451   6.691
 3468WAT     H210647   4.077   1.380   6.827
 3469WAT      O10648   3.678   8.324   4.373
 3469WAT     H110649   3.763   8.281   4.403
 3469WAT     H210650   3.600   8.269   4.405
 3470WAT      O10651   8.776   3.406   0.687
 3470WAT     H110652   8.829   3.322   0.680
 3470WAT     H210653   8.771   3.434   0.783
 3471WAT      O10654   0.706   1.543   8.134
 3471WAT     H110655   0.725   1.491   8.217
 3471WAT     H210656   0.753   1.501   8.057
 3472WAT      O10657   8.495   5.306   7.763
 3472WAT     H110658   8.482   5.316   7.861
 3472WAT     H210659   8.430   5.364   7.714
 3473WAT      O10660   8.134   0.529   3.108
 3473WAT     H110661   8.192   0.467   3.057
 3473WAT     H210662   8.171   0.622   3.103
 3474WAT      O10663   2.899   6.388   1.417
 3474WAT     H110664   2.821   6.386   1.354
 3474WAT     H210665   2.982   6.366   1.366
 3475WAT      O10666   9.573   4.067   6.456
 3475WAT     H110667   9.648   4.031   6.401
 3475WAT     H210668   9.593   4.162   6.481
 3476WAT      O10669   2.896   5.502   4.185
 3476WAT     H110670   2.855   5.573   4.241
 3476WAT     H210671   2.942   5.435   4.244
 3477WAT      O10672   8.957   4.935   1.895
 3477WAT     H110673   8.904   4.851   1.881
 3477WAT     H210674   8.918   5.008   1.839
 3478WAT      O10675   8.304   3.242   6.589
 3478WAT     H110676   8.395   3.240   6.630
 3478WAT     H210677   8.300   3.315   6.520
 3479WAT      O10678   5.673   4.279   1.194
 3479WAT     H110679   5.708   4.250   1.105
 3479WAT     H210680   5.595   4.222   1.219
 3480WAT      O10681   1.885   1.628   9.152
 3480WAT     H110682   1.828   1.698   9.195
 3480WAT     H210683   1.872   1.541   9.198
 3481WAT      O10684   9.212   4.423   9.114
 3481WAT     H110685   9.242   4.482   9.039
 3481WAT     H210686   9.261   4.336   9.110
 3482WAT      O10687   6.087   3.821   5.526
 3482WAT     H110688   6.184   3.809   5.550
 3482WAT     H210689   6.079   3.867   5.438
 3483WAT      O10690   3.599   1.244   7.707
 3483WAT     H110691   3.682   1.244   7.763
 3483WAT     H210692   3.555   1.154   7.713
 3484WAT      O10693   8.331   0.444   0.666
 3484WAT     H110694   8.252   0.469   0.610
 3484WAT     H210695   8.347   0.346   0.660
 3485WAT      O10696   3.191   5.403   2.282
 3485WAT     H110697   3.126   5.430   2.211
 3485WAT     H210698   3.215   5.483   2.337
 3486WAT      O10699   5.116   5.825   3.146
 3486WAT     H110700   5.180   5.749   3.150
 3486WAT     H210701   5.022   5.790   3.155
 3487WAT      O10702   0.224   6.771   6.508
 3487WAT     H110703   0.308   6.769   6.563
 3487WAT     H210704   0.178   6.859   6.520
 3488WAT      O10705   8.568   8.960   9.785
 3488WAT     H110706   8.537   9.049   9.820
 3488WAT     H210707   8.491   8.912   9.744
 3489WAT      O10708   8.188   6.648   4.459
 3489WAT     H110709   8.093   6.666   4.432
 3489WAT     H210710   8.249   6.671   4.383
 3490WAT      O10711   1.141   5.182   7.894
 3490WAT     H110712   1.207   5.257   7.888
 3490WAT     H210713   1.128   5.157   7.990
 3491WAT      O10714   1.235   7.625   9.876
 3491WAT     H110715   1.325   7.596   9.908
 3491WAT     H210716   1.242   7.659   9.783
 3492WAT      O10717   5.228   5.274   3.932
 3492WAT     H110718   5.221   5.277   4.032
 3492WAT     H210719   5.325   5.278   3.906
 3493WAT      O10720   2.749   5.947   8.254
 3493WAT     H110721   2.770   6.009   8.330
 3493WAT     H210722   2.737   6.000   8.171
 3494WAT      O10723   7.231   1.040   4.345
 3494WAT     H110724   7.172   1.121   4.352
 3494WAT     H210725   7.319   1.067   4.304
 3495WAT      O10726   5.223   7.964   3.660
 3495WAT     H110727   5.249   7.915   3.577
 3495WAT     H210728   5.141   7.922   3.699
 3496WAT      O10729   9.459   5.608   2.169
 3496WAT     H110730   9.497   5.530   2.219
 3496WAT     H210731   9.511   5.624   2.086
 3497WAT      O10732   5.883   2.035   3.821
 3497WAT     H110733   5.851   1.997   3.734
 3497WAT     H210734   5.855   1.975   3.896
 3498WAT      O10735   7.533   2.682   6.472
 3498WAT     H110736   7.583   2.611   6.422
 3498WAT     H210737   7.439   2.652   6.488
 3499WAT      O10738   0.712   2.871   0.958
 3499WAT     H110739   0.633   2.827   0.916
 3499WAT     H210740   0.796   2.827   0.926
 3500WAT      O10741   2.959   7.599   5.087
 3500WAT     H110742   2.916   7.582   4.998
 3500WAT     H210743   2.926   7.532   5.153
 3501WAT      O10744   6.689   3.095   0.787
 3501WAT     H110745   6.777   3.118   0.746
 3501WAT     H210746   6.618   3.096   0.717
 3502WAT      O10747   6.936   1.474   4.925
 3502WAT     H110748   7.018   1.459   4.980
 3502WAT     H210749   6.884   1.389   4.919
 3503WAT      O10750   8.939   7.887   3.704
 3503WAT     H110751   9.026   7.850   3.671
 3503WAT     H210752   8.908   7.959   3.643
 3504WAT      O10753   2.725   7.466   1.705
 3504WAT     H110754   2.810   7.450   1.655
 3504WAT     H210755   2.735   7.435   1.799
 3505WAT      O10756   2.058   9.338   9.722
 3505WAT     H110757   2.073   9.282   9.641
 3505WAT     H210758   1.959   9.346   9.739
 3506WAT      O10759   1.073   0.868   3.240
 3506WAT     H110760   1.008   0.798   3.210
 3506WAT     H210761   1.041   0.958   3.210
 3507WAT      O10762   8.181   8.409   1.609
 3507WAT     H110763   8.120   8.344   1.655
 3507WAT     H210764   8.172   8.499   1.652
 3508WAT      O10765   0.577   6.798   9.101
 3508WAT     H110766   0.552   6.745   9.021
 3508WAT     H210767   0.611   6.888   9.073
 3509WAT      O10768   0.717   3.842   8.465
 3509WAT     H110769   0.675   3.932   8.454
 3509WAT     H210770   0.800   3.850   8.520
 3510WAT      O10771   2.104   4.658   4.899
 3510WAT     H110772   2.094   4.571   4.851
 3510WAT     H210773   2.107   4.733   4.833
 3511WAT      O10774   0.377   2.334   8.670
 3511WAT     H110775   0.285   2.359   8.700
 3511WAT     H210776   0.405   2.396   8.596
 3512WAT      O10777   6.518   1.697   6.416
 3512WAT     H110778   6.590   1.763   6.441
 3512WAT     H210779   6.471   1.668   6.499
 3513WAT      O10780   5.773   4.153   2.618
 3513WAT     H110781   5.844   4.224   2.613
 3513WAT     H210782   5.711   4.173   2.694
 3514WAT      O10783   1.409   8.501   6.019
 3514WAT     H110784   1.410   8.482   6.117
 3514WAT     H210785   1.342   8.572   5.999
 3515WAT      O10786   7.213   4.171   5.465
 3515WAT     H110787   7.125   4.175   5.514
 3515WAT     H210788   7.266   4.093   5.497
 3516WAT      O10789   2.238   8.630   4.091
 3516WAT     H110790   2.251   8.617   4.190
 3516WAT     H210791   2.326   8.627   4.045
 3517WAT      O10792   3.775   3.424   8.248
 3517WAT     H110793   3.744   3.329   8.255
 3517WAT     H210794   3.742   3.476   8.326
 3518WAT      O10795   1.402   7.877   6.232
 3518WAT     H110796   1.427   7.853   6.325
 3518WAT     H210797   1.359   7.967   6.231
 3519WAT      O10798   0.831   3.762   3.955
 3519WAT     H110799   0.893   3.837   3.934
 3519WAT     H210800   0.872   3.676   3.927
 3520WAT      O10801   5.352   0.487   8.474
 3520WAT     H110802   5.274   0.492   8.411
 3520WAT     H210803   5.377   0.392   8.489
 3521WAT      O10804   7.281   3.199   4.546
 3521WAT     H110805   7.277   3.280   4.487
 3521WAT     H210806   7.303   3.119   4.491
 3522WAT      O10807   7.115   6.527   8.904
 3522WAT     H110808   7.137   6.536   8.807
 3522WAT     H210809   7.016   6.519   8.915
 3523WAT      O10810   0.399   3.602   0.137
 3523WAT     H110811   0.444   3.675   0.087
 3523WAT     H210812   0.300   3.610   0.128
 3524WAT      O10813   8.470   9.784   4.840
 3524WAT     H110814   8.474   9.742   4.749
 3524WAT     H210815   8.376   9.810   4.860
 3525WAT      O10816   2.101   7.618   5.116
 3525WAT     H110817   2.006   7.637   5.093
 3525WAT     H210818   2.143   7.566   5.041
 3526WAT      O10819   6.190   2.409   4.319
 3526WAT     H110820   6.178   2.373   4.227
 3526WAT     H210821   6.269   2.365   4.362
 3527WAT      O10822   4.564   0.957   5.653
 3527WAT     H110823   4.615   0.913   5.579
 3527WAT     H210824   4.488   0.899   5.681
 3528WAT      O10825   0.935   6.393   1.177
 3528WAT     H110826   0.934   6.328   1.101
 3528WAT     H210827   0.903   6.482   1.143
 3529WAT      O10828   1.742   1.079   1.756
 3529WAT     H110829   1.707   0.995   1.715
 3529WAT     H210830   1.749   1.150   1.685
 3530WAT      O10831   3.189   3.476   5.452
 3530WAT     H110832   3.134   3.436   5.525
 3530WAT     H210833   3.274   3.426   5.442
 3531WAT      O10834   2.982   1.327   1.778
 3531WAT     H110835   2.935   1.247   1.740
 3531WAT     H210836   2.953   1.409   1.727
 3532WAT      O10837   7.359   1.654   1.325
 3532WAT     H110838   7.275   1.707   1.335
 3532WAT     H210839   7.337   1.556   1.323
 3533WAT      O10840   3.390   5.220   7.892
 3533WAT     H110841   3.482   5.248   7.919
 3533WAT     H210842   3.361   5.141   7.947
 3534WAT      O10843   6.889   2.948   8.070
 3534WAT     H110844   6.797   2.914   8.051
 3534WAT     H210845   6.890   2.992   8.160
 3535WAT      O10846   5.296   9.525   2.545
 3535WAT     H110847   5.238   9.491   2.472
 3535WAT     H210848   5.387   9.548   2.508
 3536WAT      O10849   9.854   2.944   5.229
 3536WAT     H110850   9.873   2.914   5.136
 3536WAT     H210851   9.889   2.877   5.294
 3537WAT      O10852   0.459   1.807   0.819
 3537WAT     H110853   0.489   1.893   0.861
 3537WAT     H210854   0.493   1.802   0.725
 3538WAT      O10855   1.767   6.089   7.089
 3538WAT     H110856   1.790   6.121   7.181
 3538WAT     H210857   1.763   6.168   7.027
 3539WAT      O10858   3.801   4.716   1.094
 3539WAT     H110859   3.892   4.682   1.071
 3539WAT     H210860   3.803   4.816   1.098
 3540WAT      O10861   8.841   5.349   8.759
 3540WAT     H110862   8.912   5.399   8.810
 3540WAT     H210863   8.882   5.267   8.719
 3541WAT      O10864   6.556   2.877   7.404
 3541WAT     H110865   6.516   2.968   7.390
 3541WAT     H210866   6.484   2.813   7.432
 3542WAT      O10867   2.231   6.002   0.554
 3542WAT     H110868   2.316   5.996   0.606
 3542WAT     H210869   2.161   5.945   0.598
 3543WAT      O10870   0.375   1.845   9.015
 3543WAT     H110871   0.435   1.925   9.006
 3543WAT     H210872   0.303   1.850   8.945
 3544WAT      O10873   9.552   2.457   2.479
 3544WAT     H110874   9.456   2.433   2.489
 3544WAT     H210875   9.565   2.554   2.501
 3545WAT      O10876   3.875   5.181   5.550
 3545WAT     H110877   3.828   5.168   5.637
 3545WAT     H210878   3.964   5.136   5.554
 3546WAT      O10879   9.301   1.135   6.863
 3546WAT     H110880   9.370   1.063   6.857
 3546WAT     H210881   9.346   1.224   6.862
 3547WAT      O10882   1.664   1.287   7.530
 3547WAT     H110883   1.588   1.257   7.472
 3547WAT     H210884   1.718   1.208   7.559
 3548WAT      O10885   3.255   7.160   2.133
 3548WAT     H110886   3.273   7.192   2.040
 3548WAT     H210887   3.332   7.103   2.164
 3549WAT      O10888   9.755   7.912   3.416
 3549WAT     H110889   9.727   7.967   3.337
 3549WAT     H210890   9.729   7.817   3.402
 3550WAT      O10891   1.414   8.859   4.975
 3550WAT     H110892   1.334   8.900   5.019
 3550WAT     H210893   1.497   8.889   5.022
 3551WAT      O10894   5.740   8.330   6.270
 3551WAT     H110895   5.661   8.304   6.216
 3551WAT     H210896   5.811   8.368   6.210
 3552WAT      O10897   7.424   5.574   4.049
 3552WAT     H110898   7.373   5.513   3.989
 3552WAT     H210899   7.459   5.652   3.997
 3553WAT      O10900   9.641   4.472   0.273
 3553WAT     H110901   9.653   4.562   0.314
 3553WAT     H210902   9.606   4.481   0.180
 3554WAT      O10903   6.963   4.205   9.215
 3554WAT     H110904   7.027   4.223   9.289
 3554WAT     H210905   6.869   4.219   9.247
 3555WAT      O10906   8.972   6.162   7.609
 3555WAT     H110907   9.031   6.222   7.554
 3555WAT     H210908   8.936   6.213   7.687
 3556WAT      O10909   9.768   2.114   6.063
 3556WAT     H110910   9.854   2.095   6.016
 3556WAT     H210911   9.738   2.033   6.112
 3557WAT      O10912   0.120   6.666   4.713
 3557WAT     H110913   0.199   6.725   4.697
 3557WAT     H210914   0.124   6.587   4.653
 3558WAT      O10915   9.667   3.469   8.272
 3558WAT     H110916   9.702   3.427   8.356
 3558WAT     H210917   9.619   3.554   8.295
 3559WAT      O10918   6.373   1.817   2.939
 3559WAT     H110919   6.282   1.774   2.937
 3559WAT     H210920   6.407   1.817   3.033
 3560WAT      O10921   9.633   9.459   1.529
 3560WAT     H110922   9.680   9.544   1.505
 3560WAT     H210923   9.658   9.433   1.622
 3561WAT      O10924   2.618   2.470   4.531
 3561WAT     H110925   2.676   2.518   4.597
 3561WAT     H210926   2.670   2.394   4.491
 3562WAT      O10927   5.787   8.338   3.962
 3562WAT     H110928   5.883   8.353   3.936
 3562WAT     H210929   5.760   8.245   3.936
 3563WAT      O10930   4.907   9.498   8.653
 3563WAT     H110931   4.939   9.421   8.597
 3563WAT     H210932   4.944   9.583   8.617
 3564WAT      O10933   8.171   9.824   5.871
 3564WAT     H110934   8.086   9.805   5.821
 3564WAT     H210935   8.183   9.923   5.879
 3565WAT      O10936   9.664   5.924   9.315
 3565WAT     H110937   9.662   5.926   9.415
 3565WAT     H210938   9.715   5.843   9.284
 3566WAT      O10939   2.620   5.320   2.102
 3566WAT     H110940   2.631   5.233   2.148
 3566WAT     H210941   2.612   5.305   2.003
 3567WAT      O10942   5.106   7.252   4.674
 3567WAT     H110943   5.035   7.216   4.613
 3567WAT     H210944   5.193   7.257   4.625
 3568WAT      O10945   3.006   9.816   4.992
 3568WAT     H110946   2.968   9.898   5.036
 3568WAT     H210947   2.941   9.782   4.924
 3569WAT      O10948   7.730   3.941   4.464
 3569WAT     H110949   7.807   3.970   4.521
 3569WAT     H210950   7.675   4.021   4.440
 3570WAT      O10951   8.384   7.327   5.865
 3570WAT     H110952   8.424   7.256   5.922
 3570WAT     H210953   8.454   7.364   5.804
 3571WAT      O10954   4.292   1.374   8.861
 3571WAT     H110955   4.296   1.461   8.810
 3571WAT     H210956   4.296   1.298   8.796
 3572WAT      O10957   2.981   7.839   8.589
 3572WAT     H110958   2.929   7.754   8.599
 3572WAT     H210959   2.963   7.899   8.668
 3573WAT      O10960   4.248   0.479   3.569
 3573WAT     H110961   4.341   0.511   3.554
 3573WAT     H210962   4.184   0.556   3.558
 3574WAT      O10963   6.537   3.639   9.019
 3574WAT     H110964   6.492   3.630   9.107
 3574WAT     H210965   6.610   3.707   9.025
 3575WAT      O10966   5.318   0.287   7.481
 3575WAT     H110967   5.321   0.206   7.541
 3575WAT     H210968   5.411   0.310   7.453
 3576WAT      O10969   0.762   6.596   7.999
 3576WAT     H110970   0.791   6.606   7.904
 3576WAT     H210971   0.662   6.588   8.004
 3577WAT      O10972   3.206   1.269   4.389
 3577WAT     H110973   3.161   1.272   4.478
 3577WAT     H210974   3.305   1.276   4.401
 3578WAT      O10975   8.112   3.193   2.351
 3578WAT     H110976   8.130   3.147   2.264
 3578WAT     H210977   8.186   3.257   2.371
 3579WAT      O10978   0.414   5.523   5.202
 3579WAT     H110979   0.435   5.453   5.134
 3579WAT     H210980   0.413   5.483   5.293
 3580WAT      O10981   4.027   0.629   3.547
 3580WAT     H110982   3.947   0.612   3.604
 3580WAT     H210983   4.003   0.621   3.451
 3581WAT      O10984   0.477   9.095   7.946
 3581WAT     H110985   0.414   9.082   7.869
 3581WAT     H210986   0.444   9.044   8.025
 3582WAT      O10987   9.581   0.688   7.494
 3582WAT     H110988   9.638   0.698   7.575
 3582WAT     H210989   9.584   0.772   7.440
 3583WAT      O10990   1.757   0.287   7.758
 3583WAT     H110991   1.701   0.357   7.714
 3583WAT     H210992   1.788   0.221   7.689
 3584WAT      O10993   8.011   2.001   7.520
 3584WAT     H110994   7.965   1.991   7.431
 3584WAT     H210995   8.095   1.946   7.520
 3585WAT      O10996   3.204   0.095   5.301
 3585WAT     H110997   3.285   0.119   5.354
 3585WAT     H210998   3.146   0.175   5.291
 3586WAT      O10999   3.108   2.038   5.760
 3586WAT     H111000   3.079   2.103   5.830
 3586WAT     H211001   3.049   1.957   5.763
 3587WAT      O11002   1.393   2.606   0.821
 3587WAT     H111003   1.423   2.537   0.754
 3587WAT     H211004   1.330   2.670   0.776
 3588WAT      O11005   6.850   6.321   9.249
 3588WAT     H111006   6.921   6.304   9.180
 3588WAT     H211007   6.824   6.418   9.247
 3589WAT      O11008   2.503   4.599   7.475
 3589WAT     H111009   2.542   4.548   7.552
 3589WAT     H211010   2.565   4.672   7.448
 3590WAT      O11011   7.025   1.444   8.617
 3590WAT     H111012   7.008   1.477   8.524
 3590WAT     H211013   6.938   1.430   8.664
 3591WAT      O11014   1.852   5.767   0.118
 3591WAT     H111015   1.932   5.825   0.136
 3591WAT     H211016   1.841   5.702   0.193
 3592WAT      O11017   2.120   3.571   6.579
 3592WAT     H111018   2.029   3.528   6.576
 3592WAT     H211019   2.187   3.509   6.537
 3593WAT      O11020   5.683   9.088   5.775
 3593WAT     H111021   5.591   9.126   5.766
 3593WAT     H211022   5.686   9.025   5.852
 3594WAT      O11023   9.674   9.811   9.745
 3594WAT     H111024   9.734   9.842   9.818
 3594WAT     H211025   9.709   9.842   9.657
 3595WAT      O11026   6.086   9.040   4.048
 3595WAT     H111027   6.161   9.062   4.111
 3595WAT     H211028   6.036   9.123   4.025
 3596WAT      O11029   2.132   8.565   6.614
 3596WAT     H111030   2.033   8.552   6.602
 3596WAT     H211031   2.169   8.490   6.669
 3597WAT      O11032   4.700   5.231   2.294
 3597WAT     H111033   4.721   5.230   2.392
 3597WAT     H211034   4.600   5.232   2.282
 3598WAT      O11035   3.283   2.772   9.870
 3598WAT     H111036   3.276   2.748   9.967
 3598WAT     H211037   3.233   2.857   9.854
 3599WAT      O11038   0.238   1.888   5.440
 3599WAT     H111039   0.252   1.972   5.492
 3599WAT     H211040   0.153   1.844   5.470
 3600WAT      O11041   8.844   2.747   9.309
 3600WAT     H111042   8.812   2.801   9.387
 3600WAT     H211043   8.941   2.728   9.320
 3601WAT      O11044   1.196   3.828   0.186
 3601WAT     H111045   1.231   3.920   0.166
 3601WAT     H211046   1.103   3.835   0.220
 3602WAT      O11047   8.291   8.412   0.731
 3602WAT     H111048   8.372   8.428   0.787
 3602WAT     H211049   8.308   8.445   0.638
 3603WAT      O11050   9.711   7.546   5.764
 3603WAT     H111051   9.762   7.524   5.848
 3603WAT     H211052   9.625   7.496   5.764
 3604WAT      O11053   7.548   1.323   1.387
 3604WAT     H111054   7.598   1.322   1.473
 3604WAT     H211055   7.608   1.358   1.314
 3605WAT      O11056   6.741   4.075   0.300
 3605WAT     H111057   6.815   4.044   0.240
 3605WAT     H211058   6.660   4.019   0.286
 3606WAT      O11059   2.308   6.750   5.228
 3606WAT     H111060   2.383   6.801   5.186
 3606WAT     H211061   2.223   6.802   5.218
 3607WAT      O11062   7.538   0.573   8.087
 3607WAT     H111063   7.489   0.499   8.043
 3607WAT     H211064   7.531   0.656   8.031
 3608WAT      O11065   6.541   0.867   0.850
 3608WAT     H111066   6.615   0.803   0.830
 3608WAT     H211067   6.469   0.820   0.902
 3609WAT      O11068   9.275   4.674   5.950
 3609WAT     H111069   9.364   4.718   5.962
 3609WAT     H211070   9.283   4.602   5.881
 3610WAT      O11071   5.214   1.652   4.817
 3610WAT     H111072   5.309   1.637   4.789
 3610WAT     H211073   5.203   1.744   4.854
 3611WAT      O11074   9.133   5.666   6.177
 3611WAT     H111075   9.192   5.594   6.214
 3611WAT     H211076   9.118   5.648   6.079
 3612WAT      O11077   9.557   8.429   8.437
 3612WAT     H111078   9.590   8.371   8.512
 3612WAT     H211079   9.619   8.422   8.359
 3613WAT      O11080   3.758   9.098   9.136
 3613WAT     H111081   3.685   9.051   9.085
 3613WAT     H211082   3.784   9.182   9.087
 3614WAT      O11083   5.004   9.708   6.567
 3614WAT     H111084   4.969   9.794   6.531
 3614WAT     H211085   5.014   9.715   6.666
 3615WAT      O11086   9.273   9.417   0.998
 3615WAT     H111087   9.289   9.403   0.900
 3615WAT     H211088   9.357   9.447   1.042
 3616WAT      O11089   4.821   5.916   0.527
 3616WAT     H111090   4.870   5.860   0.460
 3616WAT     H211091   4.879   5.993   0.554
 3617WAT      O11092   7.371   6.917   3.557
 3617WAT     H111093   7.360   6.818   3.544
 3617WAT     H211094   7.383   6.936   3.655
 3618WAT      O11095   8.027   2.869   5.608
 3618WAT     H111096   8.062   2.867   5.515
 3618WAT     H211097   8.088   2.819   5.669
 3619WAT      O11098   7.438   1.924   3.933
 3619WAT     H111099   7.458   1.945   4.029
 3619WAT     H211100   7.404   1.831   3.925
 3620WAT      O11101   8.747   9.266   7.467
 3620WAT     H111102   8.809   9.284   7.391
 3620WAT     H211103   8.795   9.280   7.554
 3621WAT      O11104   3.598   2.523   3.356
 3621WAT     H111105   3.583   2.598   3.291
 3621WAT     H211106   3.685   2.537   3.403
 3622WAT      O11107   9.420   4.998   0.191
 3622WAT     H111108   9.330   4.986   0.149
 3622WAT     H211109   9.468   4.910   0.192
 3623WAT      O11110   5.503   7.586   3.387
 3623WAT     H111111   5.494   7.487   3.377
 3623WAT     H211112   5.568   7.607   3.461
 3624WAT      O11113   9.769   1.985   5.405
 3624WAT     H111114   9.806   1.935   5.483
 3624WAT     H211115   9.769   2.083   5.425
 3625WAT      O11116   2.631   8.106   0.534
 3625WAT     H111117   2.553   8.163   0.510
 3625WAT     H211118   2.635   8.094   0.633
 3626WAT      O11119   6.291   8.926   2.809
 3626WAT     H111120   6.327   8.837   2.838
 3626WAT     H211121   6.321   8.945   2.715
 3627WAT      O11122   4.024   8.952   2.700
 3627WAT     H111123   3.977   8.975   2.615
 3627WAT     H211124   4.105   9.011   2.710
 3628WAT      O11125   7.096   5.109   8.278
 3628WAT     H111126   7.072   5.013   8.273
 3628WAT     H211127   7.097   5.139   8.373
 3629WAT      O11128   9.495   0.552   5.785
 3629WAT     H111129   9.558   0.486   5.743
 3629WAT     H211130   9.526   0.645   5.764
 3630WAT      O11131   6.366   1.631   2.032
 3630WAT     H111132   6.275   1.594   2.014
 3630WAT     H211133   6.398   1.682   1.953
 3631WAT      O11134   5.123   8.804   7.362
 3631WAT     H111135   5.099   8.900   7.368
 3631WAT     H211136   5.040   8.748   7.356
 3632WAT      O11137   3.721   8.969   3.212
 3632WAT     H111138   3.687   9.003   3.300
 3632WAT     H211139   3.819   8.952   3.218
 3633WAT      O11140   8.135   2.841   3.720
 3633WAT     H111141   8.182   2.916   3.674
 3633WAT     H211142   8.201   2.776   3.755
 3634WAT      O11143   9.138   2.466   7.957
 3634WAT     H111144   9.098   2.391   7.905
 3634WAT     H211145   9.238   2.461   7.951
 3635WAT      O11146   4.207   1.225   2.296
 3635WAT     H111147   4.136   1.251   2.230
 3635WAT     H211148   4.285   1.286   2.285
 3636WAT      O11149   6.493   7.841   3.237
 3636WAT     H111150   6.467   7.770   3.301
 3636WAT     H211151   6.540   7.800   3.159
 3637WAT      O11152   1.388   2.493   1.671
 3637WAT     H111153   1.363   2.465   1.578
 3637WAT     H211154   1.377   2.592   1.681
 3638WAT      O11155   4.553   1.421   4.266
 3638WAT     H111156   4.523   1.325   4.264
 3638WAT     H211157   4.617   1.434   4.342
 3639WAT      O11158   3.742   3.908   9.865
 3639WAT     H111159   3.809   3.865   9.804
 3639WAT     H211160   3.785   3.928   9.953
 3640WAT      O11161   5.515   3.379   6.516
 3640WAT     H111162   5.441   3.433   6.476
 3640WAT     H211163   5.574   3.438   6.571
 3641WAT      O11164   4.182   8.714   9.003
 3641WAT     H111165   4.096   8.748   8.967
 3641WAT     H211166   4.199   8.622   8.969
 3642WAT      O11167   1.958   2.509   7.171
 3642WAT     H111168   1.955   2.528   7.072
 3642WAT     H211169   1.878   2.454   7.197
 3643WAT      O11170   0.429   4.019   2.551
 3643WAT     H111171   0.417   4.052   2.458
 3643WAT     H211172   0.392   3.926   2.559
 3644WAT      O11173   4.915   5.598   8.052
 3644WAT     H111174   4.817   5.576   8.050
 3644WAT     H211175   4.930   5.684   8.003
 3645WAT      O11176   0.908   8.681   8.922
 3645WAT     H111177   0.862   8.761   8.882
 3645WAT     H211178   0.857   8.651   9.003
 3646WAT      O11179   8.610   2.878   8.113
 3646WAT     H111180   8.649   2.787   8.101
 3646WAT     H211181   8.683   2.944   8.128
 3647WAT      O11182   6.490   1.760   5.697
 3647WAT     H111183   6.468   1.678   5.749
 3647WAT     H211184   6.575   1.799   5.731
 3648WAT      O11185   8.763   8.489   6.650
 3648WAT     H111186   8.721   8.572   6.686
 3648WAT     H211187   8.830   8.454   6.716
 3649WAT      O11188   1.663   1.118   0.227
 3649WAT     H111189   1.669   1.040   0.164
 3649WAT     H211190   1.567   1.147   0.233
 3650WAT      O11191   5.085   0.067   5.884
 3650WAT     H111192   5.134   0.000   5.828
 3650WAT     H211193   5.142   0.148   5.897
 3651WAT      O11194   9.597   1.839   7.070
 3651WAT     H111195   9.641   1.878   7.150
 3651WAT     H211196   9.539   1.762   7.098
 3652WAT      O11197   3.466   9.083   5.026
 3652WAT     H111198   3.462   9.130   5.114
 3652WAT     H211199   3.560   9.052   5.010
 3653WAT      O11200   9.661   3.805   7.829
 3653WAT     H111201   9.758   3.828   7.840
 3653WAT     H211202   9.641   3.718   7.874
 3654WAT      O11203   2.624   5.204   7.226
 3654WAT     H111204   2.593   5.299   7.234
 3654WAT     H211205   2.705   5.192   7.283
 3655WAT      O11206   3.985   1.809   3.204
 3655WAT     H111207   4.021   1.846   3.119
 3655WAT     H211208   3.894   1.847   3.222
 3656WAT      O11209   2.791   0.652   6.901
 3656WAT     H111210   2.728   0.697   6.838
 3656WAT     H211211   2.865   0.610   6.849
 3657WAT      O11212   1.882   0.733   1.633
 3657WAT     H111213   1.895   0.757   1.729
 3657WAT     H211214   1.911   0.639   1.617
 3658WAT      O11215   4.171   0.296   4.309
 3658WAT     H111216   4.076   0.297   4.277
 3658WAT     H211217   4.219   0.377   4.275
 3659WAT      O11218   1.620   8.943   7.799
 3659WAT     H111219   1.626   8.959   7.898
 3659WAT     H211220   1.686   8.873   7.772
 3660WAT      O11221   5.698   5.719   1.345
 3660WAT     H111222   5.624   5.786   1.354
 3660WAT     H211223   5.659   5.631   1.316
 3661WAT      O11224   6.976   6.738   6.614
 3661WAT     H111225   6.994   6.668   6.684
 3661WAT     H211226   6.915   6.807   6.651
 3662WAT      O11227   4.090   8.079   5.574
 3662WAT     H111228   4.053   8.166   5.606
 3662WAT     H211229   4.088   8.076   5.474
 3663WAT      O11230   0.590   3.785   3.675
 3663WAT     H111231   0.593   3.851   3.750
 3663WAT     H211232   0.605   3.693   3.712
 3664WAT      O11233   6.107   5.262   9.062
 3664WAT     H111234   6.080   5.270   9.158
 3664WAT     H211235   6.137   5.352   9.029
 3665WAT      O11236   4.728   5.543   6.891
 3665WAT     H111237   4.785   5.493   6.825
 3665WAT     H211238   4.700   5.481   6.964
 3666WAT      O11239   3.002   5.947   5.340
 3666WAT     H111240   3.003   5.970   5.243
 3666WAT     H211241   3.095   5.925   5.370
 3667WAT      O11242   9.815   8.407   4.919
 3667WAT     H111243   9.822   8.374   4.825
 3667WAT     H211244   9.899   8.455   4.944
 3668WAT      O11245   0.785   7.063   0.627
 3668WAT     H111246   0.856   7.091   0.563
 3668WAT     H211247   0.812   7.087   0.720
 3669WAT      O11248   9.307   3.492   1.096
 3669WAT     H111249   9.387   3.523   1.045
 3669WAT     H211250   9.326   3.493   1.194
 3670WAT      O11251   4.099   8.977   2.171
 3670WAT     H111252   4.118   9.027   2.256
 3670WAT     H211253   4.139   8.886   2.177
 3671WAT      O11254   6.172   0.504   9.279
 3671WAT     H111255   6.241   0.483   9.211
 3671WAT     H211256   6.208   0.572   9.344
 3672WAT      O11257   7.191   9.218   2.652
 3672WAT     H111258   7.242   9.176   2.577
 3672WAT     H211259   7.243   9.209   2.737
 3673WAT      O11260   4.634   2.241   7.865
 3673WAT     H111261   4.650   2.202   7.775
 3673WAT     H211262   4.581   2.326   7.856
 3674WAT      O11263   4.715   8.518   3.776
 3674WAT     H111264   4.754   8.440   3.727
 3674WAT     H211265   4.622   8.534   3.743
 3675WAT      O11266   3.513   6.295   4.100
 3675WAT     H111267   3.478   6.379   4.058
 3675WAT     H211268   3.613   6.295   4.095
 3676WAT      O11269   0.482   7.937   1.875
 3676WAT     H111270   0.525   7.998   1.942
 3676WAT     H211271   0.481   7.981   1.785
 3677WAT      O11272   8.750   2.299   9.473
 3677WAT     H111273   8.746   2.292   9.373
 3677WAT     H211274   8.846   2.305   9.502
 3678WAT      O11275   3.797   4.798   0.029
 3678WAT     H111276   3.829   4.778  -0.064
 3678WAT     H211277   3.797   4.896   0.044
 3679WAT      O11278   8.016   4.449   1.297
 3679WAT     H111279   8.011   4.546   1.322
 3679WAT     H211280   8.108   4.414   1.318
 3680WAT      O11281   4.694   7.552   2.053
 3680WAT     H111282   4.700   7.503   1.966
 3680WAT     H211283   4.756   7.509   2.120
 3681WAT      O11284   6.582   5.788   7.101
 3681WAT     H111285   6.633   5.831   7.027
 3681WAT     H211286   6.558   5.858   7.169
 3682WAT      O11287   6.101   7.323   3.803
 3682WAT     H111288   6.053   7.253   3.857
 3682WAT     H211289   6.065   7.413   3.826
 3683WAT      O11290   5.552   2.053   6.464
 3683WAT     H111291   5.648   2.047   6.493
 3683WAT     H211292   5.509   1.963   6.471
 3684WAT      O11293   1.205   8.336   0.236
 3684WAT     H111294   1.220   8.419   0.290
 3684WAT     H211295   1.110   8.307   0.245
 3685WAT      O11296   1.212   6.633   8.305
 3685WAT     H111297   1.197   6.536   8.327
 3685WAT     H211298   1.126   6.673   8.272
 3686WAT      O11299   8.730   9.056   5.252
 3686WAT     H111300   8.813   9.111   5.253
 3686WAT     H211301   8.724   9.007   5.165
 3687WAT      O11302   1.339   5.323   7.604
 3687WAT     H111303   1.342   5.372   7.517
 3687WAT     H211304   1.358   5.387   7.679
 3688WAT      O11305   3.740   1.724   8.722
 3688WAT     H111306   3.763   1.787   8.649
 3688WAT     H211307   3.821   1.708   8.779
 3689WAT      O11308   6.682   0.024   0.261
 3689WAT     H111309   6.761   0.021   0.200
 3689WAT     H211310   6.634  -0.063   0.259
 3690WAT      O11311   4.425   0.078   9.560
 3690WAT     H111312   4.466  -0.010   9.586
 3690WAT     H211313   4.392   0.125   9.641
 3691WAT      O11314   1.271   3.542   1.381
 3691WAT     H111315   1.257   3.488   1.464
 3691WAT     H211316   1.232   3.633   1.394
 3692WAT      O11317   8.693   4.791   9.419
 3692WAT     H111318   8.596   4.769   9.419
 3692WAT     H211319   8.714   4.846   9.338
 3693WAT      O11320   4.204   4.988   5.748
 3693WAT     H111321   4.300   5.011   5.727
 3693WAT     H211322   4.148   5.006   5.667
 3694WAT      O11323   7.451   9.798   0.879
 3694WAT     H111324   7.538   9.832   0.844
 3694WAT     H211325   7.448   9.810   0.978
 3695WAT      O11326   3.829   5.067   9.575
 3695WAT     H111327   3.848   4.971   9.597
 3695WAT     H211328   3.795   5.074   9.481
 3696WAT      O11329   2.659   0.499   1.499
 3696WAT     H111330   2.572   0.455   1.519
 3696WAT     H211331   2.717   0.497   1.580
 3697WAT      O11332   9.484   2.161   7.711
 3697WAT     H111333   9.507   2.174   7.808
 3697WAT     H211334   9.521   2.074   7.679
 3698WAT      O11335   2.414   7.869   6.779
 3698WAT     H111336   2.364   7.787   6.751
 3698WAT     H211337   2.452   7.855   6.870
 3699WAT      O11338   1.165   4.993   0.373
 3699WAT     H111339   1.092   5.026   0.434
 3699WAT     H211340   1.253   5.031   0.402
 3700WAT      O11341   5.004   6.299   2.078
 3700WAT     H111342   4.923   6.252   2.043
 3700WAT     H211343   5.083   6.276   2.021
 3701WAT      O11344   3.920   7.133   1.656
 3701WAT     H111345   3.988   7.064   1.630
 3701WAT     H211346   3.949   7.222   1.622
 3702WAT      O11347   3.757   6.688   0.104
 3702WAT     H111348   3.741   6.642   0.016
 3702WAT     H211349   3.695   6.767   0.111
 3703WAT      O11350   6.262   8.058   2.035
 3703WAT     H111351   6.280   8.066   2.133
 3703WAT     H211352   6.334   8.004   1.992
 3704WAT      O11353   7.642   2.504   9.126
 3704WAT     H111354   7.728   2.452   9.128
 3704WAT     H211355   7.654   2.585   9.067
 3705WAT      O11356   5.895   4.879   2.550
 3705WAT     H111357   5.797   4.900   2.546
 3705WAT     H211358   5.933   4.916   2.635
 3706WAT      O11359   5.274   6.097   8.539
 3706WAT     H111360   5.223   6.151   8.607
 3706WAT     H211361   5.210   6.060   8.471
 3707WAT      O11362   4.094   7.261   2.723
 3707WAT     H111363   4.166   7.302   2.667
 3707WAT     H211364   4.134   7.202   2.792
 3708WAT      O11365   0.637   1.186   3.141
 3708WAT     H111366   0.628   1.266   3.201
 3708WAT     H211367   0.546   1.150   3.120
 3709WAT      O11368   0.877   3.442   7.157
 3709WAT     H111369   0.931   3.424   7.240
 3709WAT     H211370   0.798   3.381   7.156
 3710WAT      O11371   1.727   9.274   1.255
 3710WAT     H111372   1.754   9.218   1.333
 3710WAT     H211373   1.807   9.324   1.221
 3711WAT      O11374   0.442   1.174   1.461
 3711WAT     H111375   0.351   1.215   1.451
 3711WAT     H211376   0.448   1.128   1.549
 3712WAT      O11377   5.150   3.765   2.150
 3712WAT     H111378   5.070   3.740   2.094
 3712WAT     H211379   5.231   3.766   2.092
 3713WAT      O11380   9.262   4.912   8.313
 3713WAT     H111381   9.255   4.839   8.382
 3713WAT     H211382   9.305   4.875   8.230
 3714WAT      O11383   7.848   7.573   4.930
 3714WAT     H111384   7.798   7.561   5.016
 3714WAT     H211385   7.932   7.623   4.948
 3715WAT      O11386   7.479   2.197   8.904
 3715WAT     H111387   7.436   2.272   8.953
 3715WAT     H211388   7.421   2.171   8.826
 3716WAT      O11389   5.112   1.051   6.392
 3716WAT     H111390   5.048   1.026   6.465
 3716WAT     H211391   5.083   1.137   6.350
 3717WAT      O11392   7.533   6.062   8.462
 3717WAT     H111393   7.525   6.005   8.380
 3717WAT     H211394   7.603   6.132   8.448
 3718WAT      O11395   7.567   1.760   1.197
 3718WAT     H111396   7.472   1.753   1.229
 3718WAT     H211397   7.592   1.856   1.187
 3719WAT      O11398   1.693   1.684   6.275
 3719WAT     H111399   1.705   1.755   6.207
 3719WAT     H211400   1.778   1.671   6.326
 3720WAT      O11401   0.472   3.359   2.169
 3720WAT     H111402   0.538   3.314   2.110
 3720WAT     H211403   0.393   3.388   2.115
 3721WAT      O11404   4.928   2.193   5.832
 3721WAT     H111405   4.917   2.161   5.926
 3721WAT     H211406   4.927   2.115   5.770
 3722WAT      O11407   7.770   5.076   8.049
 3722WAT     H111408   7.782   5.174   8.064
 3722WAT     H211409   7.727   5.061   7.960
 3723WAT      O11410   4.154   2.231   6.115
 3723WAT     H111411   4.144   2.179   6.031
 3723WAT     H211412   4.251   2.237   6.140
 3724WAT      O11413   4.904   6.829   0.106
 3724WAT     H111414   4.895   6.894   0.182
 3724WAT     H211415   4.974   6.761   0.128
 3725WAT      O11416   6.739   8.696   9.221
 3725WAT     H111417   6.762   8.683   9.125
 3725WAT     H211418   6.702   8.788   9.235
 3726WAT      O11419   5.920   3.307   0.985
 3726WAT     H111420   6.017   3.284   0.972
 3726WAT     H211421   5.906   3.404   0.967
 3727WAT      O11422   0.536   8.093   8.000
 3727WAT     H111423   0.511   8.122   8.093
 3727WAT     H211424   0.635   8.079   7.994
 3728WAT      O11425   7.081   9.084   4.857
 3728WAT     H111426   7.136   9.152   4.807
 3728WAT     H211427   7.030   9.029   4.791
 3729WAT      O11428   1.901   6.507   5.902
 3729WAT     H111429   1.994   6.484   5.932
 3729WAT     H211430   1.898   6.507   5.802
 3730WAT      O11431   1.261   3.704   2.621
 3730WAT     H111432   1.183   3.741   2.571
 3730WAT     H211433   1.315   3.646   2.560
 3731WAT      O11434   2.689   7.362   2.280
 3731WAT     H111435   2.767   7.383   2.338
 3731WAT     H211436   2.612   7.332   2.337
 3732WAT      O11437   2.828   5.156   1.303
 3732WAT     H111438   2.807   5.201   1.390
 3732WAT     H211439   2.750   5.163   1.241
 3733WAT      O11440   1.549   6.513   8.428
 3733WAT     H111441   1.576   6.438   8.488
 3733WAT     H211442   1.507   6.586   8.482
 3734WAT      O11443   7.997   7.189   4.514
 3734WAT     H111444   8.040   7.262   4.568
 3734WAT     H211445   8.027   7.100   4.549
 3735WAT      O11446   6.588   1.052   7.270
 3735WAT     H111447   6.589   1.125   7.201
 3735WAT     H211448   6.680   1.042   7.309
 3736WAT      O11449   2.238   2.516   6.060
 3736WAT     H111450   2.222   2.417   6.062
 3736WAT     H211451   2.244   2.547   5.965
 3737WAT      O11452   5.417   9.666   5.288
 3737WAT     H111453   5.396   9.629   5.197
 3737WAT     H211454   5.467   9.752   5.278
 3738WAT      O11455   1.756   3.349   0.732
 3738WAT     H111456   1.816   3.270   0.722
 3738WAT     H211457   1.664   3.318   0.758
 3739WAT      O11458   1.775   5.184   0.189
 3739WAT     H111459   1.760   5.086   0.204
 3739WAT     H211460   1.869   5.207   0.215
 3740WAT      O11461   4.748   6.709   3.602
 3740WAT     H111462   4.815   6.637   3.583
 3740WAT     H211463   4.656   6.676   3.583
 3741WAT      O11464   3.962   4.859   8.396
 3741WAT     H111465   4.038   4.802   8.365
 3741WAT     H211466   3.959   4.943   8.343
 3742WAT      O11467   0.476   5.273   2.345
 3742WAT     H111468   0.449   5.361   2.306
 3742WAT     H211469   0.572   5.277   2.372
 3743WAT      O11470   8.875   9.368   0.147
 3743WAT     H111471   8.964   9.330   0.127
 3743WAT     H211472   8.815   9.360   0.067
 3744WAT      O11473   7.021   2.518   1.620
 3744WAT     H111474   6.966   2.514   1.537
 3744WAT     H211475   7.085   2.595   1.614
 3745WAT      O11476   1.113   1.928   5.362
 3745WAT     H111477   1.207   1.962   5.377
 3745WAT     H211478   1.078   1.966   5.276
 3746WAT      O11479   4.580   7.830   1.064
 3746WAT     H111480   4.501   7.838   1.002
 3746WAT     H211481   4.548   7.805   1.155
 3747WAT      O11482   8.663   5.830   9.762
 3747WAT     H111483   8.680   5.927   9.744
 3747WAT     H211484   8.610   5.791   9.687
 3748WAT      O11485   8.726   3.969   5.710
 3748WAT     H111486   8.667   3.902   5.666
 3748WAT     H211487   8.776   4.020   5.640
 3749WAT      O11488   8.944   0.981   0.967
 3749WAT     H111489   8.855   0.984   1.012
 3749WAT     H211490   9.016   0.986   1.036
 3750WAT      O11491   8.448   8.408   4.653
 3750WAT     H111492   8.544   8.402   4.625
 3750WAT     H211493   8.443   8.440   4.747
 3751WAT      O11494   2.541   6.172   7.649
 3751WAT     H111495   2.637   6.198   7.636
 3751WAT     H211496   2.489   6.252   7.678
 3752WAT      O11497   8.793   7.827   2.515
 3752WAT     H111498   8.841   7.770   2.448
 3752WAT     H211499   8.769   7.772   2.595
 3753WAT      O11500   7.675   9.238   0.403
 3753WAT     H111501   7.726   9.323   0.411
 3753WAT     H211502   7.687   9.199   0.312
 3754WAT      O11503   1.528   1.491   0.016
 3754WAT     H111504   1.597   1.497  -0.057
 3754WAT     H211505   1.565   1.438   0.092
 3755WAT      O11506   6.170   2.899   5.086
 3755WAT     H111507   6.233   2.871   5.157
 3755WAT     H211508   6.204   2.868   4.997
 3756WAT      O11509   7.474   8.893   6.154
 3756WAT     H111510   7.513   8.974   6.111
 3756WAT     H211511   7.381   8.914   6.186
 3757WAT      O11512   4.383   3.359   9.467
 3757WAT     H111513   4.481   3.355   9.485
 3757WAT     H211514   4.361   3.447   9.426
 3758WAT      O11515   4.419   3.062   0.287
 3758WAT     H111516   4.460   3.009   0.212
 3758WAT     H211517   4.485   3.130   0.320
 3759WAT      O11518   0.781   8.498   0.028
 3759WAT     H111519   0.697   8.461   0.066
 3759WAT     H211520   0.824   8.559   0.094
 3760WAT      O11521   6.631   5.229   3.454
 3760WAT     H111522   6.655   5.264   3.544
 3760WAT     H211523   6.532   5.217   3.448
 3761WAT      O11524   7.811   4.168   0.531
 3761WAT     H111525   7.893   4.211   0.569
 3761WAT     H211526   7.837   4.081   0.489
 3762WAT      O11527   6.375   0.448   9.072
 3762WAT     H111528   6.415   0.460   8.982
 3762WAT     H211529   6.315   0.368   9.072
 3763WAT      O11530   8.978   0.932   5.726
 3763WAT     H111531   8.947   0.911   5.819
 3763WAT     H211532   8.919   0.885   5.660
 3764WAT      O11533   4.474   7.837   5.556
 3764WAT     H111534   4.473   7.870   5.462
 3764WAT     H211535   4.451   7.739   5.558
 3765WAT      O11536   6.440   9.160   6.630
 3765WAT     H111537   6.494   9.076   6.623
 3765WAT     H211538   6.352   9.147   6.583
 3766WAT      O11539   0.666   0.797   4.706
 3766WAT     H111540   0.759   0.767   4.728
 3766WAT     H211541   0.601   0.751   4.766
 3767WAT      O11542   3.812   5.215   4.052
 3767WAT     H111543   3.756   5.289   4.014
 3767WAT     H211544   3.817   5.140   3.987
 3768WAT      O11545   1.428   6.624   7.061
 3768WAT     H111546   1.354   6.664   7.114
 3768WAT     H211547   1.431   6.666   6.970
 3769WAT      O11548   7.820   6.803   1.449
 3769WAT     H111549   7.794   6.823   1.543
 3769WAT     H211550   7.740   6.771   1.398
 3770WAT      O11551   1.027   6.255   3.996
 3770WAT     H111552   1.094   6.307   3.944
 3770WAT     H211553   0.970   6.317   4.049
 3771WAT      O11554   3.985   2.879   1.631
 3771WAT     H111555   4.037   2.911   1.711
 3771WAT     H211556   3.965   2.782   1.641
 3772WAT      O11557   5.128   0.587   2.206
 3772WAT     H111558   5.151   0.522   2.134
 3772WAT     H211559   5.040   0.629   2.186
 3773WAT      O11560   0.027   1.147   3.618
 3773WAT     H111561   0.066   1.234   3.649
 3773WAT     H211562   0.099   1.091   3.577
 3774WAT      O11563   0.456   7.655   5.334
 3774WAT     H111564   0.393   7.679   5.407
 3774WAT     H211565   0.457   7.727   5.265
 3775WAT      O11566   9.409   4.869   3.932
 3775WAT     H111567   9.337   4.861   3.863
 3775WAT     H211568   9.370   4.851   4.023
 3776WAT      O11569   9.772   6.445   4.862
 3776WAT     H111570   9.821   6.516   4.912
 3776WAT     H211571   9.815   6.431   4.773
 3777WAT      O11572   8.563   6.219   4.407
 3777WAT     H111573   8.620   6.299   4.424
 3777WAT     H211574   8.604   6.165   4.333
 3778WAT      O11575   7.010   9.115   1.254
 3778WAT     H111576   7.097   9.161   1.237
 3778WAT     H211577   7.010   9.026   1.209
 3779WAT      O11578   0.022   4.415   0.246
 3779WAT     H111579  -0.077   4.430   0.252
 3779WAT     H211580   0.062   4.415   0.338
 3780WAT      O11581   7.405   6.805   7.691
 3780WAT     H111582   7.443   6.849   7.610
 3780WAT     H211583   7.343   6.869   7.737
 3781WAT      O11584   2.524   7.647   0.008
 3781WAT     H111585   2.438   7.664  -0.040
 3781WAT     H211586   2.508   7.583   0.083
 3782WAT      O11587   3.423   8.065   7.632
 3782WAT     H111588   3.416   8.058   7.532
 3782WAT     H211589   3.478   7.989   7.667
 3783WAT      O11590   3.963   4.392   4.240
 3783WAT     H111591   4.050   4.366   4.199
 3783WAT     H211592   3.979   4.441   4.325
 3784WAT      O11593   3.167   8.611   2.369
 3784WAT     H111594   3.261   8.611   2.335
 3784WAT     H211595   3.152   8.530   2.427
 3785WAT      O11596   2.475   3.629   0.871
 3785WAT     H111597   2.434   3.593   0.787
 3785WAT     H211598   2.561   3.676   0.850
 3786WAT      O11599   3.138   9.605   5.634
 3786WAT     H111600   3.068   9.673   5.657
 3786WAT     H211601   3.093   9.518   5.615
 3787WAT      O11602   0.557   0.264   9.079
 3787WAT     H111603   0.563   0.215   8.993
 3787WAT     H211604   0.648   0.269   9.121
 3788WAT      O11605   7.342   8.209   6.532
 3788WAT     H111606   7.437   8.208   6.499
 3788WAT     H211607   7.291   8.281   6.485
 3789WAT      O11608   0.868   6.661   7.739
 3789WAT     H111609   0.817   6.722   7.678
 3789WAT     H211610   0.955   6.703   7.763
 3790WAT      O11611   0.159   2.610   7.612
 3790WAT     H111612   0.148   2.592   7.710
 3790WAT     H211613   0.071   2.595   7.566
 3791WAT      O11614   1.498   2.161   5.983
 3791WAT     H111615   1.556   2.227   5.937
 3791WAT     H211616   1.414   2.147   5.930
 3792WAT      O11617   8.820   8.559   7.231
 3792WAT     H111618   8.822   8.461   7.252
 3792WAT     H211619   8.789   8.572   7.137
 3793WAT      O11620   4.559   1.962   3.425
 3793WAT     H111621   4.647   1.916   3.413
 3793WAT     H211622   4.508   1.958   3.339
 3794WAT      O11623   8.164   8.740   6.853
 3794WAT     H111624   8.244   8.727   6.794
 3794WAT     H211625   8.186   8.708   6.946
 3795WAT      O11626   3.382   0.045   8.622
 3795WAT     H111627   3.376   0.106   8.701
 3795WAT     H211628   3.450   0.081   8.558
 3796WAT      O11629   1.141   8.435   3.199
 3796WAT     H111630   1.055   8.443   3.149
 3796WAT     H211631   1.139   8.496   3.278
 3797WAT      O11632   9.643   3.270   6.856
 3797WAT     H111633   9.690   3.244   6.940
 3797WAT     H211634   9.710   3.295   6.786
 3798WAT      O11635   2.745   8.592   3.595
 3798WAT     H111636   2.794   8.535   3.530
 3798WAT     H211637   2.687   8.657   3.546
 3799WAT      O11638   8.374   3.487   6.997
 3799WAT     H111639   8.407   3.395   7.019
 3799WAT     H211640   8.421   3.554   7.055
 3800WAT      O11641   8.166   0.896   2.242
 3800WAT     H111642   8.104   0.845   2.181
 3800WAT     H211643   8.254   0.908   2.196
 3801WAT      O11644   1.234   9.076   4.588
 3801WAT     H111645   1.158   9.141   4.595
 3801WAT     H211646   1.198   8.983   4.585
 3802WAT      O11647   0.331   6.307   1.413
 3802WAT     H111648   0.407   6.372   1.420
 3802WAT     H211649   0.366   6.214   1.424
 3803WAT      O11650   0.972   3.401   0.314
 3803WAT     H111651   0.943   3.495   0.300
 3803WAT     H211652   0.982   3.355   0.226
 3804WAT      O11653   4.655   3.058   7.496
 3804WAT     H111654   4.633   3.143   7.544
 3804WAT     H211655   4.681   2.988   7.562
 3805WAT      O11656   4.173   2.683   4.074
 3805WAT     H111657   4.096   2.673   4.011
 3805WAT     H211658   4.251   2.722   4.026
 3806WAT      O11659   4.316   5.812   2.247
 3806WAT     H111660   4.269   5.869   2.179
 3806WAT     H211661   4.288   5.839   2.339
 3807WAT      O11662   1.119   4.845   4.881
 3807WAT     H111663   1.101   4.935   4.922
 3807WAT     H211664   1.086   4.773   4.942
 3808WAT      O11665   7.016   7.416   5.233
 3808WAT     H111666   7.108   7.420   5.272
 3808WAT     H211667   6.953   7.468   5.290
 3809WAT      O11668   0.931   7.898   2.772
 3809WAT     H111669   0.922   7.938   2.863
 3809WAT     H211670   1.002   7.827   2.773
 3810WAT      O11671   9.743   1.211   6.651
 3810WAT     H111672   9.718   1.125   6.695
 3810WAT     H211673   9.832   1.202   6.607
 3811WAT      O11674   1.757   7.078   1.988
 3811WAT     H111675   1.796   7.169   1.971
 3811WAT     H211676   1.773   7.019   1.910
 3812WAT      O11677   3.480   9.787   6.413
 3812WAT     H111678   3.491   9.871   6.467
 3812WAT     H211679   3.435   9.809   6.326
 3813WAT      O11680   9.318   5.463   6.258
 3813WAT     H111681   9.290   5.433   6.166
 3813WAT     H211682   9.332   5.383   6.316
 3814WAT      O11683   4.024   4.626   0.941
 3814WAT     H111684   3.942   4.620   0.884
 3814WAT     H211685   4.087   4.694   0.902
 3815WAT      O11686   2.878   7.830   7.669
 3815WAT     H111687   2.860   7.925   7.642
 3815WAT     H211688   2.895   7.827   7.767
 3816WAT      O11689   3.685   4.214   7.815
 3816WAT     H111690   3.656   4.309   7.809
 3816WAT     H211691   3.779   4.210   7.848
 3817WAT      O11692   8.305   5.551   8.965
 3817WAT     H111693   8.233   5.511   8.909
 3817WAT     H211694   8.370   5.480   8.992
 3818WAT      O11695   9.172   7.425   2.451
 3818WAT     H111696   9.176   7.523   2.468
 3818WAT     H211697   9.191   7.407   2.354
 3819WAT      O11698   1.302   4.914   0.758
 3819WAT     H111699   1.234   4.847   0.787
 3819WAT     H211700   1.391   4.889   0.797
 3820WAT      O11701   2.533   9.205   8.758
 3820WAT     H111702   2.629   9.233   8.750
 3820WAT     H211703   2.521   9.149   8.839
 3821WAT      O11704   9.102   8.475   9.710
 3821WAT     H111705   9.129   8.385   9.743
 3821WAT     H211706   9.046   8.521   9.779
 3822WAT      O11707   4.788   3.310   6.414
 3822WAT     H111708   4.876   3.283   6.452
 3822WAT     H211709   4.764   3.250   6.338
 3823WAT      O11710   2.093   4.323   2.571
 3823WAT     H111711   2.167   4.387   2.553
 3823WAT     H211712   2.034   4.360   2.644
 3824WAT      O11713   7.298   1.122   3.135
 3824WAT     H111714   7.256   1.150   3.048
 3824WAT     H211715   7.238   1.057   3.181
 3825WAT      O11716   6.749   6.533   7.198
 3825WAT     H111717   6.814   6.480   7.252
 3825WAT     H211718   6.741   6.494   7.107
 3826WAT      O11719   0.208   0.498   7.958
 3826WAT     H111720   0.132   0.433   7.967
 3826WAT     H211721   0.274   0.483   8.031
 3827WAT      O11722   1.557   8.442   0.296
 3827WAT     H111723   1.586   8.373   0.363
 3827WAT     H211724   1.565   8.404   0.204
 3828WAT      O11725   9.137   5.391   8.304
 3828WAT     H111726   9.178   5.462   8.247
 3828WAT     H211727   9.165   5.301   8.270
 3829WAT      O11728   5.745   5.469   2.507
 3829WAT     H111729   5.714   5.517   2.589
 3829WAT     H211730   5.845   5.472   2.502
 3830WAT      O11731   2.835   4.026   0.143
 3830WAT     H111732   2.747   4.014   0.097
 3830WAT     H211733   2.836   4.114   0.191
 3831WAT      O11734   6.515   4.233   5.105
 3831WAT     H111735   6.424   4.231   5.065
 3831WAT     H211736   6.516   4.180   5.190
 3832WAT      O11737   8.656   3.872   3.652
 3832WAT     H111738   8.586   3.900   3.586
 3832WAT     H211739   8.678   3.775   3.639
 3833WAT      O11740   1.721   4.777   1.425
 3833WAT     H111741   1.738   4.770   1.523
 3833WAT     H211742   1.628   4.810   1.409
 3834WAT      O11743   4.062   6.204   5.442
 3834WAT     H111744   3.991   6.258   5.397
 3834WAT     H211745   4.116   6.156   5.373
 3835WAT      O11746   7.301   4.816   4.063
 3835WAT     H111747   7.340   4.822   4.155
 3835WAT     H211748   7.368   4.846   3.996
 3836WAT      O11749   1.552   9.738   8.234
 3836WAT     H111750   1.493   9.740   8.153
 3836WAT     H211751   1.570   9.832   8.264
 3837WAT      O11752   7.357   9.708   2.448
 3837WAT     H111753   7.286   9.772   2.474
 3837WAT     H211754   7.380   9.721   2.351
 3838WAT      O11755   7.570   0.199   1.974
 3838WAT     H111756   7.481   0.179   1.934
 3838WAT     H211757   7.625   0.252   1.910
 3839WAT      O11758   9.420   7.023   5.127
 3839WAT     H111759   9.425   7.075   5.212
 3839WAT     H211760   9.334   7.043   5.081
 3840WAT      O11761   2.479   7.326   3.256
 3840WAT     H111762   2.406   7.302   3.192
 3840WAT     H211763   2.559   7.269   3.239
 3841WAT      O11764   7.506   8.679   9.703
 3841WAT     H111765   7.469   8.748   9.641
 3841WAT     H211766   7.465   8.691   9.794
 3842WAT      O11767   6.478   1.738   4.979
 3842WAT     H111768   6.467   1.657   4.922
 3842WAT     H211769   6.400   1.745   5.042
 3843WAT      O11770   8.301   5.995   7.566
 3843WAT     H111771   8.363   6.036   7.633
 3843WAT     H211772   8.352   5.968   7.484
 3844WAT      O11773   4.412   7.679   3.596
 3844WAT     H111774   4.389   7.589   3.559
 3844WAT     H211775   4.346   7.703   3.668
 3845WAT      O11776   8.799   4.510   2.130
 3845WAT     H111777   8.892   4.488   2.158
 3845WAT     H211778   8.740   4.431   2.145
 3846WAT      O11779   0.254   6.978   5.292
 3846WAT     H111780   0.291   6.937   5.209
 3846WAT     H211781   0.159   7.006   5.275
 3847WAT      O11782   7.660   1.305   3.276
 3847WAT     H111783   7.584   1.341   3.329
 3847WAT     H211784   7.631   1.224   3.226
 3848WAT      O11785   1.156   5.324   0.244
 3848WAT     H111786   1.214   5.375   0.180
 3848WAT     H211787   1.196   5.328   0.336
 3849WAT      O11788   8.619   2.619   8.505
 3849WAT     H111789   8.566   2.703   8.494
 3849WAT     H211790   8.565   2.541   8.473
 3850WAT      O11791   3.967   7.815   8.874
 3850WAT     H111792   4.004   7.809   8.966
 3850WAT     H211793   4.042   7.833   8.809
 3851WAT      O11794   1.400   8.330   2.270
 3851WAT     H111795   1.309   8.346   2.231
 3851WAT     H211796   1.397   8.250   2.330
 3852WAT      O11797   3.805   6.750   8.158
 3852WAT     H111798   3.826   6.835   8.110
 3852WAT     H211799   3.792   6.676   8.092
 3853WAT      O11800   9.581   7.181   0.096
 3853WAT     H111801   9.498   7.131   0.120
 3853WAT     H211802   9.635   7.199   0.179
 3854WAT      O11803   2.300   3.762   9.712
 3854WAT     H111804   2.386   3.802   9.678
 3854WAT     H211805   2.237   3.836   9.737
 3855WAT      O11806   0.115   0.328   0.247
 3855WAT     H111807   0.209   0.319   0.215
 3855WAT     H211808   0.110   0.301   0.344
 3856WAT      O11809   1.384   1.601   7.753
 3856WAT     H111810   1.396   1.603   7.853
 3856WAT     H211811   1.473   1.597   7.709
 3857WAT      O11812   3.771   8.973   6.198
 3857WAT     H111813   3.700   8.939   6.260
 3857WAT     H211814   3.858   8.929   6.220
 3858WAT      O11815   0.811   1.201   9.801
 3858WAT     H111816   0.766   1.130   9.747
 3858WAT     H211817   0.906   1.212   9.770
 3859WAT      O11818   5.678   8.299   4.837
 3859WAT     H111819   5.711   8.387   4.803
 3859WAT     H211820   5.715   8.283   4.929
 3860WAT      O11821   8.390   7.370   8.996
 3860WAT     H111822   8.471   7.354   9.052
 3860WAT     H211823   8.318   7.305   9.021
 3861WAT      O11824   9.532   6.186   1.500
 3861WAT     H111825   9.492   6.106   1.546
 3861WAT     H211826   9.522   6.175   1.401
 3862WAT      O11827   6.359   0.368   8.524
 3862WAT     H111828   6.340   0.304   8.449
 3862WAT     H211829   6.277   0.379   8.580
 3863WAT      O11830   9.153   9.065   0.202
 3863WAT     H111831   9.162   9.010   0.284
 3863WAT     H211832   9.239   9.114   0.184
 3864WAT      O11833   2.713   2.047   8.094
 3864WAT     H111834   2.706   1.953   8.062
 3864WAT     H211835   2.696   2.050   8.192
 3865WAT      O11836   6.556   1.589   0.280
 3865WAT     H111837   6.506   1.592   0.194
 3865WAT     H211838   6.636   1.648   0.274
 3866WAT      O11839   5.299   2.783   0.827
 3866WAT     H111840   5.206   2.746   0.828
 3866WAT     H211841   5.301   2.869   0.878
 3867WAT      O11842   0.823   0.363   7.998
 3867WAT     H111843   0.876   0.430   7.946
 3867WAT     H211844   0.726   0.385   7.991
 3868WAT      O11845   2.186   1.588   5.627
 3868WAT     H111846   2.126   1.522   5.671
 3868WAT     H211847   2.276   1.547   5.610
 3869WAT      O11848   2.885   7.615   4.104
 3869WAT     H111849   2.970   7.566   4.082
 3869WAT     H211850   2.807   7.555   4.087
 3870WAT      O11851   7.432   2.777   9.524
 3870WAT     H111852   7.338   2.801   9.548
 3870WAT     H211853   7.434   2.735   9.433
 3871WAT      O11854   1.025   5.797   9.199
 3871WAT     H111855   1.034   5.889   9.236
 3871WAT     H211856   0.981   5.737   9.267
 3872WAT      O11857   4.856   9.668   6.275
 3872WAT     H111858   4.954   9.685   6.281
 3872WAT     H211859   4.839   9.590   6.214
 3873WAT      O11860   3.571   0.375   6.115
 3873WAT     H111861   3.479   0.402   6.145
 3873WAT     H211862   3.638   0.441   6.151
 3874WAT      O11863   1.511   1.419   4.025
 3874WAT     H111864   1.473   1.402   3.934
 3874WAT     H211865   1.579   1.350   4.047
 3875WAT      O11866   1.054   7.896   7.893
 3875WAT     H111867   1.023   7.981   7.851
 3875WAT     H211868   0.993   7.822   7.866
 3876WAT      O11869   6.874   1.168   4.400
 3876WAT     H111870   6.829   1.093   4.353
 3876WAT     H211871   6.821   1.252   4.388
 3877WAT      O11872   8.850   0.840   5.954
 3877WAT     H111873   8.771   0.899   5.936
 3877WAT     H211874   8.884   0.856   6.047
 3878WAT      O11875   6.949   3.879   2.946
 3878WAT     H111876   6.946   3.792   2.897
 3878WAT     H211877   7.037   3.923   2.931
 3879WAT      O11878   7.656   0.747   4.478
 3879WAT     H111879   7.594   0.674   4.508
 3879WAT     H211880   7.729   0.759   4.546
 3880WAT      O11881   3.543   5.335   4.325
 3880WAT     H111882   3.462   5.353   4.270
 3880WAT     H211883   3.574   5.242   4.309
 3881WAT      O11884   0.798   0.055   7.131
 3881WAT     H111885   0.845   0.118   7.193
 3881WAT     H211886   0.784   0.100   7.042
 3882WAT      O11887   5.023   1.102   0.687
 3882WAT     H111888   4.971   1.121   0.604
 3882WAT     H211889   5.071   1.186   0.715
 3883WAT      O11890   9.362   0.656   1.786
 3883WAT     H111891   9.442   0.662   1.726
 3883WAT     H211892   9.328   0.748   1.805
 3884WAT      O11893   7.879   6.662   8.443
 3884WAT     H111894   7.795   6.690   8.489
 3884WAT     H211895   7.951   6.729   8.459
 3885WAT      O11896   4.367   1.660   0.345
 3885WAT     H111897   4.419   1.585   0.303
 3885WAT     H211898   4.319   1.711   0.274
 3886WAT      O11899   9.030   2.090   0.163
 3886WAT     H111900   9.024   2.157   0.089
 3886WAT     H211901   9.092   2.016   0.135
 3887WAT      O11902   7.364   4.367   0.837
 3887WAT     H111903   7.391   4.441   0.899
 3887WAT     H211904   7.339   4.286   0.890
 3888WAT      O11905   1.764   9.114   9.407
 3888WAT     H111906   1.765   9.028   9.357
 3888WAT     H211907   1.708   9.105   9.490
 3889WAT      O11908   9.816   6.704   4.038
 3889WAT     H111909   9.907   6.666   4.057
 3889WAT     H211910   9.816   6.802   4.059
 3890WAT      O11911   3.657   4.035   2.661
 3890WAT     H111912   3.578   4.008   2.716
 3890WAT     H211913   3.739   4.034   2.718
 3891WAT      O11914   8.446   3.627   6.542
 3891WAT     H111915   8.378   3.587   6.480
 3891WAT     H211916   8.405   3.643   6.631
 3892WAT      O11917   4.480   2.898   0.057
 3892WAT     H111918   4.525   2.948  -0.017
 3892WAT     H211919   4.408   2.840   0.019
 3893WAT      O11920   6.361   1.638   3.424
 3893WAT     H111921   6.398   1.566   3.482
 3893WAT     H211922   6.304   1.597   3.353
 3894WAT      O11923   1.386   6.428   2.963
 3894WAT     H111924   1.484   6.422   2.982
 3894WAT     H211925   1.366   6.382   2.877
 3895WAT      O11926   3.329   7.133   3.970
 3895WAT     H111927   3.279   7.152   3.885
 3895WAT     H211928   3.411   7.079   3.948
 3896WAT      O11929   4.318   6.830   4.450
 3896WAT     H111930   4.235   6.825   4.395
 3896WAT     H211931   4.398   6.837   4.390
 3897WAT      O11932   0.222   6.644   5.942
 3897WAT     H111933   0.164   6.613   6.017
 3897WAT     H211934   0.174   6.714   5.889
 3898WAT      O11935   8.593   5.684   0.436
 3898WAT     H111936   8.516   5.700   0.374
 3898WAT     H211937   8.585   5.744   0.516
 3899WAT      O11938   2.569   0.583   2.555
 3899WAT     H111939   2.599   0.519   2.626
 3899WAT     H211940   2.633   0.581   2.479
 3900WAT      O11941   3.252   8.466   3.662
 3900WAT     H111942   3.251   8.368   3.683
 3900WAT     H211943   3.337   8.489   3.614
 3901WAT      O11944   5.877   4.684   4.449
 3901WAT     H111945   5.844   4.594   4.478
 3901WAT     H211946   5.809   4.754   4.471
 3902WAT      O11947   5.732   0.979   5.325
 3902WAT     H111948   5.647   0.957   5.373
 3902WAT     H211949   5.711   1.035   5.244
 3903WAT      O11950   0.565   7.383   5.886
 3903WAT     H111951   0.523   7.435   5.960
 3903WAT     H211952   0.529   7.415   5.798
 3904WAT      O11953   6.158   2.008   3.764
 3904WAT     H111954   6.169   1.913   3.734
 3904WAT     H211955   6.062   2.026   3.785
 3905WAT      O11956   2.777   6.530   1.737
 3905WAT     H111957   2.752   6.536   1.641
 3905WAT     H211958   2.877   6.536   1.746
 3906WAT      O11959   1.219   2.454   9.165
 3906WAT     H111960   1.171   2.530   9.208
 3906WAT     H211961   1.316   2.456   9.189
 3907WAT      O11962   7.607   8.091   1.082
 3907WAT     H111963   7.704   8.084   1.058
 3907WAT     H211964   7.571   8.179   1.050
 3908WAT      O11965   6.068   0.101   9.815
 3908WAT     H111966   6.006   0.174   9.846
 3908WAT     H211967   6.044   0.015   9.859
 3909WAT      O11968   1.953   6.255   4.601
 3909WAT     H111969   2.044   6.221   4.575
 3909WAT     H211970   1.935   6.232   4.697
 3910WAT      O11971   0.493   7.980   2.670
 3910WAT     H111972   0.508   8.021   2.580
 3910WAT     H211973   0.476   7.882   2.660
 3911WAT      O11974   9.376   5.644   9.546
 3911WAT     H111975   9.325   5.642   9.632
 3911WAT     H211976   9.311   5.653   9.470
 3912WAT      O11977   7.535   6.089   7.086
 3912WAT     H111978   7.549   6.184   7.059
 3912WAT     H211979   7.621   6.050   7.119
 3913WAT      O11980   6.074   2.246   6.593
 3913WAT     H111981   5.996   2.294   6.553
 3913WAT     H211982   6.135   2.215   6.520
 3914WAT      O11983   3.748   0.006   1.671
 3914WAT     H111984   3.770   0.103   1.682
 3914WAT     H211985   3.651  -0.004   1.649
 3915WAT      O11986   8.542   8.269   2.307
 3915WAT     H111987   8.603   8.263   2.227
 3915WAT     H211988   8.588   8.321   2.379
 3916WAT      O11989   8.633   1.561   7.630
 3916WAT     H111990   8.651   1.628   7.702
 3916WAT     H211991   8.672   1.472   7.655
 3917WAT      O11992   2.071   8.762   0.875
 3917WAT     H111993   2.164   8.728   0.885
 3917WAT     H211994   2.065   8.820   0.794
 3918WAT      O11995   3.705   3.554   0.345
 3918WAT     H111996   3.635   3.498   0.390
 3918WAT     H211997   3.782   3.568   0.408
 3919WAT      O11998   8.953   7.284   8.906
 3919WAT     H111999   9.024   7.278   8.836
 3919WAT     H212000   8.863   7.287   8.863
 3920WAT      O12001   9.818   1.074   8.504
 3920WAT     H112002   9.849   1.121   8.587
 3920WAT     H212003   9.896   1.032   8.458
 3921WAT      O12004   4.981   2.855   5.607
 3921WAT     H112005   5.066   2.802   5.610
 3921WAT     H212006   4.919   2.815   5.540
 3922WAT      O12007   8.627   1.476   4.186
 3922WAT     H112008   8.567   1.529   4.126
 3922WAT     H212009   8.722   1.492   4.161
 3923WAT      O12010   2.659   3.577   9.277
 3923WAT     H112011   2.739   3.581   9.216
 3923WAT     H212012   2.629   3.482   9.286
 3924WAT      O12013   1.721   8.712   1.291
 3924WAT     H112014   1.750   8.637   1.352
 3924WAT     H212015   1.791   8.783   1.291
 3925WAT      O12016   0.451   6.387   9.261
 3925WAT     H112017   0.514   6.436   9.202
 3925WAT     H212018   0.457   6.423   9.354
 3926WAT      O12019   3.054   4.260   7.653
 3926WAT     H112020   3.011   4.251   7.563
 3926WAT     H212021   3.132   4.323   7.647
 3927WAT      O12022   6.291   1.100   3.498
 3927WAT     H112023   6.364   1.166   3.480
 3927WAT     H212024   6.203   1.144   3.484
 3928WAT      O12025   1.905   0.499   7.041
 3928WAT     H112026   1.922   0.400   7.046
 3928WAT     H212027   1.869   0.530   7.129
 3929WAT      O12028   4.822   4.092   8.728
 3929WAT     H112029   4.858   4.098   8.635
 3929WAT     H212030   4.773   4.176   8.750
 3930WAT      O12031   0.595   7.794   8.620
 3930WAT     H112032   0.681   7.801   8.570
 3930WAT     H212033   0.521   7.835   8.565
 3931WAT      O12034   2.933   6.223   4.144
 3931WAT     H112035   3.027   6.244   4.115
 3931WAT     H212036   2.874   6.220   4.063
 3932WAT      O12037   1.596   6.206   7.395
 3932WAT     H112038   1.568   6.258   7.314
 3932WAT     H212039   1.551   6.244   7.476
 3933WAT      O12040   3.485   6.784   8.330
 3933WAT     H112041   3.580   6.794   8.358
 3933WAT     H212042   3.482   6.735   8.242
 3934WAT      O12043   3.289   4.630   2.535
 3934WAT     H112044   3.235   4.710   2.508
 3934WAT     H212045   3.375   4.660   2.576
 3935WAT      O12046   2.729   5.917   0.637
 3935WAT     H112047   2.771   5.998   0.597
 3935WAT     H212048   2.759   5.836   0.587
 3936WAT      O12049   7.119   2.761   6.017
 3936WAT     H112050   7.118   2.849   6.065
 3936WAT     H212051   7.141   2.776   5.920
 3937WAT      O12052   9.585   5.247   1.237
 3937WAT     H112053   9.574   5.297   1.323
 3937WAT     H212054   9.524   5.287   1.168
 3938WAT      O12055   0.401   8.312   6.087
 3938WAT     H112056   0.311   8.285   6.052
 3938WAT     H212057   0.394   8.337   6.183
 3939WAT      O12058   1.777   7.314   2.454
 3939WAT     H112059   1.697   7.272   2.410
 3939WAT     H212060   1.781   7.411   2.431
 3940WAT      O12061   5.313   4.344   8.779
 3940WAT     H112062   5.403   4.385   8.760
 3940WAT     H212063   5.274   4.308   8.695
 3941WAT      O12064   8.067   9.798   3.484
 3941WAT     H112065   8.060   9.897   3.497
 3941WAT     H212066   7.981   9.764   3.447
 3942WAT      O12067   7.020   3.207   9.886
 3942WAT     H112068   7.109   3.164   9.867
 3942WAT     H212069   6.966   3.148   9.946
 3943WAT      O12070   0.262   2.455   4.065
 3943WAT     H112071   0.247   2.496   4.155
 3943WAT     H212072   0.341   2.395   4.068
 3944WAT      O12073   9.481   2.587   5.768
 3944WAT     H112074   9.455   2.633   5.683
 3944WAT     H212075   9.433   2.629   5.845
 3945WAT      O12076   4.515   8.364   1.587
 3945WAT     H112077   4.465   8.280   1.566
 3945WAT     H212078   4.449   8.438   1.603
 3946WAT      O12079   3.704   0.605   5.949
 3946WAT     H112080   3.785   0.615   5.892
 3946WAT     H212081   3.731   0.589   6.044
 3947WAT      O12082   1.541   8.938   9.467
 3947WAT     H112083   1.576   8.917   9.376
 3947WAT     H212084   1.496   8.857   9.506
 3948WAT      O12085   1.380   2.098   5.396
 3948WAT     H112086   1.416   2.131   5.308
 3948WAT     H212087   1.382   2.173   5.462
 3949WAT      O12088   9.336   8.451   9.525
 3949WAT     H112089   9.401   8.513   9.570
 3949WAT     H212090   9.245   8.464   9.564
 3950WAT      O12091   4.847   8.154   5.993
 3950WAT     H112092   4.786   8.230   6.015
 3950WAT     H212093   4.820   8.113   5.906
 3951WAT      O12094   6.477   5.718   8.981
 3951WAT     H112095   6.382   5.707   9.012
 3951WAT     H212096   6.483   5.797   8.920
 3952WAT      O12097   3.533   6.981   4.728
 3952WAT     H112098   3.563   6.903   4.673
 3952WAT     H212099   3.533   6.955   4.825
 3953WAT      O12100   7.328   6.565   9.092
 3953WAT     H112101   7.255   6.544   9.028
 3953WAT     H212102   7.365   6.480   9.130
 3954WAT      O12103   5.191   7.402   2.554
 3954WAT     H112104   5.220   7.317   2.511
 3954WAT     H212105   5.233   7.410   2.644
 3955WAT      O12106   4.920   2.830   2.387
 3955WAT     H112107   4.830   2.799   2.357
 3955WAT     H212108   4.990   2.795   2.326
 3956WAT      O12109   2.625   0.265   7.667
 3956WAT     H112110   2.709   0.274   7.614
 3956WAT     H212111   2.619   0.172   7.703
 3957WAT      O12112   5.475   0.466   3.788
 3957WAT     H112113   5.381   0.500   3.793
 3957WAT     H212114   5.537   0.542   3.767
 3958WAT      O12115   3.128   9.065   9.378
 3958WAT     H112116   3.220   9.026   9.380
 3958WAT     H212117   3.116   9.116   9.293
 3959WAT      O12118   1.854   9.209   6.989
 3959WAT     H112119   1.825   9.208   7.085
 3959WAT     H212120   1.798   9.145   6.936
 3960WAT      O12121   2.609   4.068   6.085
 3960WAT     H112122   2.581   4.052   5.990
 3960WAT     H212123   2.634   3.981   6.128
 3961WAT      O12124   4.150   2.064   8.022
 3961WAT     H112125   4.207   1.982   8.023
 3961WAT     H212126   4.057   2.041   7.994
 3962WAT      O12127   2.188   7.212   7.155
 3962WAT     H112128   2.133   7.191   7.074
 3962WAT     H212129   2.172   7.142   7.225
 3963WAT      O12130   1.307   2.325   9.875
 3963WAT     H112131   1.367   2.382   9.931
 3963WAT     H212132   1.298   2.364   9.784
 3964WAT      O12133   1.616   6.299   5.742
 3964WAT     H112134   1.611   6.322   5.840
 3964WAT     H212135   1.535   6.247   5.717
 3965WAT      O12136   5.329   5.114   2.871
 3965WAT     H112137   5.380   5.052   2.930
 3965WAT     H212138   5.291   5.188   2.926
 3966WAT      O12139   0.806   8.997   6.446
 3966WAT     H112140   0.789   9.089   6.409
 3966WAT     H212141   0.809   9.002   6.546
 3967WAT      O12142   3.391   7.610   0.853
 3967WAT     H112143   3.386   7.707   0.878
 3967WAT     H212144   3.353   7.554   0.926
 3968WAT      O12145   9.528   5.773   2.648
 3968WAT     H112146   9.622   5.739   2.640
 3968WAT     H212147   9.504   5.822   2.565
 3969WAT      O12148   8.583   8.440   1.979
 3969WAT     H112149   8.613   8.346   1.998
 3969WAT     H212150   8.626   8.471   1.894
 3970WAT      O12151   8.104   6.443   3.852
 3970WAT     H112152   8.068   6.448   3.945
 3970WAT     H212153   8.077   6.525   3.801
 3971WAT      O12154   7.440   7.044   9.446
 3971WAT     H112155   7.434   7.022   9.543
 3971WAT     H212156   7.446   6.960   9.393
 3972WAT      O12157   3.810   5.873   7.429
 3972WAT     H112158   3.711   5.877   7.441
 3972WAT     H212159   3.832   5.881   7.332
 3973WAT      O12160   9.770   6.124   4.032
 3973WAT     H112161   9.783   6.223   4.037
 3973WAT     H212162   9.857   6.078   4.048
 3974WAT      O12163   6.687   2.423   8.731
 3974WAT     H112164   6.628   2.429   8.812
 3974WAT     H212165   6.764   2.362   8.750
 3975WAT      O12166   3.626   0.579   1.251
 3975WAT     H112167   3.663   0.660   1.296
 3975WAT     H212168   3.528   0.589   1.240
 3976WAT      O12169   8.541   1.674   1.086
 3976WAT     H112170   8.553   1.653   0.989
 3976WAT     H212171   8.549   1.773   1.100
 3977WAT      O12172   8.804   3.913   8.609
 3977WAT     H112173   8.777   3.968   8.689
 3977WAT     H212174   8.722   3.873   8.567
 3978WAT      O12175   5.500   4.231   0.473
 3978WAT     H112176   5.561   4.161   0.434
 3978WAT     H212177   5.432   4.257   0.406
 3979WAT      O12178   6.379   2.876   1.891
 3979WAT     H112179   6.338   2.820   1.964
 3979WAT     H212180   6.474   2.896   1.915
 3980WAT      O12181   5.976   7.014   3.299
 3980WAT     H112182   5.924   7.083   3.350
 3980WAT     H212183   5.949   6.923   3.329
 3981WAT      O12184   5.433   4.040   9.666
 3981WAT     H112185   5.362   4.020   9.599
 3981WAT     H212186   5.435   4.138   9.685
 3982WAT      O12187   7.835   3.106   5.490
 3982WAT     H112188   7.819   3.007   5.488
 3982WAT     H212189   7.834   3.138   5.585
 3983WAT      O12190   1.250   1.244   2.591
 3983WAT     H112191   1.319   1.279   2.527
 3983WAT     H212192   1.289   1.240   2.683
 3984WAT      O12193   9.665   9.229   7.988
 3984WAT     H112194   9.726   9.211   8.065
 3984WAT     H212195   9.644   9.326   7.984
 3985WAT      O12196   3.347   1.385   1.072
 3985WAT     H112197   3.269   1.322   1.071
 3985WAT     H212198   3.316   1.477   1.051
 3986WAT      O12199   6.863   6.333   3.911
 3986WAT     H112200   6.763   6.336   3.916
 3986WAT     H212201   6.891   6.326   3.815
 3987WAT      O12202   9.042   6.228   0.911
 3987WAT     H112203   9.054   6.323   0.883
 3987WAT     H212204   9.059   6.168   0.833
 3988WAT      O12205   4.527   8.692   5.517
 3988WAT     H112206   4.450   8.754   5.503
 3988WAT     H212207   4.509   8.636   5.598
 3989WAT      O12208   9.560   4.882   9.211
 3989WAT     H112209   9.465   4.865   9.183
 3989WAT     H212210   9.565   4.885   9.311
 3990WAT      O12211   5.435   6.272   7.212
 3990WAT     H112212   5.359   6.229   7.261
 3990WAT     H212213   5.509   6.206   7.200
 3991WAT      O12214   6.109   9.325   5.843
 3991WAT     H112215   6.125   9.423   5.840
 3991WAT     H212216   6.019   9.304   5.804
 3992WAT      O12217   2.772   9.667   6.902
 3992WAT     H112218   2.757   9.673   6.804
 3992WAT     H212219   2.831   9.743   6.931
 3993WAT      O12220   7.840   4.032   7.138
 3993WAT     H112221   7.760   4.000   7.189
 3993WAT     H212222   7.859   3.969   7.063
 3994WAT      O12223   1.097   6.052   1.405
 3994WAT     H112224   1.130   6.076   1.314
 3994WAT     H212225   1.057   5.961   1.404
 3995WAT      O12226   3.928   1.593   0.577
 3995WAT     H112227   4.027   1.592   0.583
 3995WAT     H212228   3.900   1.597   0.482
 3996WAT      O12229   9.357   0.172   5.401
 3996WAT     H112230   9.359   0.253   5.459
 3996WAT     H212231   9.443   0.164   5.350
 3997WAT      O12232   4.452   1.658   4.552
 3997WAT     H112233   4.412   1.746   4.577
 3997WAT     H212234   4.502   1.668   4.466
 3998WAT      O12235   9.268   4.188   7.974
 3998WAT     H112236   9.266   4.163   8.071
 3998WAT     H212237   9.178   4.171   7.934
 3999WAT      O12238   7.083   8.485   2.062
 3999WAT     H112239   7.138   8.402   2.051
 3999WAT     H212240   6.991   8.469   2.027
 4000WAT      O12241   9.485   7.512   0.236
 4000WAT     H112242   9.457   7.509   0.140
 4000WAT     H212243   9.405   7.530   0.293
 4001WAT      O12244   3.077   3.865   9.380
 4001WAT     H112245   3.055   3.769   9.360
 4001WAT     H212246   2.993   3.919   9.377
 4002WAT      O12247   0.715   0.377   2.872
 4002WAT     H112248   0.743   0.453   2.814
 4002WAT     H212249   0.795   0.327   2.903
 4003WAT      O12250   6.311   6.704   2.665
 4003WAT     H112251   6.241   6.774   2.676
 4003WAT     H212252   6.348   6.679   2.755
 4004WAT      O12253   5.297   2.682   7.032
 4004WAT     H112254   5.218   2.694   6.972
 4004WAT     H212255   5.284   2.735   7.115
 4005WAT      O12256   9.666   5.053   6.820
 4005WAT     H112257   9.633   4.988   6.888
 4005WAT     H212258   9.766   5.049   6.816
 4006WAT      O12259   1.730   3.801   2.975
 4006WAT     H112260   1.678   3.757   3.048
 4006WAT     H212261   1.785   3.732   2.927
 4007WAT      O12262   7.035   8.350   0.026
 4007WAT     H112263   7.088   8.300  -0.043
 4007WAT     H212264   6.969   8.409  -0.019
 4008WAT      O12265   7.044   9.257   8.521
 4008WAT     H112266   7.042   9.231   8.424
 4008WAT     H212267   6.952   9.284   8.549
 4009WAT      O12268   7.399   4.574   6.062
 4009WAT     H112269   7.370   4.584   6.157
 4009WAT     H212270   7.414   4.478   6.041
 4010WAT      O12271   4.036   7.690   7.416
 4010WAT     H112272   4.071   7.770   7.465
 4010WAT     H212273   3.946   7.711   7.378
 4011WAT      O12274   5.207   5.651   7.071
 4011WAT     H112275   5.149   5.655   6.990
 4011WAT     H212276   5.301   5.630   7.043
 4012WAT      O12277   5.110   6.745   7.727
 4012WAT     H112278   5.054   6.792   7.797
 4012WAT     H212279   5.207   6.758   7.748
 4013WAT      O12280   9.136   9.817   3.411
 4013WAT     H112281   9.093   9.838   3.499
 4013WAT     H212282   9.233   9.840   3.415
 4014WAT      O12283   6.799   4.722   7.029
 4014WAT     H112284   6.846   4.794   7.080
 4014WAT     H212285   6.828   4.633   7.063
 4015WAT      O12286   7.971   2.609   3.553
 4015WAT     H112287   7.985   2.682   3.620
 4015WAT     H212288   7.873   2.596   3.538
 4016WAT      O12289   4.341   4.868   4.366
 4016WAT     H112290   4.282   4.947   4.347
 4016WAT     H212291   4.387   4.882   4.453
 4017WAT      O12292   4.003   9.783   9.597
 4017WAT     H112293   4.057   9.867   9.603
 4017WAT     H212294   4.022   9.725   9.676
 4018WAT      O12295   2.058   6.288   3.807
 4018WAT     H112296   2.134   6.252   3.753
 4018WAT     H212297   2.091   6.361   3.866
 4019WAT      O12298   8.209   8.929   2.137
 4019WAT     H112299   8.245   8.883   2.056
 4019WAT     H212300   8.109   8.923   2.137
 4020WAT      O12301   2.534   1.310   4.041
 4020WAT     H112302   2.508   1.405   4.022
 4020WAT     H212303   2.557   1.263   3.956
 4021WAT      O12304   9.198   3.632   8.743
 4021WAT     H112305   9.175   3.549   8.795
 4021WAT     H212306   9.212   3.708   8.807
 4022WAT      O12307   0.254   5.637   7.168
 4022WAT     H112308   0.198   5.571   7.218
 4022WAT     H212309   0.315   5.685   7.232
 4023WAT      O12310   8.042   3.681   7.759
 4023WAT     H112311   8.071   3.773   7.786
 4023WAT     H212312   8.001   3.635   7.838
 4024WAT      O12313   5.864   6.237   6.910
 4024WAT     H112314   5.781   6.208   6.957
 4024WAT     H212315   5.907   6.312   6.960
 4025WAT      O12316   7.711   9.052   1.970
 4025WAT     H112317   7.671   9.121   1.910
 4025WAT     H212318   7.704   9.083   2.065
 4026WAT      O12319   9.399   2.609   0.242
 4026WAT     H112320   9.335   2.543   0.281
 4026WAT     H212321   9.373   2.628   0.147
 4027WAT      O12322   2.798   3.784   2.928
 4027WAT     H112323   2.796   3.761   3.025
 4027WAT     H212324   2.704   3.789   2.893
 4028WAT      O12325   7.352   6.869   2.153
 4028WAT     H112326   7.285   6.933   2.117
 4028WAT     H212327   7.304   6.794   2.200
 4029WAT      O12328   4.714   8.781   0.272
 4029WAT     H112329   4.635   8.808   0.217
 4029WAT     H212330   4.794   8.832   0.242
 4030WAT      O12331   3.269   4.713   7.088
 4030WAT     H112332   3.273   4.789   7.153
 4030WAT     H212333   3.303   4.744   6.999
 4031WAT      O12334   3.282   2.174   4.937
 4031WAT     H112335   3.230   2.242   4.885
 4031WAT     H212336   3.360   2.142   4.883
 4032WAT      O12337   5.016   2.102   4.048
 4032WAT     H112338   4.960   2.174   4.089
 4032WAT     H212339   5.008   2.018   4.103
 4033WAT      O12340   1.354   3.522   6.559
 4033WAT     H112341   1.332   3.570   6.474
 4033WAT     H212342   1.353   3.424   6.542
 4034WAT      O12343   4.831   5.855   1.042
 4034WAT     H112344   4.848   5.954   1.041
 4034WAT     H212345   4.819   5.822   0.949
 4035WAT      O12346   9.650   1.284   5.705
 4035WAT     H112347   9.747   1.280   5.729
 4035WAT     H212348   9.639   1.333   5.619
 4036WAT      O12349   4.200   1.185   7.872
 4036WAT     H112350   4.265   1.110   7.870
 4036WAT     H212351   4.247   1.271   7.855
 4037WAT      O12352   9.650   7.077   3.588
 4037WAT     H112353   9.635   7.088   3.490
 4037WAT     H212354   9.621   6.986   3.617
 4038WAT      O12355   3.794   2.325   5.032
 4038WAT     H112356   3.856   2.286   5.101
 4038WAT     H212357   3.720   2.374   5.077
 4039WAT      O12358   5.459   8.534   3.821
 4039WAT     H112359   5.535   8.502   3.766
 4039WAT     H212360   5.465   8.496   3.914
 4040WAT      O12361   2.159   5.594   1.913
 4040WAT     H112362   2.167   5.693   1.911
 4040WAT     H212363   2.127   5.565   2.004
 4041WAT      O12364   8.391   5.017   0.361
 4041WAT     H112365   8.470   5.077   0.376
 4041WAT     H212366   8.378   5.004   0.263
 4042WAT      O12367   6.605   4.046   9.133
 4042WAT     H112368   6.532   4.106   9.100
 4042WAT     H212369   6.668   4.026   9.058
 4043WAT      O12370   0.882   8.044   0.616
 4043WAT     H112371   0.802   8.032   0.557
 4043WAT     H212372   0.949   7.973   0.596
 4044WAT      O12373   8.216   0.727   8.927
 4044WAT     H112374   8.204   0.769   9.017
 4044WAT     H212375   8.131   0.734   8.875
 4045WAT      O12376   5.704   4.107   0.986
 4045WAT     H112377   5.655   4.153   0.912
 4045WAT     H212378   5.641   4.048   1.037
 4046WAT      O12379   6.024   9.544   4.335
 4046WAT     H112380   6.089   9.472   4.311
 4046WAT     H212381   6.073   9.618   4.383
 4047WAT      O12382   8.383   0.299   6.985
 4047WAT     H112383   8.332   0.379   7.017
 4047WAT     H212384   8.388   0.231   7.058
 4048WAT      O12385   9.508   5.075   1.968
 4048WAT     H112386   9.599   5.076   1.925
 4048WAT     H212387   9.475   5.168   1.979
 4049WAT      O12388   7.431   6.273   2.011
 4049WAT     H112389   7.421   6.232   1.920
 4049WAT     H212390   7.341   6.291   2.050
 4050WAT      O12391   2.678   5.966   8.795
 4050WAT     H112392   2.585   5.946   8.826
 4050WAT     H212393   2.722   5.881   8.763
 4051WAT      O12394   2.233   3.802   7.769
 4051WAT     H112395   2.225   3.763   7.861
 4051WAT     H212396   2.151   3.779   7.716
 4052WAT      O12397   7.803   0.810   2.337
 4052WAT     H112398   7.774   0.899   2.374
 4052WAT     H212399   7.770   0.737   2.397
 4053WAT      O12400   6.480   8.876   4.303
 4053WAT     H112401   6.535   8.794   4.288
 4053WAT     H212402   6.531   8.940   4.361
 4054WAT      O12403   4.341   0.368   5.101
 4054WAT     H112404   4.259   0.424   5.087
 4054WAT     H212405   4.416   0.404   5.045
 4055WAT      O12406   0.438   5.370   4.727
 4055WAT     H112407   0.400   5.319   4.804
 4055WAT     H212408   0.534   5.390   4.745
 4056WAT      O12409   1.538   5.110   3.638
 4056WAT     H112410   1.544   5.173   3.716
 4056WAT     H212411   1.614   5.045   3.642
 4057WAT      O12412   0.262   7.832   8.849
 4057WAT     H112413   0.214   7.815   8.935
 4057WAT     H212414   0.220   7.777   8.776
 4058WAT      O12415   1.712   8.718   1.677
 4058WAT     H112416   1.719   8.691   1.772
 4058WAT     H212417   1.688   8.639   1.621
 4059WAT      O12418   3.323   3.707   7.717
 4059WAT     H112419   3.358   3.647   7.645
 4059WAT     H212420   3.360   3.799   7.706
 4060WAT      O12421   8.713   3.714   7.231
 4060WAT     H112422   8.764   3.726   7.316
 4060WAT     H212423   8.731   3.623   7.194
 4061WAT      O12424   4.312   6.857   3.079
 4061WAT     H112425   4.289   6.762   3.059
 4061WAT     H212426   4.231   6.905   3.114
 4062WAT      O12427   2.466   4.655   4.770
 4062WAT     H112428   2.381   4.605   4.754
 4062WAT     H212429   2.469   4.736   4.711
 4063WAT      O12430   8.906   1.509   9.388
 4063WAT     H112431   8.848   1.528   9.467
 4063WAT     H212432   8.947   1.594   9.355
 4064WAT      O12433   7.756   7.184   8.268
 4064WAT     H112434   7.805   7.139   8.342
 4064WAT     H212435   7.659   7.193   8.292
 4065WAT      O12436   8.596   0.012   6.337
 4065WAT     H112437   8.649   0.076   6.281
 4065WAT     H212438   8.526   0.062   6.389
 4066WAT      O12439   8.607   7.366   0.637
 4066WAT     H112440   8.617   7.400   0.730
 4066WAT     H212441   8.527   7.306   0.632
 4067WAT      O12442   0.002   7.354   4.135
 4067WAT     H112443   0.017   7.255   4.136
 4067WAT     H212444   0.072   7.399   4.191
 4068WAT      O12445   7.248   8.136   5.572
 4068WAT     H112446   7.180   8.199   5.606
 4068WAT     H212447   7.311   8.184   5.510
 4069WAT      O12448   4.639   9.748   1.055
 4069WAT     H112449   4.737   9.732   1.072
 4069WAT     H212450   4.620   9.845   1.061
 4070WAT      O12451   6.389   2.093   4.136
 4070WAT     H112452   6.405   2.115   4.232
 4070WAT     H212453   6.399   1.994   4.123
 4071WAT      O12454   2.237   6.165   9.781
 4071WAT     H112455   2.300   6.233   9.820
 4071WAT     H212456   2.260   6.075   9.817
 4072WAT      O12457   3.130   2.385   9.355
 4072WAT     H112458   3.199   2.450   9.387
 4072WAT     H212459   3.103   2.409   9.262
 4073WAT      O12460   5.599   3.261   8.664
 4073WAT     H112461   5.546   3.308   8.593
 4073WAT     H212462   5.639   3.329   8.726
 4074WAT      O12463   5.105   8.462   9.747
 4074WAT     H112464   5.149   8.426   9.664
 4074WAT     H212465   5.175   8.492   9.811
 4075WAT      O12466   4.291   4.087   0.211
 4075WAT     H112467   4.291   4.186   0.222
 4075WAT     H212468   4.196   4.056   0.200
 4076WAT      O12469   2.572   8.112   9.047
 4076WAT     H112470   2.639   8.183   9.072
 4076WAT     H212471   2.536   8.071   9.131
 4077WAT      O12472   1.929   7.633   7.344
 4077WAT     H112473   1.873   7.712   7.371
 4077WAT     H212474   2.023   7.664   7.326
 4078WAT      O12475   6.028   7.078   8.404
 4078WAT     H112476   5.942   7.105   8.360
 4078WAT     H212477   6.046   6.981   8.384
 4079WAT      O12478   6.432   6.700   0.212
 4079WAT     H112479   6.445   6.754   0.294
 4079WAT     H212480   6.520   6.663   0.182
 4080WAT      O12481   3.272   9.442   3.256
 4080WAT     H112482   3.285   9.541   3.247
 4080WAT     H212483   3.359   9.399   3.279
 4081WAT      O12484   1.001   4.079   3.129
 4081WAT     H112485   0.920   4.123   3.170
 4081WAT     H212486   1.014   3.990   3.171
 4082WAT      O12487   9.169   7.150   6.282
 4082WAT     H112488   9.140   7.157   6.377
 4082WAT     H212489   9.094   7.178   6.222
 4083WAT      O12490   1.545   0.757   5.599
 4083WAT     H112491   1.620   0.754   5.665
 4083WAT     H212492   1.500   0.847   5.604
 4084WAT      O12493   7.010   0.463   5.086
 4084WAT     H112494   6.961   0.531   5.032
 4084WAT     H212495   6.944   0.402   5.130
 4085WAT      O12496   6.310   8.129   0.636
 4085WAT     H112497   6.320   8.040   0.592
 4085WAT     H212498   6.269   8.194   0.572
 4086WAT      O12499   2.769   9.099   3.919
 4086WAT     H112500   2.844   9.040   3.952
 4086WAT     H212501   2.767   9.183   3.972
 4087WAT      O12502   3.510   9.679   6.825
 4087WAT     H112503   3.589   9.656   6.769
 4087WAT     H212504   3.460   9.595   6.847
 4088WAT      O12505   7.435   2.657   9.281
 4088WAT     H112506   7.523   2.617   9.257
 4088WAT     H212507   7.362   2.607   9.235
 4089WAT      O12508   9.761   7.883   2.196
 4089WAT     H112509   9.842   7.924   2.152
 4089WAT     H212510   9.683   7.944   2.185
 4090WAT      O12511   7.674   6.814   5.019
 4090WAT     H112512   7.688   6.894   4.961
 4090WAT     H212513   7.600   6.832   5.083
 4091WAT      O12514   9.212   5.523   2.242
 4091WAT     H112515   9.293   5.564   2.198
 4091WAT     H212516   9.240   5.476   2.326
 4092WAT      O12517   5.432   4.356   7.397
 4092WAT     H112518   5.523   4.392   7.381
 4092WAT     H212519   5.405   4.372   7.492
 4093WAT      O12520   8.381   9.360   7.978
 4093WAT     H112521   8.328   9.301   7.917
 4093WAT     H212522   8.436   9.424   7.924
 4094WAT      O12523   2.322   9.093   7.892
 4094WAT     H112524   2.232   9.057   7.871
 4094WAT     H212525   2.330   9.111   7.990
 4095WAT      O12526   2.344   0.805   2.781
 4095WAT     H112527   2.341   0.721   2.728
 4095WAT     H212528   2.434   0.847   2.772
 4096WAT      O12529   4.437   2.101   0.907
 4096WAT     H112530   4.534   2.099   0.881
 4096WAT     H212531   4.397   2.189   0.880
 4097WAT      O12532   0.975   2.394   6.358
 4097WAT     H112533   1.073   2.391   6.379
 4097WAT     H212534   0.931   2.466   6.412
 4098WAT      O12535   1.357   7.546   7.136
 4098WAT     H112536   1.358   7.603   7.054
 4098WAT     H212537   1.332   7.602   7.215
 4099WAT      O12538   6.915   7.308   6.225
 4099WAT     H112539   6.884   7.244   6.154
 4099WAT     H212540   7.014   7.301   6.234
 4100WAT      O12541   8.002   8.255   1.802
 4100WAT     H112542   8.001   8.320   1.878
 4100WAT     H212543   8.031   8.165   1.836
 4101WAT      O12544   8.088   9.405   8.102
 4101WAT     H112545   8.100   9.492   8.151
 4101WAT     H212546   8.050   9.424   8.011
 4102WAT      O12547   4.750   0.721   7.178
 4102WAT     H112548   4.808   0.751   7.102
 4102WAT     H212549   4.701   0.638   7.152
 4103WAT      O12550   4.215   6.346   4.147
 4103WAT     H112551   4.139   6.394   4.191
 4103WAT     H212552   4.210   6.249   4.169
 4104WAT      O12553   2.601   4.976   8.835
 4104WAT     H112554   2.565   5.069   8.836
 4104WAT     H212555   2.657   4.963   8.753
 4105WAT      O12556   6.218   6.034   2.646
 4105WAT     H112557   6.238   5.958   2.708
 4105WAT     H212558   6.302   6.082   2.623
 4106WAT      O12559   1.121   4.622   8.473
 4106WAT     H112560   1.121   4.536   8.422
 4106WAT     H212561   1.110   4.603   8.571
 4107WAT      O12562   1.524   7.320   9.718
 4107WAT     H112563   1.600   7.327   9.653
 4107WAT     H212564   1.438   7.311   9.667
 4108WAT      O12565   6.598   6.828   0.682
 4108WAT     H112566   6.632   6.846   0.775
 4108WAT     H212567   6.555   6.738   0.679
 4109WAT      O12568   9.191   9.456   5.789
 4109WAT     H112569   9.193   9.401   5.706
 4109WAT     H212570   9.249   9.413   5.859
 4110WAT      O12571   4.721   2.099   0.816
 4110WAT     H112572   4.729   2.000   0.830
 4110WAT     H212573   4.670   2.116   0.731
 4111WAT      O12574   4.142   8.000   3.336
 4111WAT     H112575   4.071   8.025   3.270
 4111WAT     H212576   4.214   7.950   3.289
 4112WAT      O12577   5.216   6.981   8.955
 4112WAT     H112578   5.265   7.056   8.999
 4112WAT     H212579   5.154   7.018   8.886
 4113WAT      O12580   6.273   1.022   8.157
 4113WAT     H112581   6.232   0.976   8.079
 4113WAT     H212582   6.347   1.082   8.125
 4114WAT      O12583   2.701   6.362   1.236
 4114WAT     H112584   2.628   6.419   1.199
 4114WAT     H212585   2.712   6.281   1.177
 4115WAT      O12586   7.192   3.989   2.538
 4115WAT     H112587   7.101   3.953   2.557
 4115WAT     H212588   7.187   4.089   2.537
 4116WAT      O12589   5.467   9.230   0.954
 4116WAT     H112590   5.567   9.237   0.948
 4116WAT     H212591   5.442   9.145   1.000
 4117WAT      O12592   5.912   5.068   9.382
 4117WAT     H112593   5.840   5.111   9.327
 4117WAT     H212594   5.911   4.969   9.367
 4118WAT      O12595   3.050   8.023   3.280
 4118WAT     H112596   3.027   8.071   3.195
 4118WAT     H212597   3.122   7.956   3.263
 4119WAT      O12598   3.669   8.453   1.307
 4119WAT     H112599   3.617   8.460   1.222
 4119WAT     H212600   3.611   8.479   1.384
 4120WAT      O12601   5.902   4.417   7.128
 4120WAT     H112602   5.949   4.330   7.110
 4120WAT     H212603   5.890   4.467   7.042
 4121WAT      O12604   9.176   0.691   0.249
 4121WAT     H112605   9.126   0.713   0.333
 4121WAT     H212606   9.262   0.647   0.272
 4122WAT      O12607   8.980   4.706   4.189
 4122WAT     H112608   9.007   4.683   4.282
 4122WAT     H212609   8.941   4.625   4.144
 4123WAT      O12610   5.869   5.889   5.837
 4123WAT     H112611   5.902   5.832   5.912
 4123WAT     H212612   5.776   5.860   5.812
 4124WAT      O12613   3.701   2.660   0.043
 4124WAT     H112614   3.648   2.742   0.021
 4124WAT     H212615   3.791   2.687   0.077
 4125WAT      O12616   7.430   3.337   6.233
 4125WAT     H112617   7.479   3.346   6.320
 4125WAT     H212618   7.443   3.420   6.179
 4126WAT      O12619   5.232   8.117   1.975
 4126WAT     H112620   5.224   8.073   1.886
 4126WAT     H212621   5.150   8.098   2.029
 4127WAT      O12622   0.467   6.446   9.546
 4127WAT     H112623   0.491   6.536   9.583
 4127WAT     H212624   0.548   6.387   9.548
 4128WAT      O12625   6.274   7.703   2.094
 4128WAT     H112626   6.344   7.734   2.029
 4128WAT     H212627   6.202   7.655   2.045
 4129WAT      O12628   6.246   3.329   1.479
 4129WAT     H112629   6.162   3.305   1.430
 4129WAT     H212630   6.311   3.253   1.472
 4130WAT      O12631   5.511   8.241   8.560
 4130WAT     H112632   5.447   8.300   8.510
 4130WAT     H212633   5.476   8.227   8.653
 4131WAT      O12634   4.222   1.249   3.480
 4131WAT     H112635   4.317   1.220   3.476
 4131WAT     H212636   4.187   1.261   3.387
 4132WAT      O12637   6.192   1.236   7.072
 4132WAT     H112638   6.233   1.207   7.159
 4132WAT     H212639   6.178   1.157   7.013
 4133WAT      O12640   1.613   6.750   0.463
 4133WAT     H112641   1.524   6.706   0.451
 4133WAT     H212642   1.629   6.814   0.388
 4134WAT      O12643   8.456   1.775   2.215
 4134WAT     H112644   8.473   1.764   2.117
 4134WAT     H212645   8.368   1.734   2.239
 4135WAT      O12646   4.118   3.352   6.998
 4135WAT     H112647   4.149   3.446   6.986
 4135WAT     H212648   4.184   3.303   7.056
 4136WAT      O12649   6.681   1.898   6.536
 4136WAT     H112650   6.652   1.976   6.481
 4136WAT     H212651   6.637   1.902   6.626
 4137WAT      O12652   6.939   4.463   7.023
 4137WAT     H112653   6.974   4.450   6.930
 4137WAT     H212654   6.989   4.536   7.069
 4138WAT      O12655   8.474   9.114   8.052
 4138WAT     H112656   8.420   9.194   8.025
 4138WAT     H212657   8.469   9.102   8.151
 4139WAT      O12658   1.255   1.522   2.722
 4139WAT     H112659   1.274   1.494   2.816
 4139WAT     H212660   1.178   1.469   2.687
 4140WAT      O12661   5.240   3.141   3.547
 4140WAT     H112662   5.239   3.201   3.467
 4140WAT     H212663   5.205   3.191   3.626
 4141WAT      O12664   8.269   9.418   8.480
 4141WAT     H112665   8.323   9.441   8.399
 4141WAT     H212666   8.313   9.457   8.561
 4142WAT      O12667   5.186   5.114   7.925
 4142WAT     H112668   5.244   5.121   8.006
 4142WAT     H212669   5.120   5.189   7.924
 4143WAT      O12670   4.846   1.193   8.153
 4143WAT     H112671   4.800   1.268   8.200
 4143WAT     H212672   4.881   1.226   8.065
 4144WAT      O12673   6.933   9.763   7.725
 4144WAT     H112674   6.974   9.674   7.705
 4144WAT     H212675   6.911   9.809   7.639
 4145WAT      O12676   3.174   2.362   6.541
 4145WAT     H112677   3.185   2.411   6.455
 4145WAT     H212678   3.221   2.274   6.535
 4146WAT      O12679   6.191   1.513   0.431
 4146WAT     H112680   6.162   1.577   0.502
 4146WAT     H212681   6.286   1.529   0.407
 4147WAT      O12682   2.040   4.339   6.963
 4147WAT     H112683   2.028   4.388   7.050
 4147WAT     H212684   1.973   4.372   6.897
 4148WAT      O12685   8.490   6.470   9.858
 4148WAT     H112686   8.441   6.452   9.944
 4148WAT     H212687   8.578   6.512   9.877
 4149WAT      O12688   2.337   2.125   7.678
 4149WAT     H112689   2.354   2.222   7.698
 4149WAT     H212690   2.314   2.115   7.581
 4150WAT      O12691   2.936   4.173   7.427
 4150WAT     H112692   2.982   4.122   7.355
 4150WAT     H212693   2.850   4.211   7.392
 4151WAT      O12694   3.814   3.427   2.649
 4151WAT     H112695   3.739   3.373   2.610
 4151WAT     H212696   3.819   3.515   2.601
 4152WAT      O12697   1.657   2.314   9.136
 4152WAT     H112698   1.614   2.346   9.051
 4152WAT     H212699   1.756   2.325   9.128
 4153WAT      O12700   6.158   4.913   1.127
 4153WAT     H112701   6.196   4.938   1.216
 4153WAT     H212702   6.083   4.975   1.104
 4154WAT      O12703   7.708   9.450   3.364
 4154WAT     H112704   7.666   9.392   3.433
 4154WAT     H212705   7.728   9.396   3.282
 4155WAT      O12706   0.970   4.875   1.564
 4155WAT     H112707   1.000   4.936   1.490
 4155WAT     H212708   1.049   4.835   1.609
 4156WAT      O12709   7.290   5.228   9.403
 4156WAT     H112710   7.236   5.252   9.322
 4156WAT     H212711   7.387   5.226   9.378
 4157WAT      O12712   4.495   9.095   9.881
 4157WAT     H112713   4.429   9.169   9.893
 4157WAT     H212714   4.490   9.061   9.787
 4158WAT      O12715   7.191   3.442   0.854
 4158WAT     H112716   7.133   3.523   0.841
 4158WAT     H212717   7.220   3.407   0.765
 4159WAT      O12718   2.190   3.934   4.512
 4159WAT     H112719   2.208   3.893   4.422
 4159WAT     H212720   2.234   3.878   4.583
 4160WAT      O12721   1.348   6.753   3.376
 4160WAT     H112722   1.399   6.720   3.296
 4160WAT     H212723   1.408   6.751   3.456
 4161WAT      O12724   4.524   5.749   1.776
 4161WAT     H112725   4.605   5.772   1.830
 4161WAT     H212726   4.459   5.700   1.835
 4162WAT      O12727   9.201   7.697   6.964
 4162WAT     H112728   9.197   7.759   6.885
 4162WAT     H212729   9.184   7.604   6.933
 4163WAT      O12730   4.023   8.391   3.783
 4163WAT     H112731   3.935   8.348   3.806
 4163WAT     H212732   4.044   8.373   3.687
 4164WAT      O12733   0.754   4.627   0.324
 4164WAT     H112734   0.693   4.572   0.381
 4164WAT     H212735   0.777   4.712   0.373
 4165WAT      O12736   9.776   3.642   0.226
 4165WAT     H112737   9.788   3.585   0.307
 4165WAT     H212738   9.681   3.635   0.194
 4166WAT      O12739   9.448   0.448   6.032
 4166WAT     H112740   9.457   0.500   5.946
 4166WAT     H212741   9.471   0.507   6.109
 4167WAT      O12742   2.695   4.501   8.608
 4167WAT     H112743   2.771   4.499   8.673
 4167WAT     H212744   2.730   4.486   8.515
 4168WAT      O12745   7.065   1.383   1.662
 4168WAT     H112746   7.158   1.413   1.686
 4168WAT     H212747   7.000   1.451   1.695
 4169WAT      O12748   7.379   4.996   7.570
 4169WAT     H112749   7.405   5.026   7.661
 4169WAT     H212750   7.403   5.068   7.504
 4170WAT      O12751   4.497   9.322   1.846
 4170WAT     H112752   4.473   9.385   1.772
 4170WAT     H212753   4.502   9.228   1.810
 4171WAT      O12754   5.962   0.420   1.183
 4171WAT     H112755   6.024   0.395   1.108
 4171WAT     H212756   5.951   0.519   1.186
 4172WAT      O12757   4.066   4.968   9.082
 4172WAT     H112758   4.045   5.065   9.095
 4172WAT     H212759   4.057   4.945   8.985
 4173WAT      O12760   1.757   8.759   9.812
 4173WAT     H112761   1.827   8.781   9.744
 4173WAT     H212762   1.729   8.843   9.860
 4174WAT      O12763   9.838   2.140   3.056
 4174WAT     H112764   9.814   2.077   2.982
 4174WAT     H212765   9.875   2.089   3.133
 4175WAT      O12766   5.186   7.591   0.711
 4175WAT     H112767   5.098   7.567   0.751
 4175WAT     H212768   5.176   7.670   0.650
 4176WAT      O12769   7.566   3.067   5.878
 4176WAT     H112770   7.561   3.162   5.849
 4176WAT     H212771   7.549   3.060   5.976
 4177WAT      O12772   6.556   0.896   1.359
 4177WAT     H112773   6.647   0.937   1.358
 4177WAT     H212774   6.496   0.952   1.416
 4178WAT      O12775   9.154   7.304   1.892
 4178WAT     H112776   9.149   7.217   1.843
 4178WAT     H212777   9.246   7.315   1.929
 4179WAT      O12778   1.293   6.117   7.803
 4179WAT     H112779   1.360   6.182   7.766
 4179WAT     H212780   1.288   6.037   7.744
 4180WAT      O12781   1.853   9.149   5.696
 4180WAT     H112782   1.946   9.123   5.671
 4180WAT     H212783   1.795   9.067   5.698
 4181WAT      O12784   8.445   3.507   5.536
 4181WAT     H112785   8.466   3.509   5.634
 4181WAT     H212786   8.379   3.578   5.515
 4182WAT      O12787   0.511   7.874   3.666
 4182WAT     H112788   0.445   7.879   3.740
 4182WAT     H212789   0.571   7.795   3.680
 4183WAT      O12790   2.908   3.760   8.205
 4183WAT     H112791   2.817   3.801   8.207
 4183WAT     H212792   2.977   3.832   8.203
 4184WAT      O12793   5.087   3.540   9.420
 4184WAT     H112794   5.136   3.453   9.417
 4184WAT     H212795   5.121   3.599   9.347
 4185WAT      O12796   3.309   3.083   5.527
 4185WAT     H112797   3.210   3.082   5.508
 4185WAT     H212798   3.347   2.993   5.508
 4186WAT      O12799   3.496   4.036   7.340
 4186WAT     H112800   3.537   4.079   7.260
 4186WAT     H212801   3.419   3.978   7.311
 4187WAT      O12802   7.373   5.824   5.716
 4187WAT     H112803   7.471   5.820   5.699
 4187WAT     H212804   7.332   5.735   5.695
 4188WAT      O12805   9.137   0.911   9.658
 4188WAT     H112806   9.204   0.975   9.695
 4188WAT     H212807   9.139   0.826   9.709
 4189WAT      O12808   0.022   5.134   3.347
 4189WAT     H112809  -0.016   5.103   3.260
 4189WAT     H212810   0.009   5.063   3.416
 4190WAT      O12811   0.050   1.920   1.885
 4190WAT     H112812   0.075   1.846   1.948
 4190WAT     H212813   0.132   1.972   1.860
 4191WAT      O12814   0.586   6.770   5.116
 4191WAT     H112815   0.497   6.810   5.093
 4191WAT     H212816   0.574   6.701   5.187
 4192WAT      O12817   5.812   5.335   5.852
 4192WAT     H112818   5.891   5.370   5.801
 4192WAT     H212819   5.830   5.345   5.950
 4193WAT      O12820   0.985   0.890   6.646
 4193WAT     H112821   0.967   0.963   6.581
 4193WAT     H212822   0.941   0.912   6.733
 4194WAT      O12823   6.952   2.636   4.196
 4194WAT     H112824   6.857   2.629   4.228
 4194WAT     H212825   6.957   2.608   4.100
 4195WAT      O12826   5.412   0.863   3.788
 4195WAT     H112827   5.424   0.947   3.735
 4195WAT     H212828   5.321   0.825   3.770
 4196WAT      O12829   5.875   8.713   3.814
 4196WAT     H112830   5.797   8.745   3.867
 4196WAT     H212831   5.852   8.626   3.770
 4197WAT      O12832   8.409   7.903   6.944
 4197WAT     H112833   8.334   7.961   6.913
 4197WAT     H212834   8.420   7.826   6.881
 4198WAT      O12835   9.591   0.229   8.151
 4198WAT     H112836   9.497   0.225   8.187
 4198WAT     H212837   9.655   0.201   8.221
 4199WAT      O12838   3.723   3.603   0.051
 4199WAT     H112839   3.813   3.564   0.034
 4199WAT     H212840   3.695   3.584   0.145
 4200WAT      O12841   0.213   6.269   2.515
 4200WAT     H112842   0.311   6.284   2.526
 4200WAT     H212843   0.198   6.192   2.453
 4201WAT      O12844   4.426   4.560   0.824
 4201WAT     H112845   4.373   4.644   0.836
 4201WAT     H212846   4.462   4.530   0.912
 4202WAT      O12847   0.223   2.139   1.464
 4202WAT     H112848   0.218   2.043   1.492
 4202WAT     H212849   0.178   2.196   1.532
 4203WAT      O12850   4.093   1.876   1.483
 4203WAT     H112851   4.063   1.838   1.570
 4203WAT     H212852   4.028   1.946   1.453
 4204WAT      O12853   6.099   1.831   8.537
 4204WAT     H112854   6.067   1.893   8.608
 4204WAT     H212855   6.052   1.743   8.546
 4205WAT      O12856   3.483   8.302   9.048
 4205WAT     H112857   3.392   8.303   9.006
 4205WAT     H212858   3.551   8.276   8.979
 4206WAT      O12859   7.658   5.547   7.189
 4206WAT     H112860   7.609   5.634   7.187
 4206WAT     H212861   7.629   5.494   7.269
 4207WAT      O12862   4.315   3.245   3.408
 4207WAT     H112863   4.352   3.159   3.443
 4207WAT     H212864   4.311   3.313   3.481
 4208WAT      O12865   1.750   9.270   6.254
 4208WAT     H112866   1.749   9.279   6.354
 4208WAT     H212867   1.808   9.192   6.229
 4209WAT      O12868   7.657   1.287   2.869
 4209WAT     H112869   7.617   1.229   2.940
 4209WAT     H212870   7.611   1.375   2.868
 4210WAT      O12871   6.770   7.241   7.490
 4210WAT     H112872   6.800   7.145   7.486
 4210WAT     H212873   6.747   7.265   7.584
 4211WAT      O12874   1.181   4.401   7.730
 4211WAT     H112875   1.192   4.354   7.643
 4211WAT     H212876   1.271   4.413   7.773
 4212WAT      O12877   7.720   0.200   5.614
 4212WAT     H112878   7.675   0.201   5.703
 4212WAT     H212879   7.680   0.128   5.557
 4213WAT      O12880   8.579   3.539   1.856
 4213WAT     H112881   8.667   3.566   1.816
 4213WAT     H212882   8.505   3.569   1.796
 4214WAT      O12883   3.716   1.906   3.191
 4214WAT     H112884   3.651   1.838   3.224
 4214WAT     H212885   3.690   1.996   3.225
 4215WAT      O12886   5.788   3.597   8.863
 4215WAT     H112887   5.817   3.511   8.819
 4215WAT     H212888   5.817   3.597   8.958
 4216WAT      O12889   0.206   3.161   0.773
 4216WAT     H112890   0.125   3.106   0.793
 4216WAT     H212891   0.203   3.246   0.825
 4217WAT      O12892   9.807   4.103   3.095
 4217WAT     H112893   9.870   4.146   3.032
 4217WAT     H212894   9.774   4.170   3.162
 4218WAT      O12895   8.512   8.205   0.449
 4218WAT     H112896   8.533   8.166   0.359
 4218WAT     H212897   8.439   8.272   0.440
 4219WAT      O12898   0.328   8.963   2.116
 4219WAT     H112899   0.388   9.027   2.164
 4219WAT     H212900   0.268   8.918   2.182
 4220WAT      O12901   2.102   0.634   2.837
 4220WAT     H112902   2.158   0.634   2.920
 4220WAT     H212903   2.162   0.633   2.756
 4221WAT      O12904   0.423   5.887   7.080
 4221WAT     H112905   0.328   5.907   7.056
 4221WAT     H212906   0.426   5.840   7.168
 4222WAT      O12907   4.247   4.938   8.741
 4222WAT     H112908   4.319   4.913   8.806
 4222WAT     H212909   4.179   4.865   8.738
 4223WAT      O12910   1.923   9.732   2.532
 4223WAT     H112911   1.931   9.640   2.569
 4223WAT     H212912   1.979   9.740   2.450
 4224WAT      O12913   0.166   1.204   1.986
 4224WAT     H112914   0.142   1.122   1.935
 4224WAT     H212915   0.255   1.238   1.954
 4225WAT      O12916   8.954   1.235   8.334
 4225WAT     H112917   8.978   1.332   8.332
 4225WAT     H212918   8.867   1.224   8.383
 4226WAT      O12919   1.542   3.480   1.421
 4226WAT     H112920   1.444   3.493   1.410
 4226WAT     H212921   1.591   3.520   1.344
 4227WAT      O12922   6.085   6.576   6.724
 4227WAT     H112923   5.987   6.569   6.741
 4227WAT     H212924   6.132   6.600   6.809
 4228WAT      O12925   6.327   7.872   7.618
 4228WAT     H112926   6.337   7.966   7.587
 4228WAT     H212927   6.301   7.871   7.715
 4229WAT      O12928   7.502   6.641   4.665
 4229WAT     H112929   7.477   6.730   4.703
 4229WAT     H212930   7.509   6.574   4.740
 4230WAT      O12931   0.086   0.849   2.433
 4230WAT     H112932   0.037   0.804   2.358
 4230WAT     H212933   0.181   0.863   2.406
 4231WAT      O12934   5.771   2.116   3.335
 4231WAT     H112935   5.705   2.052   3.296
 4231WAT     H212936   5.739   2.209   3.323
 4232WAT      O12937   9.699   3.106   0.801
 4232WAT     H112938   9.790   3.084   0.835
 4232WAT     H212939   9.641   3.024   0.802
 4233WAT      O12940   6.867   2.161   1.413
 4233WAT     H112941   6.946   2.125   1.461
 4233WAT     H212942   6.897   2.217   1.336
 4234WAT      O12943   3.912   2.385   2.842
 4234WAT     H112944   3.824   2.379   2.889
 4234WAT     H212945   3.957   2.470   2.868
 4235WAT      O12946   1.780   4.069   0.529
 4235WAT     H112947   1.688   4.034   0.545
 4235WAT     H212948   1.777   4.169   0.524
 4236WAT      O12949   9.675   4.495   5.934
 4236WAT     H112950   9.650   4.412   5.884
 4236WAT     H212951   9.774   4.504   5.935
 4237WAT      O12952   5.676   6.943   2.909
 4237WAT     H112953   5.692   6.845   2.913
 4237WAT     H212954   5.763   6.992   2.915
 4238WAT      O12955   1.021   7.863   6.584
 4238WAT     H112956   1.051   7.885   6.677
 4238WAT     H212957   1.071   7.782   6.551
 4239WAT      O12958   3.563   6.876   8.630
 4239WAT     H112959   3.486   6.817   8.605
 4239WAT     H212960   3.621   6.890   8.550
 4240WAT      O12961   4.857   1.205   2.256
 4240WAT     H112962   4.792   1.275   2.229
 4240WAT     H212963   4.852   1.191   2.355
 4241WAT      O12964   8.100   2.060   1.765
 4241WAT     H112965   8.120   1.974   1.812
 4241WAT     H212966   8.106   2.046   1.666
 4242WAT      O12967   6.125   5.979   0.263
 4242WAT     H112968   6.154   5.905   0.324
 4242WAT     H212969   6.058   5.944   0.198
 4243WAT      O12970   3.165   0.769   6.284
 4243WAT     H112971   3.082   0.715   6.271
 4243WAT     H212972   3.152   0.860   6.244
 4244WAT      O12973   2.235   9.441   2.334
 4244WAT     H112974   2.257   9.403   2.424
 4244WAT     H212975   2.194   9.531   2.345
 4245WAT      O12976   0.246   2.491   1.347
 4245WAT     H112977   0.244   2.530   1.439
 4245WAT     H212978   0.335   2.448   1.331
 4246WAT      O12979   1.843   4.808   9.878
 4246WAT     H112980   1.911   4.753   9.926
 4246WAT     H212981   1.878   4.833   9.788
 4247WAT      O12982   8.757   2.315   9.190
 4247WAT     H112983   8.839   2.367   9.165
 4247WAT     H212984   8.756   2.229   9.139
 4248WAT      O12985   4.481   9.391   0.387
 4248WAT     H112986   4.520   9.439   0.308
 4248WAT     H212987   4.489   9.293   0.374
 4249WAT      O12988   5.493   9.086   2.090
 4249WAT     H112989   5.461   9.173   2.128
 4249WAT     H212990   5.458   9.011   2.145
 4250WAT      O12991   9.739   8.663   4.461
 4250WAT     H112992   9.670   8.695   4.395
 4250WAT     H212993   9.827   8.705   4.441
 4251WAT      O12994   2.967   1.123   8.968
 4251WAT     H112995   3.065   1.134   8.951
 4251WAT     H212996   2.915   1.160   8.891
 4252WAT      O12997   5.041   3.807   4.681
 4252WAT     H112998   4.978   3.837   4.609
 4252WAT     H212999   5.122   3.765   4.640
 4253WAT      O13000   2.228   4.755   6.101
 4253WAT     H113001   2.281   4.695   6.160
 4253WAT     H213002   2.218   4.845   6.145
 4254WAT      O13003   6.801   9.755   3.103
 4254WAT     H113004   6.716   9.765   3.051
 4254WAT     H213005   6.801   9.820   3.179
 4255WAT      O13006   9.588   4.315   7.278
 4255WAT     H113007   9.548   4.231   7.243
 4255WAT     H213008   9.518   4.369   7.326
 4256WAT      O13009   9.732   7.773   7.712
 4256WAT     H113010   9.782   7.687   7.708
 4256WAT     H213011   9.705   7.800   7.619
 4257WAT      O13012   8.073   8.470   6.825
 4257WAT     H113013   8.012   8.400   6.787
 4257WAT     H213014   8.028   8.559   6.823
 4258WAT      O13015   2.564   1.856   3.580
 4258WAT     H113016   2.510   1.934   3.548
 4258WAT     H213017   2.579   1.864   3.678
 4259WAT      O13018   5.675   8.719   8.926
 4259WAT     H113019   5.703   8.786   8.858
 4259WAT     H213020   5.710   8.629   8.899
 4260WAT      O13021   4.299   5.160   3.278
 4260WAT     H113022   4.262   5.174   3.186
 4260WAT     H213023   4.251   5.220   3.343
 4261WAT      O13024   9.793   9.090   6.215
 4261WAT     H113025   9.796   9.166   6.279
 4261WAT     H213026   9.886   9.066   6.186
 4262WAT      O13027   8.514   9.285   5.981
 4262WAT     H113028   8.543   9.222   6.054
 4262WAT     H213029   8.495   9.232   5.898
 4263WAT      O13030   2.764   6.077   6.065
 4263WAT     H113031   2.798   5.999   6.012
 4263WAT     H213032   2.783   6.162   6.015
 4264WAT      O13033   9.417   7.907   3.781
 4264WAT     H113034   9.372   7.984   3.827
 4264WAT     H213035   9.497   7.941   3.732
 4265WAT      O13036   1.954   6.814   1.021
 4265WAT     H113037   1.979   6.742   1.086
 4265WAT     H213038   2.013   6.894   1.034
 4266WAT      O13039   6.484   2.130   4.880
 4266WAT     H113040   6.541   2.189   4.824
 4266WAT     H213041   6.526   2.117   4.970
 4267WAT      O13042   8.326   4.577   2.951
 4267WAT     H113043   8.364   4.486   2.935
 4267WAT     H213044   8.284   4.581   3.042
 4268WAT      O13045   7.962   9.459   1.796
 4268WAT     H113046   7.928   9.492   1.708
 4268WAT     H213047   7.887   9.455   1.861
 4269WAT      O13048   2.872   0.023   3.978
 4269WAT     H113049   2.944  -0.044   3.958
 4269WAT     H213050   2.819   0.040   3.895
 4270WAT      O13051   2.745   2.807   9.195
 4270WAT     H113052   2.718   2.769   9.107
 4270WAT     H213053   2.696   2.893   9.211
 4271WAT      O13054   0.970   8.445   0.905
 4271WAT     H113055   0.961   8.369   0.969
 4271WAT     H213056   0.941   8.415   0.814
 4272WAT      O13057   7.059   4.583   6.350
 4272WAT     H113058   6.997   4.639   6.405
 4272WAT     H213059   7.012   4.553   6.267
 4273WAT      O13060   1.456   2.056   2.366
 4273WAT     H113061   1.427   1.961   2.367
 4273WAT     H213062   1.502   2.077   2.280
 4274WAT      O13063   4.796   7.506   8.825
 4274WAT     H113064   4.719   7.542   8.772
 4274WAT     H213065   4.840   7.581   8.874
 4275WAT      O13066   0.721   4.146   6.438
 4275WAT     H113067   0.741   4.070   6.500
 4275WAT     H213068   0.805   4.198   6.421
 4276WAT      O13069   1.294   3.567   9.214
 4276WAT     H113070   1.280   3.608   9.124
 4276WAT     H213071   1.224   3.600   9.277
 4277WAT      O13072   8.640   1.466   2.142
 4277WAT     H113073   8.707   1.530   2.179
 4277WAT     H213074   8.627   1.485   2.044
 4278WAT      O13075   0.902   7.024   5.356
 4278WAT     H113076   0.918   6.953   5.288
 4278WAT     H213077   0.810   7.014   5.394
 4279WAT      O13078   1.198   8.143   3.438
 4279WAT     H113079   1.164   8.148   3.532
 4279WAT     H213080   1.129   8.181   3.376
 4280WAT      O13081   3.600   5.967   6.581
 4280WAT     H113082   3.503   5.990   6.587
 4280WAT     H213083   3.610   5.870   6.562
 4281WAT      O13084   0.668   1.886   3.982
 4281WAT     H113085   0.625   1.961   3.931
 4281WAT     H213086   0.621   1.800   3.961
 4282WAT      O13087   2.101   3.164   7.629
 4282WAT     H113088   2.169   3.230   7.597
 4282WAT     H213089   2.138   3.115   7.708
 4283WAT      O13090   2.475   4.234   3.321
 4283WAT     H113091   2.501   4.168   3.391
 4283WAT     H213092   2.553   4.249   3.260
 4284WAT      O13093   8.769   3.175   5.483
 4284WAT     H113094   8.771   3.117   5.565
 4284WAT     H213095   8.833   3.138   5.416
 4285WAT      O13096   8.540   8.655   8.414
 4285WAT     H113097   8.582   8.650   8.505
 4285WAT     H213098   8.576   8.581   8.357
 4286WAT      O13099   3.054   3.604   3.991
 4286WAT     H113100   3.030   3.685   4.045
 4286WAT     H213101   3.150   3.580   4.006
 4287WAT      O13102   9.389   5.350   1.965
 4287WAT     H113103   9.437   5.336   2.051
 4287WAT     H213104   9.357   5.445   1.960
 4288WAT      O13105   5.706   3.130   2.287
 4288WAT     H113106   5.800   3.108   2.262
 4288WAT     H213107   5.643   3.073   2.233
 4289WAT      O13108   6.435   5.692   6.247
 4289WAT     H113109   6.463   5.770   6.191
 4289WAT     H213110   6.468   5.705   6.341
 4290WAT      O13111   8.565   4.502   0.552
 4290WAT     H113112   8.482   4.531   0.598
 4290WAT     H213113   8.611   4.581   0.512
 4291WAT      O13114   2.979   8.521   3.737
 4291WAT     H113115   2.895   8.550   3.690
 4291WAT     H213116   3.057   8.531   3.675
 4292WAT      O13117   3.038   9.110   0.598
 4292WAT     H113118   3.023   9.209   0.603
 4292WAT     H213119   2.962   9.062   0.642
 4293WAT      O13120   5.082   0.175   4.405
 4293WAT     H113121   5.002   0.178   4.466
 4293WAT     H213122   5.105   0.267   4.375
 4294WAT      O13123   0.102   5.320   2.209
 4294WAT     H113124   0.031   5.337   2.142
 4294WAT     H213125   0.190   5.307   2.163
 4295WAT      O13126   3.296   4.184   5.806
 4295WAT     H113127   3.365   4.139   5.749
 4295WAT     H213128   3.322   4.175   5.903
 4296WAT      O13129   0.255   8.589   3.245
 4296WAT     H113130   0.233   8.659   3.178
 4296WAT     H213131   0.317   8.626   3.313
 4297WAT      O13132   7.882   0.466   3.213
 4297WAT     H113133   7.973   0.491   3.181
 4297WAT     H213134   7.873   0.366   3.213
 4298WAT      O13135   7.421   5.250   2.497
 4298WAT     H113136   7.340   5.304   2.475
 4298WAT     H213137   7.394   5.173   2.555
 4299WAT      O13138   9.123   2.728   1.113
 4299WAT     H113139   9.167   2.787   1.045
 4299WAT     H213140   9.186   2.656   1.142
 4300WAT      O13141   4.215   6.896   0.450
 4300WAT     H113142   4.206   6.879   0.548
 4300WAT     H213143   4.187   6.990   0.430
 4301WAT      O13144   4.126   0.394   4.602
 4301WAT     H113145   4.111   0.347   4.515
 4301WAT     H213146   4.125   0.493   4.586
 4302WAT      O13147   5.082   7.189   4.105
 4302WAT     H113148   5.115   7.101   4.140
 4302WAT     H213149   5.094   7.192   4.005
 4303WAT      O13150   8.964   2.912   9.802
 4303WAT     H113151   8.983   2.821   9.765
 4303WAT     H213152   8.957   2.978   9.727
 4304WAT      O13153   8.764   7.882   5.808
 4304WAT     H113154   8.792   7.786   5.805
 4304WAT     H213155   8.744   7.914   5.715
 4305WAT      O13156   4.435   1.076   2.592
 4305WAT     H113157   4.442   1.028   2.505
 4305WAT     H213158   4.347   1.056   2.635
 4306WAT      O13159   4.996   5.002   9.341
 4306WAT     H113160   4.904   5.040   9.328
 4306WAT     H213161   4.990   4.919   9.398
 4307WAT      O13162   3.708   2.427   2.127
 4307WAT     H113163   3.728   2.330   2.138
 4307WAT     H213164   3.687   2.467   2.216
 4308WAT      O13165   3.637   0.914   0.303
 4308WAT     H113166   3.657   0.903   0.205
 4308WAT     H213167   3.538   0.905   0.318
 4309WAT      O13168   6.415   6.669   2.919
 4309WAT     H113169   6.480   6.596   2.940
 4309WAT     H213170   6.332   6.656   2.972
 4310WAT      O13171   0.263   3.767   4.895
 4310WAT     H113172   0.362   3.783   4.895
 4310WAT     H213173   0.217   3.845   4.853
 4311WAT      O13174   8.427   3.033   5.134
 4311WAT     H113175   8.371   3.084   5.200
 4311WAT     H213176   8.448   2.942   5.172
 4312WAT      O13177   3.714   2.246   4.781
 4312WAT     H113178   3.726   2.318   4.713
 4312WAT     H213179   3.740   2.280   4.872
 4313WAT      O13180   1.239   5.272   0.969
 4313WAT     H113181   1.270   5.244   0.878
 4313WAT     H213182   1.294   5.349   1.001
 4314WAT      O13183   6.959   2.823   9.109
 4314WAT     H113184   7.024   2.844   9.037
 4314WAT     H213185   6.883   2.769   9.073
 4315WAT      O13186   0.859   1.791   1.424
 4315WAT     H113187   0.902   1.845   1.352
 4315WAT     H213188   0.764   1.819   1.435
 4316WAT      O13189   6.493   4.634   3.529
 4316WAT     H113190   6.404   4.605   3.494
 4316WAT     H213191   6.482   4.723   3.575
 4317WAT      O13192   6.260   8.262   4.222
 4317WAT     H113193   6.318   8.341   4.239
 4317WAT     H213194   6.173   8.274   4.269
 4318WAT      O13195   2.707   5.177   7.610
 4318WAT     H113196   2.615   5.149   7.583
 4318WAT     H213197   2.708   5.201   7.707
 4319WAT      O13198   1.873   2.374   6.453
 4319WAT     H113199   1.885   2.407   6.359
 4319WAT     H213200   1.826   2.285   6.451
 4320WAT      O13201   4.726   1.848   0.886
 4320WAT     H113202   4.775   1.838   0.800
 4320WAT     H213203   4.649   1.783   0.888
 4321WAT      O13204   1.014   0.504   3.915
 4321WAT     H113205   0.922   0.536   3.938
 4321WAT     H213206   1.044   0.436   3.982
 4322WAT      O13207   7.086   3.499   0.554
 4322WAT     H113208   7.099   3.400   0.549
 4322WAT     H213209   6.988   3.520   0.555
 4323WAT      O13210   1.645   0.965   5.001
 4323WAT     H113211   1.678   0.988   4.910
 4323WAT     H213212   1.690   0.881   5.033
 4324WAT      O13213   9.721   9.602   5.684
 4324WAT     H113214   9.741   9.664   5.608
 4324WAT     H213215   9.647   9.539   5.658
 4325WAT      O13216   3.943   3.205   6.596
 4325WAT     H113217   3.977   3.195   6.502
 4325WAT     H213218   3.918   3.300   6.612
 4326WAT      O13219   5.144   4.301   9.701
 4326WAT     H113220   5.243   4.289   9.707
 4326WAT     H213221   5.101   4.260   9.781
 4327WAT      O13222   0.408   6.585   8.943
 4327WAT     H113223   0.344   6.565   9.018
 4327WAT     H213224   0.498   6.547   8.966
 4328WAT      O13225   9.261   1.780   7.411
 4328WAT     H113226   9.216   1.744   7.330
 4328WAT     H213227   9.332   1.845   7.384
 4329WAT      O13228   5.514   0.531   1.051
 4329WAT     H113229   5.587   0.468   1.077
 4329WAT     H213230   5.548   0.596   0.983
 4330WAT      O13231   3.203   1.147   8.096
 4330WAT     H113232   3.140   1.223   8.109
 4330WAT     H213233   3.261   1.165   8.016
 4331WAT      O13234   7.933   7.442   1.079
 4331WAT     H113235   7.878   7.421   1.160
 4331WAT     H213236   8.005   7.374   1.069
 4332WAT      O13237   9.624   5.710   1.965
 4332WAT     H113238   9.571   5.661   1.896
 4332WAT     H213239   9.604   5.808   1.959
 4333WAT      O13240   1.464   3.521   4.684
 4333WAT     H113241   1.523   3.447   4.653
 4333WAT     H213242   1.485   3.604   4.633
 4334WAT      O13243   7.525   4.400   9.185
 4334WAT     H113244   7.476   4.468   9.131
 4334WAT     H213245   7.524   4.427   9.281
 4335WAT      O13246   2.051   6.838   2.425
 4335WAT     H113247   2.100   6.916   2.387
 4335WAT     H213248   2.114   6.761   2.436
 4336WAT      O13249   8.429   2.065   7.519
 4336WAT     H113250   8.357   2.073   7.451
 4336WAT     H213251   8.449   1.969   7.536
 4337WAT      O13252   7.140   0.309   5.460
 4337WAT     H113253   7.121   0.231   5.520
 4337WAT     H213254   7.056   0.339   5.416
 4338WAT      O13255   2.936   4.538   9.483
 4338WAT     H113256   2.924   4.448   9.442
 4338WAT     H213257   2.899   4.538   9.575
 4339WAT      O13258   1.648   0.370   5.734
 4339WAT     H113259   1.564   0.423   5.749
 4339WAT     H213260   1.646   0.330   5.642
 4340WAT      O13261   0.497   8.190   9.827
 4340WAT     H113262   0.573   8.211   9.765
 4340WAT     H213263   0.484   8.265   9.892
 4341WAT      O13264   5.115   4.240   6.640
 4341WAT     H113265   5.043   4.180   6.606
 4341WAT     H213266   5.076   4.330   6.661
 4342WAT      O13267   6.894   1.732   1.592
 4342WAT     H113268   6.887   1.688   1.502
 4342WAT     H213269   6.843   1.817   1.591
 4343WAT      O13270   8.881   7.599   2.330
 4343WAT     H113271   8.878   7.507   2.369
 4343WAT     H213272   8.970   7.640   2.349
 4344WAT      O13273   9.110   2.734   9.353
 4344WAT     H113274   9.140   2.754   9.259
 4344WAT     H213275   9.183   2.683   9.400
 4345WAT      O13276   7.165   1.741   1.703
 4345WAT     H113277   7.081   1.736   1.649
 4345WAT     H213278   7.180   1.835   1.733
 4346WAT      O13279   9.159   0.331   6.998
 4346WAT     H113280   9.239   0.282   7.033
 4346WAT     H213281   9.076   0.280   7.019
 4347WAT      O13282   6.219   7.971   5.915
 4347WAT     H113283   6.285   7.955   5.842
 4347WAT     H213284   6.143   7.907   5.906
 4348WAT      O13285   0.487   2.734   8.836
 4348WAT     H113286   0.537   2.712   8.752
 4348WAT     H213287   0.521   2.821   8.873
 4349WAT      O13288   6.188   4.303   9.395
 4349WAT     H113289   6.175   4.354   9.480
 4349WAT     H213290   6.283   4.274   9.387
 4350WAT      O13291   5.479   5.297   7.031
 4350WAT     H113292   5.575   5.271   7.020
 4350WAT     H213293   5.423   5.215   7.041
 4351WAT      O13294   5.912   4.936   3.436
 4351WAT     H113295   5.973   5.002   3.480
 4351WAT     H213296   5.938   4.927   3.340
 4352WAT      O13297   5.398   0.223   0.951
 4352WAT     H113298   5.399   0.312   0.997
 4352WAT     H213299   5.453   0.158   1.004
 4353WAT      O13300   6.242   3.734   1.876
 4353WAT     H113301   6.215   3.820   1.919
 4353WAT     H213302   6.327   3.702   1.917
 4354WAT      O13303   0.404   5.279   3.148
 4354WAT     H113304   0.390   5.271   3.246
 4354WAT     H213305   0.439   5.192   3.113
 4355WAT      O13306   9.418   3.034   5.851
 4355WAT     H113307   9.412   3.031   5.751
 4355WAT     H213308   9.375   2.953   5.890
 4356WAT      O13309   7.714   6.071   2.255
 4356WAT     H113310   7.703   6.041   2.161
 4356WAT     H213311   7.671   6.005   2.317
 4357WAT      O13312   4.981   6.788   7.467
 4357WAT     H113313   5.029   6.785   7.555
 4357WAT     H213314   4.939   6.699   7.449
 4358WAT      O13315   1.340   0.388   6.071
 4358WAT     H113316   1.409   0.316   6.081
 4358WAT     H213317   1.324   0.430   6.161
 4359WAT      O13318   5.002   2.188   6.311
 4359WAT     H113319   5.049   2.126   6.374
 4359WAT     H213320   5.046   2.278   6.315
 4360WAT      O13321   9.064   6.184   8.686
 4360WAT     H113322   9.068   6.273   8.733
 4360WAT     H213323   9.154   6.141   8.687
 4361WAT      O13324   6.677   5.145   5.604
 4361WAT     H113325   6.578   5.134   5.602
 4361WAT     H213326   6.702   5.233   5.565
 4362WAT      O13327   4.192   9.803   3.719
 4362WAT     H113328   4.146   9.798   3.808
 4362WAT     H213329   4.206   9.899   3.694
 4363WAT      O13330   3.068   2.354   2.305
 4363WAT     H113331   2.983   2.385   2.263
 4363WAT     H213332   3.146   2.399   2.261
 4364WAT      O13333   1.869   4.189   4.917
 4364WAT     H113334   1.914   4.107   4.881
 4364WAT     H213335   1.774   4.191   4.885
 4365WAT      O13336   3.769   1.898   2.903
 4365WAT     H113337   3.791   1.911   3.000
 4365WAT     H213338   3.818   1.965   2.848
 4366WAT      O13339   3.547   8.083   7.925
 4366WAT     H113340   3.548   8.156   7.856
 4366WAT     H213341   3.456   8.042   7.928
 4367WAT      O13342   4.321   9.058   0.857
 4367WAT     H113343   4.407   9.093   0.819
 4367WAT     H213344   4.249   9.067   0.788
 4368WAT      O13345   7.103   6.899   1.543
 4368WAT     H113346   7.185   6.845   1.561
 4368WAT     H213347   7.122   6.995   1.563
 4369WAT      O13348   7.235   2.148   3.997
 4369WAT     H113349   7.313   2.194   4.039
 4369WAT     H213350   7.266   2.088   3.923
 4370WAT      O13351   8.436   3.605   4.928
 4370WAT     H113352   8.483   3.519   4.909
 4370WAT     H213353   8.414   3.652   4.842
 4371WAT      O13354   5.071   7.075   1.880
 4371WAT     H113355   5.010   7.000   1.905
 4371WAT     H213356   5.058   7.098   1.783
 4372WAT      O13357   6.072   4.720   7.498
 4372WAT     H113358   6.171   4.729   7.483
 4372WAT     H213359   6.030   4.810   7.501
 4373WAT      O13360   8.998   2.299   9.565
 4373WAT     H113361   9.079   2.349   9.595
 4373WAT     H213362   9.013   2.201   9.576
 4374WAT      O13363   8.323   3.600   4.062
 4374WAT     H113364   8.287   3.675   4.007
 4374WAT     H213365   8.419   3.585   4.041
 4375WAT      O13366   5.996   0.816   0.454
 4375WAT     H113367   6.017   0.841   0.549
 4375WAT     H213368   5.963   0.896   0.405
 4376WAT      O13369   5.197   7.095   2.785
 4376WAT     H113370   5.271   7.030   2.799
 4376WAT     H213371   5.188   7.153   2.866
 4377WAT      O13372   9.714   6.507   2.579
 4377WAT     H113373   9.723   6.562   2.663
 4377WAT     H213374   9.632   6.534   2.530
 4378WAT      O13375   8.349   9.108   3.903
 4378WAT     H113376   8.381   9.168   3.976
 4378WAT     H213377   8.425   9.049   3.874
 4379WAT      O13378   1.862   2.515   3.877
 4379WAT     H113379   1.815   2.431   3.849
 4379WAT     H213380   1.798   2.574   3.928
 4380WAT      O13381   7.547   6.488   7.268
 4380WAT     H113382   7.613   6.553   7.230
 4380WAT     H213383   7.588   6.441   7.347
 4381WAT      O13384   1.877   0.725   1.938
 4381WAT     H113385   1.844   0.813   1.973
 4381WAT     H213386   1.800   0.665   1.919
 4382WAT      O13387   2.949   4.871   0.475
 4382WAT     H113388   2.868   4.927   0.495
 4382WAT     H213389   2.992   4.843   0.561
 4383WAT      O13390   1.569   4.703   4.314
 4383WAT     H113391   1.569   4.629   4.381
 4383WAT     H213392   1.508   4.680   4.238
 4384WAT      O13393   4.067   4.091   9.151
 4384WAT     H113394   4.094   4.022   9.084
 4384WAT     H213395   4.119   4.175   9.133
 4385WAT      O13396   5.904   3.423   8.218
 4385WAT     H113397   5.868   3.331   8.206
 4385WAT     H213398   5.830   3.489   8.204
 4386WAT      O13399   8.179   2.542   5.632
 4386WAT     H113400   8.227   2.540   5.544
 4386WAT     H213401   8.086   2.506   5.620
 4387WAT      O13402   4.898   0.974   2.778
 4387WAT     H113403   4.979   1.032   2.770
 4387WAT     H213404   4.923   0.879   2.758
 4388WAT      O13405   0.183   2.465   2.068
 4388WAT     H113406   0.202   2.379   2.115
 4388WAT     H213407   0.269   2.506   2.038
 4389WAT      O13408   7.057   3.220   8.207
 4389WAT     H113409   7.150   3.252   8.193
 4389WAT     H213410   6.992   3.289   8.174
 4390WAT      O13411   8.316   2.977   1.795
 4390WAT     H113412   8.361   3.061   1.825
 4390WAT     H213413   8.218   2.994   1.784
 4391WAT      O13414   0.983   5.307   0.915
 4391WAT     H113415   0.954   5.226   0.865
 4391WAT     H213416   1.081   5.299   0.937
 4392WAT      O13417   2.117   1.660   8.167
 4392WAT     H113418   2.159   1.604   8.096
 4392WAT     H213419   2.051   1.722   8.126
 4393WAT      O13420   6.070   7.351   9.228
 4393WAT     H113421   6.011   7.375   9.151
 4393WAT     H213422   6.100   7.434   9.275
 4394WAT      O13423   5.098   8.690   1.446
 4394WAT     H113424   5.095   8.590   1.446
 4394WAT     H213425   5.191   8.721   1.468
 4395WAT      O13426   3.103   4.635   4.991
 4395WAT     H113427   3.155   4.644   4.906
 4395WAT     H213428   3.084   4.539   5.009
 4396WAT      O13429   5.539   5.850   6.918
 4396WAT     H113430   5.597   5.776   6.951
 4396WAT     H213431   5.471   5.813   6.854
 4397WAT      O13432   7.500   5.439   1.809
 4397WAT     H113433   7.408   5.399   1.809
 4397WAT     H213434   7.511   5.496   1.891
 4398WAT      O13435   8.686   4.429   5.503
 4398WAT     H113436   8.660   4.501   5.567
 4398WAT     H213437   8.604   4.392   5.460
 4399WAT      O13438   2.696   2.951   2.685
 4399WAT     H113439   2.628   2.939   2.757
 4399WAT     H213440   2.787   2.956   2.727
 4400WAT      O13441   7.868   3.310   6.840
 4400WAT     H113442   7.860   3.252   6.922
 4400WAT     H213443   7.959   3.300   6.801
 4401WAT      O13444   2.355   5.738   8.130
 4401WAT     H113445   2.438   5.723   8.185
 4401WAT     H213446   2.377   5.723   8.034
 4402WAT      O13447   0.311   6.639   1.300
 4402WAT     H113448   0.398   6.632   1.349
 4402WAT     H213449   0.236   6.622   1.364
 4403WAT      O13450   8.020   4.458   5.791
 4403WAT     H113451   7.953   4.522   5.828
 4403WAT     H213452   8.011   4.370   5.838
 4404WAT      O13453   7.474   2.707   5.589
 4404WAT     H113454   7.459   2.769   5.667
 4404WAT     H213455   7.554   2.651   5.606
 4405WAT      O13456   9.404   7.958   5.462
 4405WAT     H113457   9.415   7.926   5.556
 4405WAT     H213458   9.470   7.910   5.403
 4406WAT      O13459   4.956   0.534   3.103
 4406WAT     H113460   5.039   0.503   3.056
 4406WAT     H213461   4.966   0.629   3.131
 4407WAT      O13462   7.076   1.658   1.968
 4407WAT     H113463   7.138   1.657   1.890
 4407WAT     H213464   7.121   1.616   2.047
 4408WAT      O13465   0.922   1.890   2.108
 4408WAT     H113466   0.934   1.808   2.052
 4408WAT     H213467   0.882   1.864   2.196
 4409WAT      O13468   9.685   8.974   4.245
 4409WAT     H113469   9.674   8.978   4.146
 4409WAT     H213470   9.757   9.037   4.273
 4410WAT      O13471   0.995   4.136   8.019
 4410WAT     H113472   0.939   4.215   7.994
 4410WAT     H213473   1.023   4.087   7.936
 4411WAT      O13474   0.951   9.662   2.934
 4411WAT     H113475   0.965   9.758   2.961
 4411WAT     H213476   0.869   9.656   2.876
 4412WAT      O13477   7.880   4.244   0.047
 4412WAT     H113478   7.970   4.253   0.089
 4412WAT     H213479   7.869   4.313  -0.024
 4413WAT      O13480   3.756   1.421   3.978
 4413WAT     H113481   3.718   1.407   3.887
 4413WAT     H213482   3.682   1.433   4.044
 4414WAT      O13483   8.999   4.266   4.563
 4414WAT     H113484   8.934   4.342   4.566
 4414WAT     H213485   8.987   4.209   4.644
 4415WAT      O13486   9.315   6.417   4.658
 4415WAT     H113487   9.232   6.361   4.665
 4415WAT     H213488   9.291   6.514   4.660
 4416WAT      O13489   1.584   5.878   3.635
 4416WAT     H113490   1.496   5.874   3.587
 4416WAT     H213491   1.656   5.902   3.570
 4417WAT      O13492   6.827   6.578   5.438
 4417WAT     H113493   6.762   6.613   5.370
 4417WAT     H213494   6.840   6.646   5.510
 4418WAT      O13495   3.037   0.947   8.640
 4418WAT     H113496   2.986   0.927   8.724
 4418WAT     H213497   2.995   1.025   8.594
 4419WAT      O13498   1.766   7.347   5.786
 4419WAT     H113499   1.730   7.378   5.698
 4419WAT     H213500   1.758   7.248   5.792
 4420WAT      O13501   2.576   2.302   0.170
 4420WAT     H113502   2.666   2.260   0.187
 4420WAT     H213503   2.564   2.380   0.232
 4421WAT      O13504   4.333   5.872   1.606
 4421WAT     H113505   4.410   5.841   1.662
 4421WAT     H213506   4.252   5.819   1.630
 4422WAT      O13507   9.869   5.535   2.318
 4422WAT     H113508   9.954   5.560   2.270
 4422WAT     H213509   9.865   5.436   2.329
 4423WAT      O13510   2.776   2.752   3.601
 4423WAT     H113511   2.753   2.667   3.553
 4423WAT     H213512   2.872   2.775   3.584
 4424WAT      O13513   6.529   9.715   8.266
 4424WAT     H113514   6.434   9.749   8.266
 4424WAT     H213515   6.562   9.709   8.172
 4425WAT      O13516   4.037   7.557   7.655
 4425WAT     H113517   3.981   7.475   7.650
 4425WAT     H213518   4.041   7.601   7.566
 4426WAT      O13519   7.749   8.935   1.137
 4426WAT     H113520   7.738   9.034   1.137
 4426WAT     H213521   7.731   8.899   1.046
 4427WAT      O13522   6.568   4.587   3.242
 4427WAT     H113523   6.548   4.626   3.333
 4427WAT     H213524   6.620   4.653   3.189
 4428WAT      O13525   3.988   2.009   5.008
 4428WAT     H113526   3.950   2.062   5.084
 4428WAT     H213527   3.914   1.983   4.946
 4429WAT      O13528   6.637   7.877   2.672
 4429WAT     H113529   6.678   7.919   2.752
 4429WAT     H213530   6.546   7.915   2.657
 4430WAT      O13531   8.254   1.510   0.130
 4430WAT     H113532   8.253   1.415   0.161
 4430WAT     H213533   8.317   1.520   0.053
 4431WAT      O13534   6.810   6.485   3.355
 4431WAT     H113535   6.788   6.412   3.419
 4431WAT     H213536   6.734   6.550   3.351
 4432WAT      O13537   8.397   3.126   7.617
 4432WAT     H113538   8.332   3.197   7.643
 4432WAT     H213539   8.413   3.131   7.518
 4433WAT      O13540   1.231   1.742   4.799
 4433WAT     H113541   1.215   1.815   4.731
 4433WAT     H213542   1.327   1.742   4.825
 4434WAT      O13543   5.443   4.200   3.974
 4434WAT     H113544   5.349   4.188   3.943
 4434WAT     H213545   5.494   4.115   3.959
 4435WAT      O13546   6.477   0.495   7.092
 4435WAT     H113547   6.396   0.465   7.143
 4435WAT     H213548   6.461   0.587   7.054
 4436WAT      O13549   5.546   2.387   4.192
 4436WAT     H113550   5.560   2.478   4.153
 4436WAT     H213551   5.453   2.381   4.229
 4437WAT      O13552   7.465   2.604   0.379
 4437WAT     H113553   7.401   2.580   0.452
 4437WAT     H213554   7.445   2.548   0.298
 4438WAT      O13555   6.783   7.407   2.438
 4438WAT     H113556   6.791   7.478   2.368
 4438WAT     H213557   6.783   7.317   2.394
 4439WAT      O13558   8.141   6.209   0.611
 4439WAT     H113559   8.183   6.156   0.684
 4439WAT     H213560   8.055   6.165   0.583
 4440WAT      O13561   2.515   4.715   8.593
 4440WAT     H113562   2.577   4.637   8.606
 4440WAT     H213563   2.426   4.693   8.632
 4441WAT      O13564   3.466   3.718   0.284
 4441WAT     H113565   3.491   3.815   0.292
 4441WAT     H213566   3.547   3.662   0.302
 4442WAT      O13567   2.917   1.273   3.855
 4442WAT     H113568   2.979   1.198   3.880
 4442WAT     H213569   2.870   1.306   3.936
 4443WAT      O13570   9.707   5.024   7.947
 4443WAT     H113571   9.766   5.077   8.007
 4443WAT     H213572   9.627   5.078   7.921
 4444WAT      O13573   9.385   9.253   3.524
 4444WAT     H113574   9.342   9.297   3.603
 4444WAT     H213575   9.365   9.304   3.441
 4445WAT      O13576   4.630   7.566   6.086
 4445WAT     H113577   4.654   7.512   6.167
 4445WAT     H213578   4.532   7.586   6.087
 4446WAT      O13579   1.733   8.337   1.787
 4446WAT     H113580   1.830   8.353   1.767
 4446WAT     H213581   1.725   8.275   1.864
 4447WAT      O13582   5.934   4.579   8.779
 4447WAT     H113583   5.950   4.569   8.681
 4447WAT     H213584   5.992   4.651   8.816
 4448WAT      O13585   0.999   7.502   8.895
 4448WAT     H113586   0.924   7.540   8.841
 4448WAT     H213587   0.990   7.532   8.990
 4449WAT      O13588   9.575   9.825   3.918
 4449WAT     H113589   9.667   9.826   3.878
 4449WAT     H213590   9.538   9.918   3.916
 4450WAT      O13591   1.234   3.928   8.355
 4450WAT     H113592   1.241   3.841   8.402
 4450WAT     H213593   1.325   3.957   8.325
 4451WAT      O13594   9.406   8.258   5.803
 4451WAT     H113595   9.437   8.164   5.817
 4451WAT     H213596   9.380   8.270   5.708
 4452WAT      O13597   0.475   8.547   5.955
 4452WAT     H113598   0.395   8.595   5.991
 4452WAT     H213599   0.478   8.454   5.993
 4453WAT      O13600   8.889   9.677   1.039
 4453WAT     H113601   8.981   9.687   1.004
 4453WAT     H213602   8.856   9.584   1.021
 4454WAT      O13603   9.892   4.777   7.994
 4454WAT     H113604   9.858   4.690   7.958
 4454WAT     H213605   9.816   4.842   8.000
 4455WAT      O13606   5.035   4.769   5.902
 4455WAT     H113607   5.031   4.839   5.973
 4455WAT     H213608   4.947   4.764   5.855
 4456WAT      O13609   5.083   3.267   2.950
 4456WAT     H113610   5.134   3.246   2.867
 4456WAT     H213611   5.148   3.285   3.025
 4457WAT      O13612   9.131   6.740   3.059
 4457WAT     H113613   9.038   6.738   3.022
 4457WAT     H213614   9.186   6.667   3.017
 4458WAT      O13615   1.837   3.204   6.161
 4458WAT     H113616   1.911   3.147   6.125
 4458WAT     H213617   1.869   3.254   6.241
 4459WAT      O13618   1.360   1.944   9.630
 4459WAT     H113619   1.396   1.977   9.717
 4459WAT     H213620   1.283   1.883   9.647
 4460WAT      O13621   1.375   3.638   0.095
 4460WAT     H113622   1.447   3.640   0.165
 4460WAT     H213623   1.297   3.691   0.127
 4461WAT      O13624   0.616   0.544   5.321
 4461WAT     H113625   0.528   0.535   5.367
 4461WAT     H213626   0.628   0.639   5.291
 4462WAT      O13627   2.301   0.188   3.158
 4462WAT     H113628   2.217   0.226   3.195
 4462WAT     H213629   2.367   0.261   3.144
 4463WAT      O13630   4.293   2.539   9.715
 4463WAT     H113631   4.375   2.503   9.760
 4463WAT     H213632   4.313   2.554   9.618
 4464WAT      O13633   3.070   9.815   3.774
 4464WAT     H113634   3.118   9.743   3.724
 4464WAT     H213635   3.041   9.886   3.709
 4465WAT      O13636   2.962   2.579   8.854
 4465WAT     H113637   2.909   2.620   8.929
 4465WAT     H213638   3.029   2.646   8.821
 4466WAT      O13639   3.943   6.126   6.649
 4466WAT     H113640   3.972   6.184   6.573
 4466WAT     H213641   3.848   6.147   6.672
 4467WAT      O13642   9.523   1.955   8.657
 4467WAT     H113643   9.544   1.857   8.649
 4467WAT     H213644   9.445   1.977   8.599
 4468WAT      O13645   0.030   4.602   6.251
 4468WAT     H113646  -0.044   4.595   6.318
 4468WAT     H213647   0.060   4.697   6.245
 4469WAT      O13648   5.445   2.193   2.002
 4469WAT     H113649   5.460   2.175   2.099
 4469WAT     H213650   5.503   2.268   1.973
 4470WAT      O13651   6.129   1.395   0.000
 4470WAT     H113652   6.106   1.382   0.097
 4470WAT     H213653   6.070   1.337  -0.056
 4471WAT      O13654   3.923   5.983   0.971
 4471WAT     H113655   3.840   6.037   0.952
 4471WAT     H213656   3.984   6.035   1.029
 4472WAT      O13657   3.439   3.051   6.241
 4472WAT     H113658   3.525   3.089   6.275
 4472WAT     H213659   3.445   2.951   6.240
 4473WAT      O13660   2.707   0.348   8.389
 4473WAT     H113661   2.690   0.403   8.307
 4473WAT     H213662   2.627   0.290   8.407
 4474WAT      O13663   3.491   3.828   2.460
 4474WAT     H113664   3.498   3.789   2.551
 4474WAT     H213665   3.578   3.871   2.435
 4475WAT      O13666   6.694   3.998   5.907
 4475WAT     H113667   6.764   3.967   5.842
 4475WAT     H213668   6.731   4.074   5.961
 4476WAT      O13669   9.502   7.969   8.579
 4476WAT     H113670   9.513   8.064   8.606
 4476WAT     H213671   9.416   7.934   8.616
 4477WAT      O13672   3.303   8.981   6.163
 4477WAT     H113673   3.397   8.998   6.194
 4477WAT     H213674   3.274   8.890   6.193
 4478WAT      O13675   6.925   1.891   7.942
 4478WAT     H113676   7.011   1.886   7.891
 4478WAT     H213677   6.849   1.905   7.879
 4479WAT      O13678   4.099   2.871   3.070
 4479WAT     H113679   4.053   2.864   3.159
 4479WAT     H213680   4.184   2.924   3.081
 4480WAT      O13681   9.088   8.252   0.275
 4480WAT     H113682   9.136   8.266   0.362
 4480WAT     H213683   8.997   8.214   0.292
 4481WAT      O13684   9.381   5.327   3.228
 4481WAT     H113685   9.400   5.403   3.166
 4481WAT     H213686   9.299   5.278   3.196
 4482WAT      O13687   7.149   0.124   8.833
 4482WAT     H113688   7.135   0.026   8.815
 4482WAT     H213689   7.234   0.154   8.789
 4483WAT      O13690   4.906   1.585   5.248
 4483WAT     H113691   4.885   1.491   5.220
 4483WAT     H213692   4.856   1.649   5.190
 4484WAT      O13693   9.200   0.735   1.114
 4484WAT     H113694   9.198   0.833   1.096
 4484WAT     H213695   9.295   0.704   1.118
 4485WAT      O13696   2.235   7.069   5.089
 4485WAT     H113697   2.318   7.015   5.097
 4485WAT     H213698   2.160   7.010   5.058
 4486WAT      O13699   4.162   4.690   8.099
 4486WAT     H113700   4.104   4.756   8.053
 4486WAT     H213701   4.232   4.738   8.152
 4487WAT      O13702   4.834   6.234   0.796
 4487WAT     H113703   4.826   6.333   0.790
 4487WAT     H213704   4.868   6.197   0.710
 4488WAT      O13705   5.658   7.333   6.460
 4488WAT     H113706   5.587   7.400   6.435
 4488WAT     H213707   5.741   7.352   6.409
 4489WAT      O13708   4.312   8.687   4.469
 4489WAT     H113709   4.222   8.723   4.445
 4489WAT     H213710   4.334   8.711   4.563
 4490WAT      O13711   3.412   0.679   6.291
 4490WAT     H113712   3.320   0.710   6.268
 4490WAT     H213713   3.477   0.719   6.226
 4491WAT      O13714   9.757   6.951   9.057
 4491WAT     H113715   9.734   6.899   8.974
 4491WAT     H213716   9.742   6.894   9.137
 4492WAT      O13717   1.159   2.366   0.559
 4492WAT     H113718   1.146   2.356   0.461
 4492WAT     H213719   1.170   2.276   0.601
 4493WAT      O13720   8.633   0.170   1.438
 4493WAT     H113721   8.557   0.199   1.380
 4493WAT     H213722   8.648   0.239   1.509
 4494WAT      O13723   8.701   6.180   2.966
 4494WAT     H113724   8.609   6.152   2.994
 4494WAT     H213725   8.704   6.279   2.957
 4495WAT      O13726   6.056   5.077   5.260
 4495WAT     H113727   6.074   5.175   5.251
 4495WAT     H213728   6.086   5.030   5.177
 4496WAT      O13729   5.676   0.205   4.323
 4496WAT     H113730   5.768   0.187   4.289
 4496WAT     H213731   5.614   0.133   4.291
 4497WAT      O13732   6.075   5.350   5.014
 4497WAT     H113733   6.171   5.354   5.041
 4497WAT     H213734   6.066   5.380   4.919
 4498WAT      O13735   8.070   9.008   6.682
 4498WAT     H113736   8.045   9.026   6.777
 4498WAT     H213737   8.080   9.095   6.634
 4499WAT      O13738   8.829   6.009   0.710
 4499WAT     H113739   8.799   5.937   0.772
 4499WAT     H213740   8.915   6.047   0.742
 4500WAT      O13741   3.712   7.240   9.363
 4500WAT     H113742   3.747   7.249   9.269
 4500WAT     H213743   3.672   7.327   9.392
 4501WAT      O13744   2.309   6.660   3.761
 4501WAT     H113745   2.298   6.622   3.670
 4501WAT     H213746   2.379   6.609   3.811
 4502WAT      O13747   1.416   0.989   9.070
 4502WAT     H113748   1.474   0.968   8.991
 4502WAT     H213749   1.474   1.007   9.150
 4503WAT      O13750   7.616   0.424   8.877
 4503WAT     H113751   7.674   0.384   8.948
 4503WAT     H213752   7.672   0.476   8.813
 4504WAT      O13753   6.994   2.240   9.562
 4504WAT     H113754   6.897   2.228   9.584
 4504WAT     H213755   7.047   2.241   9.646
 4505WAT      O13756   9.352   7.808   0.746
 4505WAT     H113757   9.258   7.806   0.713
 4505WAT     H213758   9.381   7.903   0.760
 4506WAT      O13759   9.603   2.460   5.509
 4506WAT     H113760   9.625   2.549   5.470
 4506WAT     H213761   9.669   2.392   5.477
 4507WAT      O13762   1.762   7.833   7.449
 4507WAT     H113763   1.672   7.801   7.480
 4507WAT     H213764   1.750   7.904   7.380
 4508WAT      O13765   1.250   1.343   3.594
 4508WAT     H113766   1.206   1.286   3.664
 4508WAT     H213767   1.194   1.424   3.577
 4509WAT      O13768   9.282   6.188   5.930
 4509WAT     H113769   9.244   6.119   5.991
 4509WAT     H213770   9.208   6.236   5.883
 4510WAT      O13771   0.094   9.808   9.133
 4510WAT     H113772   0.119   9.870   9.208
 4510WAT     H213773   0.120   9.715   9.157
 4511WAT      O13774   9.170   8.444   4.427
 4511WAT     H113775   9.131   8.500   4.500
 4511WAT     H213776   9.120   8.357   4.422
 4512WAT      O13777   1.798   5.984   5.193
 4512WAT     H113778   1.867   5.913   5.211
 4512WAT     H213779   1.800   6.052   5.265
 4513WAT      O13780   8.243   0.660   4.664
 4513WAT     H113781   8.169   0.610   4.709
 4513WAT     H213782   8.276   0.607   4.585
 4514WAT      O13783   7.185   4.508   7.728
 4514WAT     H113784   7.203   4.410   7.737
 4514WAT     H213785   7.267   4.554   7.694
 4515WAT      O13786   6.275   2.076   2.711
 4515WAT     H113787   6.323   1.999   2.668
 4515WAT     H213788   6.180   2.051   2.727
 4516WAT      O13789   1.067   4.115   8.281
 4516WAT     H113790   1.034   4.108   8.187
 4516WAT     H213791   1.122   4.036   8.304
 4517WAT      O13792   8.110   5.071   5.574
 4517WAT     H113793   8.204   5.052   5.602
 4517WAT     H213794   8.065   5.127   5.643
 4518WAT      O13795   4.648   7.582   8.007
 4518WAT     H113796   4.696   7.550   7.925
 4518WAT     H213797   4.642   7.507   8.072
 4519WAT      O13798   5.770   1.677   3.740
 4519WAT     H113799   5.760   1.743   3.814
 4519WAT     H213800   5.855   1.693   3.691
 4520WAT      O13801   1.370   3.715   5.905
 4520WAT     H113802   1.277   3.729   5.872
 4520WAT     H213803   1.386   3.618   5.921
 4521WAT      O13804   3.490   7.831   4.177
 4521WAT     H113805   3.417   7.800   4.116
 4521WAT     H213806   3.536   7.910   4.137
 4522WAT      O13807   9.777   0.100   7.056
 4522WAT     H113808   9.836   0.022   7.033
 4522WAT     H213809   9.780   0.167   6.981
 4523WAT      O13810   2.726   3.335   5.238
 4523WAT     H113811   2.796   3.332   5.166
 4523WAT     H213812   2.670   3.417   5.226
 4524WAT      O13813   1.673   6.686   0.716
 4524WAT     H113814   1.596   6.633   0.752
 4524WAT     H213815   1.652   6.716   0.623
 4525WAT      O13816   3.564   8.949   8.074
 4525WAT     H113817   3.525   9.038   8.054
 4525WAT     H213818   3.597   8.907   7.990
 4526WAT      O13819   1.698   1.254   0.715
 4526WAT     H113820   1.717   1.196   0.795
 4526WAT     H213821   1.704   1.199   0.632
 4527WAT      O13822   2.548   8.293   7.160
 4527WAT     H113823   2.575   8.381   7.198
 4527WAT     H213824   2.449   8.288   7.154
 4528WAT      O13825   9.310   9.426   4.706
 4528WAT     H113826   9.240   9.488   4.742
 4528WAT     H213827   9.364   9.473   4.637
 4529WAT      O13828   2.265   4.166   8.869
 4529WAT     H113829   2.168   4.186   8.855
 4529WAT     H213830   2.275   4.076   8.910
 4530WAT      O13831   3.055   5.684   9.762
 4530WAT     H113832   2.976   5.655   9.816
 4530WAT     H213833   3.093   5.767   9.801
 4531WAT      O13834   5.346   5.743   2.695
 4531WAT     H113835   5.375   5.690   2.774
 4531WAT     H213836   5.258   5.709   2.663
 4532WAT      O13837   7.336   8.430   2.590
 4532WAT     H113838   7.272   8.469   2.655
 4532WAT     H213839   7.420   8.484   2.589
 4533WAT      O13840   2.403   2.429   6.400
 4533WAT     H113841   2.304   2.443   6.409
 4533WAT     H213842   2.441   2.501   6.342
 4534WAT      O13843   4.145   7.612   2.302
 4534WAT     H113844   4.128   7.648   2.209
 4534WAT     H213845   4.170   7.688   2.362
 4535WAT      O13846   3.625   9.077   3.426
 4535WAT     H113847   3.544   9.027   3.457
 4535WAT     H213848   3.653   9.142   3.496
 4536WAT      O13849   8.304   3.971   2.481
 4536WAT     H113850   8.355   3.996   2.398
 4536WAT     H213851   8.338   3.884   2.516
 4537WAT      O13852   8.299   2.564   7.343
 4537WAT     H113853   8.274   2.611   7.428
 4537WAT     H213854   8.376   2.502   7.362
 4538WAT      O13855   5.119   3.712   7.950
 4538WAT     H113856   5.122   3.743   7.855
 4538WAT     H213857   5.144   3.615   7.954
 4539WAT      O13858   5.677   6.532   0.896
 4539WAT     H113859   5.614   6.536   0.973
 4539WAT     H213860   5.639   6.584   0.819
 4540WAT      O13861   0.047   1.868   7.387
 4540WAT     H113862   0.091   1.957   7.398
 4540WAT     H213863   0.107   1.796   7.422
 4541WAT      O13864   1.191   0.406   3.321
 4541WAT     H113865   1.198   0.458   3.406
 4541WAT     H213866   1.221   0.311   3.337
 4542WAT      O13867   2.989   2.551   8.368
 4542WAT     H113868   2.922   2.608   8.415
 4542WAT     H213869   3.011   2.592   8.279
 4543WAT      O13870   1.616   9.805   4.065
 4543WAT     H113871   1.715   9.793   4.072
 4543WAT     H213872   1.590   9.891   4.108
 4544WAT      O13873   4.473   6.139   6.574
 4544WAT     H113874   4.455   6.121   6.478
 4544WAT     H213875   4.443   6.062   6.630
 4545WAT      O13876   7.394   5.683   3.334
 4545WAT     H113877   7.322   5.749   3.314
 4545WAT     H213878   7.441   5.658   3.249
 4546WAT      O13879   4.633   9.683   7.099
 4546WAT     H113880   4.607   9.742   7.022
 4546WAT     H213881   4.551   9.647   7.143
 4547WAT      O13882   4.377   0.417   0.371
 4547WAT     H113883   4.403   0.505   0.330
 4547WAT     H213884   4.348   0.354   0.299
 4548WAT      O13885   5.168   8.850   9.243
 4548WAT     H113886   5.177   8.776   9.310
 4548WAT     H213887   5.071   8.874   9.233
 4549WAT      O13888   7.027   0.226   2.669
 4549WAT     H113889   6.948   0.175   2.702
 4549WAT     H213890   6.997   0.297   2.606
 4550WAT      O13891   4.726   4.151   8.091
 4550WAT     H113892   4.820   4.144   8.059
 4550WAT     H213893   4.709   4.081   8.161
 4551WAT      O13894   6.782   5.593   3.288
 4551WAT     H113895   6.691   5.592   3.329
 4551WAT     H213896   6.808   5.688   3.268
 4552WAT      O13897   3.693   2.533   7.173
 4552WAT     H113898   3.747   2.518   7.090
 4552WAT     H213899   3.708   2.458   7.237
 4553WAT      O13900   3.439   1.416   5.506
 4553WAT     H113901   3.478   1.325   5.519
 4553WAT     H213902   3.356   1.425   5.562
 4554WAT      O13903   4.298   3.860   8.625
 4554WAT     H113904   4.223   3.802   8.591
 4554WAT     H213905   4.281   3.955   8.598
 4555WAT      O13906   5.493   1.578   8.578
 4555WAT     H113907   5.501   1.672   8.612
 4555WAT     H213908   5.399   1.559   8.552
 4556WAT      O13909   7.337   0.245   7.446
 4556WAT     H113910   7.312   0.311   7.376
 4556WAT     H213911   7.394   0.174   7.406
 4557WAT      O13912   3.604   3.975   0.909
 4557WAT     H113913   3.511   3.938   0.909
 4557WAT     H213914   3.603   4.067   0.949
 4558WAT      O13915   8.520   4.016   7.457
 4558WAT     H113916   8.452   3.951   7.490
 4558WAT     H213917   8.560   3.982   7.372
 4559WAT      O13918   2.770   8.800   2.639
 4559WAT     H113919   2.693   8.751   2.600
 4559WAT     H213920   2.748   8.828   2.733
 4560WAT      O13921   5.955   5.135   4.908
 4560WAT     H113922   5.967   5.214   4.968
 4560WAT     H213923   5.857   5.120   4.892
 4561WAT      O13924   4.054   6.375   9.275
 4561WAT     H113925   3.986   6.418   9.216
 4561WAT     H213926   4.042   6.408   9.369
 4562WAT      O13927   4.642   7.981   0.620
 4562WAT     H113928   4.607   7.888   0.619
 4562WAT     H213929   4.566   8.046   0.629
 4563WAT      O13930   0.833   0.649   1.607
 4563WAT     H113931   0.752   0.617   1.656
 4563WAT     H213932   0.908   0.585   1.621
 4564WAT      O13933   8.213   9.156   8.416
 4564WAT     H113934   8.291   9.121   8.364
 4564WAT     H213935   8.233   9.249   8.446
 4565WAT      O13936   3.820   1.625   5.952
 4565WAT     H113937   3.908   1.668   5.970
 4565WAT     H213938   3.764   1.626   6.035
 4566WAT      O13939   3.031   1.952   0.471
 4566WAT     H113940   3.081   2.027   0.427
 4566WAT     H213941   3.068   1.936   0.562
 4567WAT      O13942   6.697   5.264   0.040
 4567WAT     H113943   6.754   5.217   0.108
 4567WAT     H213944   6.612   5.214   0.028
 4568WAT      O13945   0.740   1.919   2.499
 4568WAT     H113946   0.773   1.998   2.551
 4568WAT     H213947   0.652   1.889   2.536
 4569WAT      O13948   5.966   1.100   7.374
 4569WAT     H113949   5.963   1.005   7.407
 4569WAT     H213950   6.047   1.113   7.317
 4570WAT      O13951   9.464   2.638   4.002
 4570WAT     H113952   9.381   2.680   3.964
 4570WAT     H213953   9.456   2.539   3.996
 4571WAT      O13954   9.845   0.661   9.690
 4571WAT     H113955   9.775   0.672   9.619
 4571WAT     H213956   9.852   0.564   9.715
 4572WAT      O13957   4.438   7.524   2.711
 4572WAT     H113958   4.452   7.494   2.617
 4572WAT     H213959   4.498   7.473   2.772
 4573WAT      O13960   0.283   9.518   7.394
 4573WAT     H113961   0.373   9.558   7.376
 4573WAT     H213962   0.263   9.525   7.492
 4574WAT      O13963   6.280   6.434   9.509
 4574WAT     H113964   6.195   6.402   9.550
 4574WAT     H213965   6.356   6.377   9.540
 4575WAT      O13966   0.056   4.661   8.430
 4575WAT     H113967  -0.027   4.610   8.452
 4575WAT     H213968   0.067   4.666   8.331
 4576WAT      O13969   3.015   6.164   4.550
 4576WAT     H113970   3.018   6.183   4.648
 4576WAT     H213971   2.945   6.221   4.507
 4577WAT      O13972   7.269   8.104   9.483
 4577WAT     H113973   7.333   8.059   9.546
 4577WAT     H213974   7.321   8.157   9.415
 4578WAT      O13975   9.717   3.260   9.224
 4578WAT     H113976   9.640   3.229   9.168
 4578WAT     H213977   9.685   3.325   9.293
 4579WAT      O13978   9.036   9.470   2.772
 4579WAT     H113979   9.024   9.423   2.684
 4579WAT     H213980   9.071   9.405   2.839
 4580WAT      O13981   2.266   4.637   8.933
 4580WAT     H113982   2.264   4.615   8.836
 4580WAT     H213983   2.345   4.695   8.953
 4581WAT      O13984   3.395   4.110   5.152
 4581WAT     H113985   3.455   4.189   5.138
 4581WAT     H213986   3.340   4.125   5.235
 4582WAT      O13987   0.865   7.765   8.520
 4582WAT     H113988   0.866   7.734   8.425
 4582WAT     H213989   0.887   7.863   8.524
 4583WAT      O13990   3.898   8.882   1.720
 4583WAT     H113991   3.898   8.884   1.820
 4583WAT     H213992   3.967   8.946   1.686
 4584WAT      O13993   3.179   0.926   1.945
 4584WAT     H113994   3.240   0.846   1.939
 4584WAT     H213995   3.223   0.996   2.001
 4585WAT      O13996   5.168   8.153   5.815
 4585WAT     H113997   5.229   8.080   5.846
 4585WAT     H213998   5.084   8.113   5.777
 4586WAT      O13999   4.770   9.109   4.100
 4586WAT     H114000   4.726   9.184   4.051
 4586WAT     H214001   4.814   9.144   4.183
 4587WAT      O14002   8.169   8.834   9.523
 4587WAT     H114003   8.110   8.869   9.450
 4587WAT     H214004   8.123   8.846   9.611
 4588WAT      O14005   6.776   5.510   3.848
 4588WAT     H114006   6.746   5.502   3.942
 4588WAT     H214007   6.876   5.521   3.845
 4589WAT      O14008   1.186   9.840   3.058
 4589WAT     H114009   1.252   9.765   3.048
 4589WAT     H214010   1.228   9.925   3.027
 4590WAT      O14011   3.051   7.291   8.201
 4590WAT     H114012   2.989   7.252   8.133
 4590WAT     H214013   3.037   7.245   8.289
 4591WAT      O14014   0.770   9.216   3.768
 4591WAT     H114015   0.854   9.229   3.820
 4591WAT     H214016   0.784   9.245   3.674
 4592WAT      O14017   0.130   3.703   3.814
 4592WAT     H114018   0.160   3.644   3.738
 4592WAT     H214019   0.164   3.796   3.798
 4593WAT      O14020   3.276   2.457   2.160
 4593WAT     H114021   3.304   2.551   2.139
 4593WAT     H214022   3.327   2.393   2.101
 4594WAT      O14023   5.449   8.218   8.821
 4594WAT     H114024   5.541   8.200   8.854
 4594WAT     H214025   5.383   8.192   8.891
 4595WAT      O14026   4.402   3.349   7.804
 4595WAT     H114027   4.444   3.259   7.820
 4595WAT     H214028   4.318   3.338   7.750
 4596WAT      O14029   1.377   5.991   6.753
 4596WAT     H114030   1.439   5.928   6.801
 4596WAT     H214031   1.308   5.938   6.704
 4597WAT      O14032   8.301   2.280   0.921
 4597WAT     H114033   8.253   2.210   0.973
 4597WAT     H214034   8.388   2.302   0.966
 4598WAT      O14035   5.876   8.832   7.915
 4598WAT     H114036   5.970   8.852   7.890
 4598WAT     H214037   5.861   8.733   7.914
 4599WAT      O14038   6.337   6.608   1.311
 4599WAT     H114039   6.383   6.684   1.356
 4599WAT     H214040   6.354   6.523   1.361
 4600WAT      O14041   8.362   8.356   3.203
 4600WAT     H114042   8.442   8.314   3.160
 4600WAT     H214043   8.376   8.455   3.206
 4601WAT      O14044   4.997   0.783   2.048
 4601WAT     H114045   4.939   0.864   2.056
 4601WAT     H214046   5.089   0.805   2.080
 4602WAT      O14047   1.170   1.802   1.879
 4602WAT     H114048   1.163   1.743   1.959
 4602WAT     H214049   1.092   1.786   1.819
 4603WAT      O14050   7.842   1.873   1.526
 4603WAT     H114051   7.796   1.813   1.590
 4603WAT     H214052   7.782   1.950   1.502
 4604WAT      O14053   0.945   8.051   1.725
 4604WAT     H114054   0.950   8.028   1.822
 4604WAT     H214055   0.990   8.140   1.710
 4605WAT      O14056   8.954   8.105   7.826
 4605WAT     H114057   8.983   8.160   7.747
 4605WAT     H214058   8.976   8.009   7.810
 4606WAT      O14059   3.497   9.460   5.273
 4606WAT     H114060   3.551   9.502   5.345
 4606WAT     H214061   3.473   9.367   5.298
 4607WAT      O14062   8.358   6.611   1.225
 4607WAT     H114063   8.277   6.589   1.279
 4607WAT     H214064   8.438   6.564   1.264
 4608WAT      O14065   8.655   9.017   4.982
 4608WAT     H114066   8.730   8.970   4.934
 4608WAT     H214067   8.599   9.067   4.916
 4609WAT      O14068   7.208   4.784   3.715
 4609WAT     H114069   7.109   4.797   3.722
 4609WAT     H214070   7.253   4.827   3.794
 4610WAT      O14071   4.326   8.571   8.516
 4610WAT     H114072   4.358   8.579   8.422
 4610WAT     H214073   4.401   8.590   8.579
 4611WAT      O14074   4.452   9.614   3.996
 4611WAT     H114075   4.446   9.555   3.916
 4611WAT     H214076   4.392   9.579   4.068
 4612WAT      O14077   5.244   7.491   8.510
 4612WAT     H114078   5.284   7.568   8.560
 4612WAT     H214079   5.145   7.500   8.508
 4613WAT      O14080   4.965   9.565   1.623
 4613WAT     H114081   4.913   9.490   1.663
 4613WAT     H214082   4.917   9.601   1.543
 4614WAT      O14083   7.425   1.828   7.835
 4614WAT     H114084   7.477   1.802   7.754
 4614WAT     H214085   7.328   1.812   7.820
 4615WAT      O14086   4.524   8.321   3.012
 4615WAT     H114087   4.588   8.284   2.945
 4615WAT     H214088   4.567   8.398   3.059
 4616WAT      O14089   9.554   8.023   4.053
 4616WAT     H114090   9.642   8.037   4.009
 4616WAT     H214091   9.565   7.962   4.132
 4617WAT      O14092   5.087   2.685   9.875
 4617WAT     H114093   4.997   2.721   9.901
 4617WAT     H214094   5.080   2.586   9.860
 4618WAT      O14095   4.271   4.553   9.373
 4618WAT     H114096   4.179   4.573   9.339
 4618WAT     H214097   4.321   4.502   9.303
 4619WAT      O14098   6.425   3.770   2.335
 4619WAT     H114099   6.338   3.805   2.300
 4619WAT     H214100   6.450   3.688   2.285
 4620WAT      O14101   0.616   2.264   7.682
 4620WAT     H114102   0.538   2.303   7.634
 4620WAT     H214103   0.659   2.334   7.740
 4621WAT      O14104   4.228   8.599   9.543
 4621WAT     H114105   4.270   8.636   9.460
 4621WAT     H214106   4.136   8.568   9.523
 4622WAT      O14107   5.832   6.562   5.739
 4622WAT     H114108   5.886   6.520   5.666
 4622WAT     H214109   5.833   6.503   5.819
 4623WAT      O14110   2.202   8.836   4.453
 4623WAT     H114111   2.140   8.884   4.514
 4623WAT     H214112   2.242   8.901   4.388
 4624WAT      O14113   9.177   9.697   2.747
 4624WAT     H114114   9.252   9.717   2.810
 4624WAT     H214115   9.136   9.610   2.770
 4625WAT      O14116   8.217   4.613   3.231
 4625WAT     H114117   8.229   4.660   3.319
 4625WAT     H214118   8.220   4.514   3.246
 4626WAT      O14119   2.602   0.669   7.083
 4626WAT     H114120   2.560   0.579   7.096
 4626WAT     H214121   2.692   0.659   7.042
 4627WAT      O14122   7.160   9.411   1.570
 4627WAT     H114123   7.217   9.447   1.496
 4627WAT     H214124   7.066   9.441   1.558
 4628WAT      O14125   9.416   5.138   8.472
 4628WAT     H114126   9.346   5.171   8.535
 4628WAT     H214127   9.385   5.053   8.429
 4629WAT      O14128   7.993   3.321   3.752
 4629WAT     H114129   7.969   3.322   3.849
 4629WAT     H214130   7.987   3.227   3.717
 4630WAT      O14131   2.503   5.491   0.845
 4630WAT     H114132   2.543   5.451   0.762
 4630WAT     H214133   2.415   5.447   0.864
 4631WAT      O14134   9.151   1.559   4.109
 4631WAT     H114135   9.192   1.560   4.200
 4631WAT     H214136   9.186   1.480   4.058
 4632WAT      O14137   6.159   3.990   1.952
 4632WAT     H114138   6.076   4.044   1.936
 4632WAT     H214139   6.237   4.035   1.909
 4633WAT      O14140   5.723   7.214   4.133
 4633WAT     H114141   5.624   7.221   4.131
 4633WAT     H214142   5.755   7.203   4.227
 4634WAT      O14143   7.236   1.866   7.371
 4634WAT     H114144   7.236   1.960   7.338
 4634WAT     H214145   7.315   1.851   7.430
 4635WAT      O14146   1.171   2.304   7.257
 4635WAT     H114147   1.101   2.374   7.268
 4635WAT     H214148   1.190   2.292   7.159
 4636WAT      O14149   4.423   3.000   9.219
 4636WAT     H114150   4.476   3.041   9.145
 4636WAT     H214151   4.484   2.952   9.281
 4637WAT      O14152   3.355   1.169   0.433
 4637WAT     H114153   3.445   1.151   0.471
 4637WAT     H214154   3.300   1.085   0.437
 4638WAT      O14155   6.476   1.852   5.324
 4638WAT     H114156   6.573   1.868   5.306
 4638WAT     H214157   6.450   1.901   5.407
 4639WAT      O14158   1.926   0.836   7.164
 4639WAT     H114159   2.007   0.793   7.126
 4639WAT     H214160   1.856   0.844   7.094
 4640WAT      O14161   4.398   2.096   6.695
 4640WAT     H114162   4.362   2.035   6.765
 4640WAT     H214163   4.347   2.083   6.610
 4641WAT      O14164   2.439   7.932   1.307
 4641WAT     H114165   2.469   7.911   1.214
 4641WAT     H214166   2.339   7.935   1.310
 4642WAT      O14167   5.572   2.611   1.787
 4642WAT     H114168   5.554   2.637   1.692
 4642WAT     H214169   5.505   2.655   1.847
 4643WAT      O14170   1.334   9.288   2.391
 4643WAT     H114171   1.385   9.308   2.475
 4643WAT     H214172   1.244   9.331   2.397
 4644WAT      O14173   8.139   6.605   2.167
 4644WAT     H114174   8.096   6.601   2.077
 4644WAT     H214175   8.201   6.684   2.170
 4645WAT      O14176   6.103   8.230   7.693
 4645WAT     H114177   6.096   8.130   7.689
 4645WAT     H214178   6.131   8.265   7.604
 4646WAT      O14179   5.375   1.882   0.192
 4646WAT     H114180   5.339   1.794   0.222
 4646WAT     H214181   5.414   1.873   0.100
 4647WAT      O14182   3.226   2.944   7.563
 4647WAT     H114183   3.132   2.969   7.541
 4647WAT     H214184   3.282   3.026   7.570
 4648WAT      O14185   1.201   4.273   6.380
 4648WAT     H114186   1.261   4.296   6.304
 4648WAT     H214187   1.202   4.174   6.395
 4649WAT      O14188   6.447   7.339   6.317
 4649WAT     H114189   6.428   7.412   6.252
 4649WAT     H214190   6.487   7.377   6.400
 4650WAT      O14191   8.227   0.152   5.397
 4650WAT     H114192   8.241   0.053   5.395
 4650WAT     H214193   8.129   0.171   5.400
 4651WAT      O14194   4.751   9.087   5.702
 4651WAT     H114195   4.672   9.079   5.642
 4651WAT     H214196   4.725   9.138   5.784
 4652WAT      O14197   1.485   4.470   5.729
 4652WAT     H114198   1.556   4.534   5.700
 4652WAT     H214199   1.476   4.397   5.661
 4653WAT      O14200   6.478   1.454   8.737
 4653WAT     H114201   6.380   1.471   8.724
 4653WAT     H214202   6.504   1.370   8.689
 4654WAT      O14203   2.173   1.769   2.381
 4654WAT     H114204   2.214   1.859   2.368
 4654WAT     H214205   2.134   1.737   2.295
 4655WAT      O14206   8.070   6.311   9.724
 4655WAT     H114207   8.006   6.245   9.765
 4655WAT     H214208   8.163   6.276   9.731
 4656WAT      O14209   1.660   5.047   9.132
 4656WAT     H114210   1.717   5.126   9.110
 4656WAT     H214211   1.683   5.015   9.224
 4657WAT      O14212   1.344   6.765   4.733
 4657WAT     H114213   1.279   6.793   4.663
 4657WAT     H214214   1.373   6.671   4.717
 4658WAT      O14215   7.109   1.705   8.196
 4658WAT     H114216   7.060   1.639   8.139
 4658WAT     H214217   7.059   1.792   8.196
 4659WAT      O14218   2.965   8.880   8.826
 4659WAT     H114219   3.014   8.945   8.768
 4659WAT     H214220   2.930   8.926   8.907
 4660WAT      O14221   5.430   6.161   0.080
 4660WAT     H114222   5.450   6.226   0.007
 4660WAT     H214223   5.339   6.180   0.117
 4661WAT      O14224   4.982   6.146   0.596
 4661WAT     H114225   4.952   6.209   0.524
 4661WAT     H214226   5.073   6.174   0.628
 4662WAT      O14227   7.128   1.915   7.033
 4662WAT     H114228   7.120   1.846   7.105
 4662WAT     H214229   7.168   1.999   7.072
 4663WAT      O14230   4.410   9.614   6.731
 4663WAT     H114231   4.362   9.593   6.816
 4663WAT     H214232   4.375   9.700   6.693
 4664WAT      O14233   2.503   9.432   4.930
 4664WAT     H114234   2.580   9.469   4.878
 4664WAT     H214235   2.515   9.334   4.943
 4665WAT      O14236   0.935   7.568   0.876
 4665WAT     H114237   1.006   7.523   0.821
 4665WAT     H214238   0.976   7.605   0.959
 4666WAT      O14239   7.471   2.289   7.572
 4666WAT     H114240   7.465   2.206   7.628
 4666WAT     H214241   7.437   2.367   7.625
 4667WAT      O14242   6.583   4.458   0.740
 4667WAT     H114243   6.585   4.373   0.792
 4667WAT     H214244   6.489   4.488   0.727
 4668WAT      O14245   2.242   2.459   2.727
 4668WAT     H114246   2.227   2.481   2.823
 4668WAT     H214247   2.336   2.482   2.702
 4669WAT      O14248   9.652   9.144   7.085
 4669WAT     H114249   9.556   9.130   7.109
 4669WAT     H214250   9.697   9.055   7.076
 4670WAT      O14251   4.773   4.636   1.891
 4670WAT     H114252   4.796   4.733   1.896
 4670WAT     H214253   4.765   4.598   1.983
 4671WAT      O14254   3.432   9.618   2.210
 4671WAT     H114255   3.493   9.696   2.224
 4671WAT     H214256   3.362   9.618   2.281
 4672WAT      O14257   4.636   6.709   9.329
 4672WAT     H114258   4.647   6.701   9.230
 4672WAT     H214259   4.539   6.718   9.351
 4673WAT      O14260   3.294   4.660   8.196
 4673WAT     H114261   3.253   4.644   8.106
 4673WAT     H214262   3.393   4.663   8.187
 4674WAT      O14263   6.353   4.963   3.342
 4674WAT     H114264   6.346   5.063   3.344
 4674WAT     H214265   6.439   4.935   3.386
 4675WAT      O14266   5.397   3.187   0.867
 4675WAT     H114267   5.492   3.215   0.858
 4675WAT     H214268   5.338   3.268   0.866
 4676WAT      O14269   8.977   7.565   7.391
 4676WAT     H114270   8.897   7.613   7.355
 4676WAT     H214271   8.963   7.542   7.487
 4677WAT      O14272   7.788   7.203   6.687
 4677WAT     H114273   7.863   7.185   6.751
 4677WAT     H214274   7.712   7.245   6.737
 4678WAT      O14275   1.241   4.123   9.001
 4678WAT     H114276   1.222   4.071   9.084
 4678WAT     H214277   1.298   4.203   9.024
 4679WAT      O14278   7.131   0.127   7.570
 4679WAT     H114279   7.195   0.180   7.514
 4679WAT     H214280   7.063   0.083   7.510
 4680WAT      O14281   2.547   5.873   6.391
 4680WAT     H114282   2.492   5.952   6.419
 4680WAT     H214283   2.641   5.902   6.373
 4681WAT      O14284   5.237   6.402   0.250
 4681WAT     H114285   5.287   6.406   0.164
 4681WAT     H214286   5.140   6.386   0.232
 4682WAT      O14287   4.611   7.978   2.364
 4682WAT     H114288   4.617   7.957   2.266
 4682WAT     H214289   4.550   8.056   2.378
 4683WAT      O14290   0.859   2.725   7.132
 4683WAT     H114291   0.878   2.744   7.036
 4683WAT     H214292   0.761   2.714   7.146
 4684WAT      O14293   9.829   5.481   3.800
 4684WAT     H114294   9.898   5.435   3.744
 4684WAT     H214295   9.810   5.571   3.762
 4685WAT      O14296   3.538   0.447   7.284
 4685WAT     H114297   3.519   0.374   7.350
 4685WAT     H214298   3.615   0.502   7.316
 4686WAT      O14299   9.605   0.747   5.473
 4686WAT     H114300   9.516   0.704   5.493
 4686WAT     H214301   9.616   0.828   5.530
 4687WAT      O14302   5.436   6.711   5.386
 4687WAT     H114303   5.502   6.669   5.448
 4687WAT     H214304   5.404   6.797   5.424
 4688WAT      O14305   9.749   6.596   6.532
 4688WAT     H114306   9.844   6.571   6.510
 4688WAT     H214307   9.731   6.578   6.628
 4689WAT      O14308   1.681   1.992   1.409
 4689WAT     H114309   1.702   1.939   1.492
 4689WAT     H214310   1.764   2.038   1.377
 4690WAT      O14311   5.735   2.634   2.650
 4690WAT     H114312   5.779   2.724   2.646
 4690WAT     H214313   5.749   2.586   2.564
 4691WAT      O14314   1.383   5.798   7.153
 4691WAT     H114315   1.388   5.733   7.077
 4691WAT     H214316   1.434   5.881   7.129
 4692WAT      O14317   9.001   4.742   5.333
 4692WAT     H114318   8.936   4.666   5.326
 4692WAT     H214319   9.092   4.710   5.306
 4693WAT      O14320   8.622   8.096   8.458
 4693WAT     H114321   8.648   8.169   8.522
 4693WAT     H214322   8.569   8.026   8.507
 4694WAT      O14323   4.518   4.890   2.173
 4694WAT     H114324   4.603   4.936   2.149
 4694WAT     H214325   4.490   4.918   2.265
 4695WAT      O14326   1.713   2.734   9.560
 4695WAT     H114327   1.758   2.650   9.588
 4695WAT     H214328   1.780   2.809   9.559
 4696WAT      O14329   9.193   8.287   0.930
 4696WAT     H114330   9.109   8.329   0.966
 4696WAT     H214331   9.268   8.353   0.938
 4697WAT      O14332   2.052   5.329   3.392
 4697WAT     H114333   1.960   5.290   3.389
 4697WAT     H214334   2.119   5.256   3.384
 4698WAT      O14335   5.803   3.178   8.195
 4698WAT     H114336   5.709   3.194   8.226
 4698WAT     H214337   5.839   3.097   8.242
 4699WAT      O14338   7.082   7.367   7.212
 4699WAT     H114339   7.181   7.382   7.207
 4699WAT     H214340   7.049   7.397   7.301
 4700WAT      O14341   6.667   7.849   9.045
 4700WAT     H114342   6.711   7.760   9.032
 4700WAT     H214343   6.649   7.891   8.956
 4701WAT      O14344   1.129   5.504   9.730
 4701WAT     H114345   1.127   5.574   9.659
 4701WAT     H214346   1.152   5.547   9.818
 4702WAT      O14347   5.544   0.025   8.596
 4702WAT     H114348   5.469   0.015   8.661
 4702WAT     H214349   5.626   0.056   8.643
 4703WAT      O14350   3.220   7.808   3.303
 4703WAT     H114351   3.173   7.805   3.391
 4703WAT     H214352   3.209   7.720   3.256
 4704WAT      O14353   0.765   3.262   1.523
 4704WAT     H114354   0.817   3.321   1.462
 4704WAT     H214355   0.820   3.240   1.603
 4705WAT      O14356   8.941   5.158   1.297
 4705WAT     H114357   8.934   5.062   1.270
 4705WAT     H214358   9.037   5.184   1.304
 4706WAT      O14359   9.087   7.537   4.073
 4706WAT     H114360   9.162   7.579   4.021
 4706WAT     H214361   9.004   7.592   4.062
 4707WAT      O14362   5.390   6.953   5.539
 4707WAT     H114363   5.357   7.018   5.471
 4707WAT     H214364   5.490   6.960   5.546
 4708WAT      O14365   9.635   9.639   5.044
 4708WAT     H114366   9.579   9.722   5.052
 4708WAT     H214367   9.587   9.572   4.987
 4709WAT      O14368   7.322   6.223   8.507
 4709WAT     H114369   7.357   6.316   8.498
 4709WAT     H214370   7.395   6.158   8.485
 4710WAT      O14371   6.981   0.476   2.224
 4710WAT     H114372   6.933   0.403   2.176
 4710WAT     H214373   6.965   0.468   2.322
 4711WAT      O14374   2.688   5.949   7.924
 4711WAT     H114375   2.773   5.898   7.907
 4711WAT     H214376   2.625   5.936   7.848
 4712WAT      O14377   0.440   1.703   8.329
 4712WAT     H114378   0.485   1.792   8.322
 4712WAT     H214379   0.408   1.674   8.239
 4713WAT      O14380   4.420   6.279   9.846
 4713WAT     H114381   4.491   6.347   9.863
 4713WAT     H214382   4.394   6.282   9.749
 4714WAT      O14383   1.862   7.270   3.297
 4714WAT     H114384   1.845   7.194   3.360
 4714WAT     H214385   1.960   7.289   3.292
 4715WAT      O14386   4.167   1.542   8.018
 4715WAT     H114387   4.225   1.521   7.939
 4715WAT     H214388   4.076   1.505   8.003
 4716WAT      O14389   7.474   7.180   8.325
 4716WAT     H114390   7.433   7.240   8.393
 4716WAT     H214391   7.472   7.085   8.358
 4717WAT      O14392   2.089   2.787   9.538
 4717WAT     H114393   2.005   2.837   9.516
 4717WAT     H214394   2.107   2.795   9.636
 4718WAT      O14395   5.075   1.036   4.854
 4718WAT     H114396   5.128   0.972   4.798
 4718WAT     H214397   5.135   1.109   4.887
 4719WAT      O14398   8.293   8.054   8.850
 4719WAT     H114399   8.204   8.009   8.852
 4719WAT     H214400   8.336   8.038   8.761
 4720WAT      O14401   3.334   4.636   3.338
 4720WAT     H114402   3.346   4.598   3.430
 4720WAT     H214403   3.263   4.707   3.341
 4721WAT      O14404   6.842   3.992   4.806
 4721WAT     H114405   6.844   4.058   4.881
 4721WAT     H214406   6.831   3.900   4.844
 4722WAT      O14407   2.385   0.016   9.451
 4722WAT     H114408   2.375   0.045   9.356
 4722WAT     H214409   2.456  -0.054   9.457
 4723WAT      O14410   0.357   6.959   3.334
 4723WAT     H114411   0.367   6.860   3.336
 4723WAT     H214412   0.260   6.983   3.348
 4724WAT      O14413   1.985   4.326   3.680
 4724WAT     H114414   2.081   4.300   3.686
 4724WAT     H214415   1.944   4.284   3.599
 4725WAT      O14416   9.053   8.827   8.383
 4725WAT     H114417   9.115   8.774   8.440
 4725WAT     H214418   9.094   8.841   8.293
 4726WAT      O14419   0.228   6.226   4.257
 4726WAT     H114420   0.272   6.229   4.167
 4726WAT     H214421   0.192   6.316   4.279
 4727WAT      O14422   1.171   3.946   3.599
 4727WAT     H114423   1.107   3.876   3.631
 4727WAT     H214424   1.229   3.907   3.528
 4728WAT      O14425   7.017   7.205   3.042
 4728WAT     H114426   6.922   7.224   3.018
 4728WAT     H214427   7.054   7.136   2.979
 4729WAT      O14428   3.351   0.012   7.052
 4729WAT     H114429   3.295  -0.059   7.097
 4729WAT     H214430   3.360  -0.009   6.955
 4730WAT      O14431   5.331   2.984   1.217
 4730WAT     H114432   5.332   3.074   1.260
 4730WAT     H214433   5.269   2.923   1.267
 4731WAT      O14434   8.021   4.359   4.638
 4731WAT     H114435   8.037   4.437   4.577
 4731WAT     H214436   8.101   4.299   4.636
 4732WAT      O14437   3.053   7.315   9.625
 4732WAT     H114438   2.968   7.299   9.575
 4732WAT     H214439   3.127   7.333   9.561
 4733WAT      O14440   7.487   2.431   2.944
 4733WAT     H114441   7.503   2.386   2.856
 4733WAT     H214442   7.574   2.454   2.986
 4734WAT      O14443   2.458   0.797   1.321
 4734WAT     H114444   2.557   0.791   1.319
 4734WAT     H214445   2.426   0.848   1.241
 4735WAT      O14446   9.062   5.575   4.628
 4735WAT     H114447   9.115   5.503   4.583
 4735WAT     H214448   9.103   5.597   4.717
 4736WAT      O14449   7.524   2.666   7.453
 4736WAT     H114450   7.615   2.646   7.417
 4736WAT     H214451   7.522   2.759   7.490
 4737WAT      O14452   4.254   3.074   5.754
 4737WAT     H114453   4.248   3.090   5.853
 4737WAT     H214454   4.350   3.060   5.729
 4738WAT      O14455   3.506   7.367   6.105
 4738WAT     H114456   3.413   7.387   6.073
 4738WAT     H214457   3.507   7.362   6.205
 4739WAT      O14458   9.321   8.083   0.241
 4739WAT     H114459   9.246   8.149   0.241
 4739WAT     H214460   9.409   8.131   0.239
 4740WAT      O14461   8.722   1.918   8.715
 4740WAT     H114462   8.636   1.906   8.665
 4740WAT     H214463   8.746   1.833   8.762
 4741WAT      O14464   1.140   8.990   5.694
 4741WAT     H114465   1.108   9.033   5.779
 4741WAT     H214466   1.087   9.026   5.617
 4742WAT      O14467   6.568   2.552   4.059
 4742WAT     H114468   6.480   2.599   4.063
 4742WAT     H214469   6.558   2.467   4.008
 4743WAT      O14470   7.223   7.152   3.486
 4743WAT     H114471   7.256   7.138   3.392
 4743WAT     H214472   7.291   7.119   3.551
 4744WAT      O14473   3.392   3.591   3.811
 4744WAT     H114474   3.407   3.687   3.792
 4744WAT     H214475   3.326   3.554   3.745
 4745WAT      O14476   6.965   9.217   8.971
 4745WAT     H114477   7.042   9.218   9.034
 4745WAT     H214478   6.885   9.178   9.016
 4746WAT      O14479   2.130   4.590   1.149
 4746WAT     H114480   2.061   4.631   1.208
 4746WAT     H214481   2.102   4.598   1.053
 4747WAT      O14482   2.189   5.360   0.478
 4747WAT     H114483   2.206   5.287   0.545
 4747WAT     H214484   2.095   5.352   0.444
 4748WAT      O14485   2.046   1.838   7.968
 4748WAT     H114486   2.078   1.906   8.035
 4748WAT     H214487   2.023   1.884   7.882
 4749WAT      O14488   2.553   8.918   4.971
 4749WAT     H114489   2.590   8.843   4.917
 4749WAT     H214490   2.479   8.884   5.029
 4750WAT      O14491   8.000   3.641   4.814
 4750WAT     H114492   8.033   3.568   4.754
 4750WAT     H214493   7.977   3.603   4.904
 4751WAT      O14494   9.597   4.434   2.294
 4751WAT     H114495   9.591   4.348   2.242
 4751WAT     H214496   9.506   4.459   2.327
 4752WAT      O14497   1.329   1.846   3.304
 4752WAT     H114498   1.356   1.762   3.350
 4752WAT     H214499   1.261   1.826   3.234
 4753WAT      O14500   1.025   5.794   6.716
 4753WAT     H114501   0.998   5.738   6.794
 4753WAT     H214502   1.108   5.755   6.675
 4754WAT      O14503   2.194   3.085   5.218
 4754WAT     H114504   2.178   3.172   5.172
 4754WAT     H214505   2.107   3.035   5.225
 4755WAT      O14506   0.701   6.298   3.623
 4755WAT     H114507   0.690   6.200   3.637
 4755WAT     H214508   0.648   6.348   3.691
 4756WAT      O14509   3.472   6.295   4.728
 4756WAT     H114510   3.487   6.236   4.807
 4756WAT     H214511   3.493   6.390   4.752
 4757WAT      O14512   1.911   2.905   0.584
 4757WAT     H114513   1.818   2.878   0.609
 4757WAT     H214514   1.931   2.873   0.491
 4758WAT      O14515   2.150   8.316   6.259
 4758WAT     H114516   2.095   8.270   6.329
 4758WAT     H214517   2.242   8.275   6.257
 4759WAT      O14518   4.190   7.316   0.995
 4759WAT     H114519   4.157   7.395   1.046
 4759WAT     H214520   4.220   7.345   0.904
 4760WAT      O14521   0.447   6.786   6.675
 4760WAT     H114522   0.479   6.696   6.646
 4760WAT     H214523   0.460   6.796   6.774
 4761WAT      O14524   5.937   3.535   2.548
 4761WAT     H114525   5.908   3.457   2.493
 4761WAT     H214526   5.912   3.519   2.644
 4762WAT      O14527   6.149   4.765   1.972
 4762WAT     H114528   6.148   4.846   2.030
 4762WAT     H214529   6.059   4.755   1.928
 4763WAT      O14530   5.259   7.509   0.440
 4763WAT     H114531   5.260   7.537   0.536
 4763WAT     H214532   5.317   7.428   0.428
 4764WAT      O14533   6.997   7.843   8.065
 4764WAT     H114534   6.986   7.874   8.159
 4764WAT     H214535   7.092   7.814   8.050
 4765WAT      O14536   7.969   3.095   1.615
 4765WAT     H114537   7.984   3.027   1.544
 4765WAT     H214538   7.942   3.182   1.574
 4766WAT      O14539   8.002   1.485   4.719
 4766WAT     H114540   7.917   1.451   4.680
 4766WAT     H214541   8.015   1.581   4.691
 4767WAT      O14542   5.598   5.525   6.031
 4767WAT     H114543   5.682   5.474   6.044
 4767WAT     H214544   5.522   5.475   6.073
 4768WAT      O14545   2.779   1.893   4.268
 4768WAT     H114546   2.687   1.854   4.280
 4768WAT     H214547   2.771   1.990   4.245
 4769WAT      O14548   9.392   6.601   4.952
 4769WAT     H114549   9.376   6.657   4.870
 4769WAT     H214550   9.305   6.562   4.982
 4770WAT      O14551   7.959   8.336   5.932
 4770WAT     H114552   7.993   8.371   6.019
 4770WAT     H214553   8.026   8.271   5.894
 4771WAT      O14554   1.423   1.387   9.234
 4771WAT     H114555   1.402   1.485   9.234
 4771WAT     H214556   1.485   1.367   9.158
 4772WAT      O14557   5.473   6.825   9.889
 4772WAT     H114558   5.509   6.859   9.802
 4772WAT     H214559   5.535   6.850   9.963
 4773WAT      O14560   7.302   1.358   2.838
 4773WAT     H114561   7.322   1.409   2.922
 4773WAT     H214562   7.226   1.295   2.855
 4774WAT      O14563   0.008   7.165   4.632
 4774WAT     H114564   0.065   7.088   4.602
 4774WAT     H214565   0.041   7.198   4.720
 4775WAT      O14566   5.517   2.984   2.144
 4775WAT     H114567   5.466   3.022   2.067
 4775WAT     H214568   5.584   2.919   2.111
 4776WAT      O14569   8.556   9.091   6.186
 4776WAT     H114570   8.552   9.009   6.129
 4776WAT     H214571   8.638   9.088   6.243
 4777WAT      O14572   2.810   1.327   4.098
 4777WAT     H114573   2.843   1.383   4.174
 4777WAT     H214574   2.711   1.333   4.092
 4778WAT      O14575   1.671   7.167   0.408
 4778WAT     H114576   1.678   7.235   0.335
 4778WAT     H214577   1.576   7.164   0.442
 4779WAT      O14578   0.571   2.109   3.033
 4779WAT     H114579   0.520   2.195   3.040
 4779WAT     H214580   0.615   2.089   3.121
 4780WAT      O14581   5.475   2.164   1.383
 4780WAT     H114582   5.567   2.143   1.350
 4780WAT     H214583   5.408   2.112   1.330
 4781WAT      O14584   6.738   7.004   1.161
 4781WAT     H114585   6.831   7.023   1.192
 4781WAT     H214586   6.672   7.039   1.228
 4782WAT      O14587   6.481   1.813   8.586
 4782WAT     H114588   6.410   1.869   8.629
 4782WAT     H214589   6.438   1.743   8.529
 4783WAT      O14590   2.722   3.863   3.976
 4783WAT     H114591   2.740   3.772   4.014
 4783WAT     H214592   2.640   3.902   4.020
 4784WAT      O14593   7.184   2.873   6.425
 4784WAT     H114594   7.179   2.910   6.332
 4784WAT     H214595   7.225   2.782   6.423
 4785WAT      O14596   8.070   2.384   1.874
 4785WAT     H114597   7.975   2.411   1.857
 4785WAT     H214598   8.090   2.300   1.824
 4786WAT      O14599   1.591   5.820   5.191
 4786WAT     H114600   1.588   5.755   5.115
 4786WAT     H214601   1.674   5.875   5.184
 4787WAT      O14602   6.408   2.379   0.969
 4787WAT     H114603   6.394   2.456   0.907
 4787WAT     H214604   6.478   2.402   1.036
 4788WAT      O14605   0.612   6.376   2.093
 4788WAT     H114606   0.535   6.394   2.032
 4788WAT     H214607   0.693   6.353   2.039
 4789WAT      O14608   7.423   0.745   2.358
 4789WAT     H114609   7.497   0.689   2.320
 4789WAT     H214610   7.359   0.769   2.285
 4790WAT      O14611   8.322   2.502   4.532
 4790WAT     H114612   8.274   2.583   4.499
 4790WAT     H214613   8.272   2.462   4.609
 4791WAT      O14614   6.266   8.081   8.965
 4791WAT     H114615   6.198   8.049   8.899
 4791WAT     H214616   6.310   8.002   9.008
 4792WAT      O14617   1.210   0.572   1.108
 4792WAT     H114618   1.193   0.480   1.072
 4792WAT     H214619   1.159   0.584   1.194
 4793WAT      O14620   1.506   4.158   7.333
 4793WAT     H114621   1.459   4.125   7.251
 4793WAT     H214622   1.475   4.251   7.353
 4794WAT      O14623   0.778   4.156   4.521
 4794WAT     H114624   0.756   4.060   4.505
 4794WAT     H214625   0.868   4.162   4.566
 4795WAT      O14626   6.258   4.816   9.754
 4795WAT     H114627   6.199   4.745   9.793
 4795WAT     H214628   6.245   4.819   9.655
 4796WAT      O14629   4.745   9.644   0.773
 4796WAT     H114630   4.727   9.673   0.867
 4796WAT     H214631   4.709   9.551   0.760
 4797WAT      O14632   1.676   3.019   6.999
 4797WAT     H114633   1.698   2.932   7.042
 4797WAT     H214634   1.622   3.003   6.916
 4798WAT      O14635   4.678   1.086   0.221
 4798WAT     H114636   4.723   1.022   0.158
 4798WAT     H214637   4.743   1.158   0.246
 4799WAT      O14638   6.844   2.738   9.527
 4799WAT     H114639   6.861   2.651   9.480
 4799WAT     H214640   6.863   2.814   9.464
 4800WAT      O14641   4.239   6.408   0.104
 4800WAT     H114642   4.197   6.482   0.051
 4800WAT     H214643   4.282   6.343   0.042
 4801WAT      O14644   5.401   3.019   9.381
 4801WAT     H114645   5.323   3.019   9.443
 4801WAT     H214646   5.376   3.060   9.294
 4802WAT      O14647   9.045   8.198   3.294
 4802WAT     H114648   8.995   8.262   3.352
 4802WAT     H214649   9.107   8.144   3.351
 4803WAT      O14650   9.374   2.700   7.378
 4803WAT     H114651   9.442   2.627   7.370
 4803WAT     H214652   9.315   2.682   7.457
 4804WAT      O14653   9.409   1.132   3.929
 4804WAT     H114654   9.432   1.116   3.833
 4804WAT     H214655   9.491   1.160   3.979
 4805WAT      O14656   6.799   6.358   6.681
 4805WAT     H114657   6.809   6.262   6.656
 4805WAT     H214658   6.788   6.413   6.598
 4806WAT      O14659   7.033   5.045   9.442
 4806WAT     H114660   7.041   4.999   9.531
 4806WAT     H214661   7.081   5.133   9.447
 4807WAT      O14662   6.866   9.641   8.918
 4807WAT     H114663   6.937   9.572   8.902
 4807WAT     H214664   6.908   9.723   8.959
 4808WAT      O14665   0.740   1.337   0.926
 4808WAT     H114666   0.719   1.400   1.001
 4808WAT     H214667   0.767   1.388   0.845
 4809WAT      O14668   9.665   9.829   6.459
 4809WAT     H114669   9.643   9.736   6.429
 4809WAT     H214670   9.684   9.829   6.557
 4810WAT      O14671   0.116   8.030   8.613
 4810WAT     H114672   0.091   8.042   8.517
 4810WAT     H214673   0.061   7.957   8.653
 4811WAT      O14674   0.356   3.404   6.831
 4811WAT     H114675   0.322   3.450   6.748
 4811WAT     H214676   0.399   3.472   6.891
 4812WAT      O14677   1.006   4.878   4.476
 4812WAT     H114678   0.953   4.819   4.414
 4812WAT     H214679   1.065   4.822   4.533
 4813WAT      O14680   9.142   0.684   8.531
 4813WAT     H114681   9.209   0.714   8.463
 4813WAT     H214682   9.132   0.754   8.601
 4814WAT      O14683   8.927   4.517   0.431
 4814WAT     H114684   8.965   4.603   0.396
 4814WAT     H214685   8.996   4.444   0.423
 4815WAT      O14686   0.948   0.757   7.143
 4815WAT     H114687   0.899   0.751   7.230
 4815WAT     H214688   0.954   0.667   7.102
 4816WAT      O14689   7.711   8.121   1.882
 4816WAT     H114690   7.644   8.164   1.943
 4816WAT     H214691   7.803   8.140   1.915
 4817WAT      O14692   8.109   7.115   3.073
 4817WAT     H114693   8.047   7.120   3.151
 4817WAT     H214694   8.062   7.071   2.996
 4818WAT      O14695   4.533   2.988   7.066
 4818WAT     H114696   4.503   2.925   7.138
 4818WAT     H214697   4.597   3.055   7.106
 4819WAT      O14698   5.435   3.491   5.953
 4819WAT     H114699   5.462   3.473   6.047
 4819WAT     H214700   5.514   3.523   5.901
 4820WAT      O14701   9.803   7.998   1.048
 4820WAT     H114702   9.856   7.936   0.990
 4820WAT     H214703   9.718   7.953   1.077
 4821WAT      O14704   3.500   4.687   2.700
 4821WAT     H114705   3.537   4.766   2.651
 4821WAT     H214706   3.472   4.715   2.792
 4822WAT      O14707   4.612   3.090   5.978
 4822WAT     H114708   4.619   3.013   5.914
 4822WAT     H214709   4.657   3.065   6.065
 4823WAT      O14710   3.748   3.473   1.411
 4823WAT     H114711   3.800   3.557   1.398
 4823WAT     H214712   3.663   3.493   1.458
 4824WAT      O14713   6.361   2.845   5.832
 4824WAT     H114714   6.384   2.913   5.901
 4824WAT     H214715   6.358   2.754   5.875
 4825WAT      O14716   0.901   5.590   2.369
 4825WAT     H114717   0.890   5.554   2.461
 4825WAT     H214718   0.971   5.662   2.369
 4826WAT      O14719   1.304   8.508   2.976
 4826WAT     H114720   1.321   8.604   2.997
 4826WAT     H214721   1.245   8.469   3.046
 4827WAT      O14722   5.834   0.599   0.374
 4827WAT     H114723   5.895   0.666   0.417
 4827WAT     H214724   5.797   0.538   0.444
 4828WAT      O14725   9.719   1.797   3.290
 4828WAT     H114726   9.774   1.726   3.246
 4828WAT     H214727   9.712   1.877   3.231
 4829WAT      O14728   9.703   7.837   7.431
 4829WAT     H114729   9.693   7.935   7.447
 4829WAT     H214730   9.641   7.808   7.359
 4830WAT      O14731   4.902   6.107   1.025
 4830WAT     H114732   4.910   6.151   0.936
 4830WAT     H214733   4.854   6.168   1.088
 4831WAT      O14734   0.977   3.508   4.971
 4831WAT     H114735   0.955   3.423   5.019
 4831WAT     H214736   1.076   3.516   4.961
 4832WAT      O14737   8.681   2.695   1.183
 4832WAT     H114738   8.639   2.727   1.098
 4832WAT     H214739   8.613   2.695   1.256
 4833WAT      O14740   4.199   6.110   8.395
 4833WAT     H114741   4.196   6.196   8.344
 4833WAT     H214742   4.119   6.055   8.373
 4834WAT      O14743   2.131   6.123   6.910
 4834WAT     H114744   2.212   6.069   6.885
 4834WAT     H214745   2.051   6.063   6.914
 4835WAT      O14746   4.956   1.590   4.586
 4835WAT     H114747   5.012   1.666   4.554
 4835WAT     H214748   4.959   1.586   4.686
 4836WAT      O14749   3.046   5.901   5.668
 4836WAT     H114750   2.995   5.822   5.635
 4836WAT     H214751   3.144   5.882   5.664
 4837WAT      O14752   7.256   8.606   9.607
 4837WAT     H114753   7.338   8.556   9.633
 4837WAT     H214754   7.231   8.669   9.681
 4838WAT      O14755   9.268   1.765   9.109
 4838WAT     H114756   9.181   1.755   9.159
 4838WAT     H214757   9.307   1.674   9.093
 4839WAT      O14758   8.129   5.706   3.664
 4839WAT     H114759   8.134   5.704   3.564
 4839WAT     H214760   8.098   5.797   3.694
 4840WAT      O14761   0.550   0.805   2.990
 4840WAT     H114762   0.495   0.818   3.072
 4840WAT     H214763   0.501   0.748   2.925
 4841WAT      O14764   4.120   6.792   8.634
 4841WAT     H114765   4.121   6.751   8.725
 4841WAT     H214766   4.102   6.890   8.642
 4842WAT      O14767   1.853   3.855   1.532
 4842WAT     H114768   1.914   3.864   1.453
 4842WAT     H214769   1.890   3.786   1.594
 4843WAT      O14770   7.213   8.354   4.860
 4843WAT     H114771   7.156   8.398   4.930
 4843WAT     H214772   7.176   8.264   4.839
 4844WAT      O14773   2.958   1.287   3.433
 4844WAT     H114774   2.915   1.256   3.349
 4844WAT     H214775   2.898   1.266   3.511
 4845WAT      O14776   6.350   4.582   8.849
 4845WAT     H114777   6.269   4.524   8.860
 4845WAT     H214778   6.412   4.539   8.782
 4846WAT      O14779   0.317   4.396   3.491
 4846WAT     H114780   0.254   4.451   3.546
 4846WAT     H214781   0.265   4.341   3.425
 4847WAT      O14782   4.788   9.451   3.113
 4847WAT     H114783   4.848   9.529   3.133
 4847WAT     H214784   4.842   9.368   3.104
 4848WAT      O14785   2.903   2.656   1.417
 4848WAT     H114786   2.807   2.682   1.424
 4848WAT     H214787   2.960   2.723   1.464
 4849WAT      O14788   7.736   6.608   7.115
 4849WAT     H114789   7.763   6.703   7.106
 4849WAT     H214790   7.727   6.567   7.024
 4850WAT      O14791   3.364   6.138   1.794
 4850WAT     H114792   3.358   6.069   1.866
 4850WAT     H214793   3.360   6.093   1.704
 4851WAT      O14794   2.581   2.525   0.337
 4851WAT     H114795   2.490   2.561   0.358
 4851WAT     H214796   2.648   2.572   0.395
 4852WAT      O14797   4.105   3.671   3.972
 4852WAT     H114798   4.135   3.596   3.914
 4852WAT     H214799   4.039   3.728   3.923
 4853WAT      O14800   7.485   6.679   3.186
 4853WAT     H114801   7.514   6.632   3.102
 4853WAT     H214802   7.474   6.777   3.167
 4854WAT      O14803   2.341   7.617   7.575
 4854WAT     H114804   2.312   7.529   7.614
 4854WAT     H214805   2.441   7.620   7.570
 4855WAT      O14806   1.579   7.203   4.017
 4855WAT     H114807   1.490   7.195   4.062
 4855WAT     H214808   1.585   7.135   3.944
 4856WAT      O14809   2.517   9.068   0.878
 4856WAT     H114810   2.566   9.041   0.795
 4856WAT     H214811   2.570   9.138   0.927
 4857WAT      O14812   4.340   0.826   6.106
 4857WAT     H114813   4.418   0.865   6.155
 4857WAT     H214814   4.263   0.890   6.110
 4858WAT      O14815   1.713   4.069   9.699
 4858WAT     H114816   1.624   4.084   9.657
 4858WAT     H214817   1.770   4.014   9.638
 4859WAT      O14818   3.960   1.290   2.916
 4859WAT     H114819   4.020   1.364   2.947
 4859WAT     H214820   3.935   1.232   2.993
 4860WAT      O14821   4.463   2.285   3.934
 4860WAT     H114822   4.498   2.191   3.940
 4860WAT     H214823   4.400   2.292   3.857
 4861WAT      O14824   1.886   0.793   0.398
 4861WAT     H114825   1.789   0.814   0.387
 4861WAT     H214826   1.900   0.749   0.486
 4862WAT      O14827   3.798   2.287   7.293
 4862WAT     H114828   3.859   2.280   7.372
 4862WAT     H214829   3.737   2.208   7.291
 4863WAT      O14830   3.597   9.791   8.848
 4863WAT     H114831   3.529   9.728   8.811
 4863WAT     H214832   3.574   9.815   8.942
 4864WAT      O14833   0.255   5.373   8.049
 4864WAT     H114834   0.344   5.398   8.088
 4864WAT     H214835   0.246   5.274   8.047
 4865WAT      O14836   0.780   2.102   1.613
 4865WAT     H114837   0.736   2.085   1.701
 4865WAT     H214838   0.876   2.127   1.628
 4866WAT      O14839   9.178   9.630   6.189
 4866WAT     H114840   9.233   9.713   6.178
 4866WAT     H214841   9.087   9.645   6.148
 4867WAT      O14842   0.649   3.058   0.585
 4867WAT     H114843   0.550   3.059   0.592
 4867WAT     H214844   0.677   3.104   0.501
 4868WAT      O14845   8.358   9.161   1.982
 4868WAT     H114846   8.292   9.112   2.039
 4868WAT     H214847   8.339   9.259   1.985
 4869WAT      O14848   5.080   6.190   4.110
 4869WAT     H114849   5.059   6.169   4.014
 4869WAT     H214850   5.024   6.133   4.170
 4870WAT      O14851   3.985   5.347   0.438
 4870WAT     H114852   4.043   5.408   0.491
 4870WAT     H214853   4.004   5.357   0.340
 4871WAT      O14854   8.474   7.295   5.131
 4871WAT     H114855   8.398   7.274   5.069
 4871WAT     H214856   8.481   7.394   5.141
 4872WAT      O14857   4.772   7.483   4.782
 4872WAT     H114858   4.823   7.477   4.696
 4872WAT     H214859   4.680   7.445   4.770
 4873WAT      O14860   5.593   5.946   5.922
 4873WAT     H114861   5.576   5.896   6.007
 4873WAT     H214862   5.670   6.008   5.934
 4874WAT      O14863   6.685   8.987   8.995
 4874WAT     H114864   6.658   8.901   8.950
 4874WAT     H214865   6.664   9.064   8.935
 4875WAT      O14866   2.162   6.585   7.917
 4875WAT     H114867   2.215   6.541   7.991
 4875WAT     H214868   2.225   6.616   7.846
 4876WAT      O14869   4.195   1.461   5.527
 4876WAT     H114870   4.163   1.380   5.578
 4876WAT     H214871   4.130   1.482   5.454
 4877WAT      O14872   3.301   2.165   3.817
 4877WAT     H114873   3.380   2.161   3.756
 4877WAT     H214874   3.332   2.172   3.912
 4878WAT      O14875   1.858   8.987   6.154
 4878WAT     H114876   1.834   8.925   6.229
 4878WAT     H214877   1.783   8.990   6.088
 4879WAT      O14878   5.463   0.765   8.851
 4879WAT     H114879   5.538   0.748   8.914
 4879WAT     H214880   5.445   0.864   8.846
 4880WAT      O14881   3.639   4.039   5.991
 4880WAT     H114882   3.712   4.063   6.055
 4880WAT     H214883   3.679   3.990   5.913
 4881WAT      O14884   5.538   3.945   7.069
 4881WAT     H114885   5.472   3.918   6.999
 4881WAT     H214886   5.489   3.983   7.148
 4882WAT      O14887   1.356   3.486   8.671
 4882WAT     H114888   1.305   3.478   8.757
 4882WAT     H214889   1.309   3.432   8.600
 4883WAT      O14890   9.148   6.027   2.781
 4883WAT     H114891   9.151   6.040   2.682
 4883WAT     H214892   9.155   6.116   2.826
 4884WAT      O14893   7.984   9.178   9.423
 4884WAT     H114894   8.007   9.093   9.375
 4884WAT     H214895   7.890   9.172   9.457
 4885WAT      O14896   0.577   0.779   4.417
 4885WAT     H114897   0.627   0.753   4.500
 4885WAT     H214898   0.485   0.741   4.420
 4886WAT      O14899   4.465   8.826   1.391
 4886WAT     H114900   4.382   8.776   1.368
 4886WAT     H214901   4.543   8.783   1.347
 4887WAT      O14902   7.669   3.444   0.394
 4887WAT     H114903   7.689   3.522   0.454
 4887WAT     H214904   7.754   3.413   0.351
 4888WAT      O14905   4.424   4.456   1.338
 4888WAT     H114906   4.514   4.415   1.325
 4888WAT     H214907   4.377   4.463   1.249
 4889WAT      O14908   8.014   1.686   1.665
 4889WAT     H114909   7.961   1.765   1.635
 4889WAT     H214910   8.018   1.619   1.591
 4890WAT      O14911   9.094   0.906   6.569
 4890WAT     H114912   9.082   0.986   6.628
 4890WAT     H214913   9.007   0.884   6.524
 4891WAT      O14914   6.691   0.231   6.426
 4891WAT     H114915   6.652   0.230   6.517
 4891WAT     H214916   6.620   0.214   6.358
 4892WAT      O14917   4.077   4.000   3.027
 4892WAT     H114918   4.155   3.951   2.988
 4892WAT     H214919   4.108   4.052   3.107
 4893WAT      O14920   5.762   0.733   9.280
 4893WAT     H114921   5.848   0.698   9.242
 4893WAT     H214922   5.777   0.825   9.316
 4894WAT      O14923   4.060   7.085   6.270
 4894WAT     H114924   4.046   6.998   6.224
 4894WAT     H214925   4.145   7.082   6.322
 4895WAT      O14926   3.169   2.222   8.597
 4895WAT     H114927   3.094   2.169   8.558
 4895WAT     H214928   3.256   2.186   8.563
 4896WAT      O14929   7.113   1.727   2.734
 4896WAT     H114930   7.140   1.683   2.649
 4896WAT     H214931   7.042   1.795   2.715
 4897WAT      O14932   9.861   8.274   1.471
 4897WAT     H114933   9.878   8.187   1.425
 4897WAT     H214934   9.779   8.317   1.434
 4898WAT      O14935   5.985   5.054   8.924
 4898WAT     H114936   5.892   5.084   8.946
 4898WAT     H214937   6.050   5.123   8.956
 4899WAT      O14938   2.021   5.560   5.831
 4899WAT     H114939   2.036   5.647   5.783
 4899WAT     H214940   2.022   5.576   5.929
 4900WAT      O14941   2.582   9.297   2.506
 4900WAT     H114942   2.627   9.230   2.565
 4900WAT     H214943   2.522   9.249   2.441
 4901WAT      O14944   7.020   9.557   4.746
 4901WAT     H114945   6.928   9.536   4.779
 4901WAT     H214946   7.025   9.538   4.648
 4902WAT      O14947   6.123   4.235   4.129
 4902WAT     H114948   6.112   4.155   4.071
 4902WAT     H214949   6.177   4.211   4.209
 4903WAT      O14950   3.285   9.127   3.114
 4903WAT     H114951   3.261   9.216   3.075
 4903WAT     H214952   3.377   9.101   3.085
 4904WAT      O14953   8.950   2.436   5.363
 4904WAT     H114954   8.891   2.487   5.301
 4904WAT     H214955   8.934   2.338   5.349
 4905WAT      O14956   3.221   0.407   8.945
 4905WAT     H114957   3.294   0.340   8.957
 4905WAT     H214958   3.251   0.480   8.884
 4906WAT      O14959   7.189   8.483   2.835
 4906WAT     H114960   7.100   8.453   2.802
 4906WAT     H214961   7.228   8.414   2.896
 4907WAT      O14962   3.627   0.553   1.796
 4907WAT     H114963   3.571   0.635   1.790
 4907WAT     H214964   3.720   0.577   1.826
 4908WAT      O14965   6.977   9.489   4.456
 4908WAT     H114966   6.889   9.514   4.416
 4908WAT     H214967   7.051   9.519   4.395
 4909WAT      O14968   4.070   2.683   5.103
 4909WAT     H114969   4.147   2.643   5.053
 4909WAT     H214970   3.989   2.683   5.044
 4910WAT      O14971   3.446   7.068   6.113
 4910WAT     H114972   3.536   7.039   6.148
 4910WAT     H214973   3.442   7.168   6.112
 4911WAT      O14974   6.762   7.871   9.324
 4911WAT     H114975   6.853   7.828   9.329
 4911WAT     H214976   6.757   7.928   9.243
 4912WAT      O14977   4.123   4.282   8.190
 4912WAT     H114978   4.081   4.372   8.201
 4912WAT     H214979   4.138   4.242   8.281
 4913WAT      O14980   1.474   9.111   3.492
 4913WAT     H114981   1.422   9.058   3.558
 4913WAT     H214982   1.470   9.066   3.403
 4914WAT      O14983   8.938   9.090   9.144
 4914WAT     H114984   8.905   9.008   9.190
 4914WAT     H214985   8.881   9.168   9.168
 4915WAT      O14986   5.475   0.832   1.307
 4915WAT     H114987   5.547   0.901   1.312
 4915WAT     H214988   5.419   0.848   1.226
 4916WAT      O14989   6.574   8.175   5.905
 4916WAT     H114990   6.655   8.187   5.848
 4916WAT     H214991   6.569   8.080   5.936
 4917WAT      O14992   5.935   5.868   6.581
 4917WAT     H114993   5.967   5.936   6.648
 4917WAT     H214994   5.885   5.796   6.627
 4918WAT      O14995   2.125   0.811   1.835
 4918WAT     H114996   2.081   0.899   1.819
 4918WAT     H214997   2.060   0.748   1.877
 4919WAT      O14998   2.756   9.160   5.719
 4919WAT     H114999   2.770   9.178   5.621
 4919WAT     H215000   2.843   9.167   5.767
 4920WAT      O15001   9.862   3.577   3.485
 4920WAT     H115002   9.958   3.583   3.514
 4920WAT     H215003   9.843   3.484   3.454
 4921WAT      O15004   2.966   1.228   8.525
 4921WAT     H115005   3.048   1.285   8.520
 4921WAT     H215006   2.927   1.235   8.616
 4922WAT      O15007   5.617   9.210   9.282
 4922WAT     H115008   5.633   9.112   9.293
 4922WAT     H215009   5.632   9.257   9.369
 4923WAT      O15010   7.144   1.924   9.686
 4923WAT     H115011   7.155   1.938   9.588
 4923WAT     H215012   7.074   1.986   9.722
 4924WAT      O15013   8.712   2.166   3.444
 4924WAT     H115014   8.788   2.102   3.457
 4924WAT     H215015   8.636   2.141   3.504
 4925WAT      O15016   6.280   1.619   5.393
 4925WAT     H115017   6.215   1.603   5.319
 4925WAT     H215018   6.343   1.692   5.367
 4926WAT      O15019   3.135   7.706   9.062
 4926WAT     H115020   3.191   7.626   9.081
 4926WAT     H215021   3.111   7.751   9.148
 4927WAT      O15022   2.023   7.121   2.598
 4927WAT     H115023   2.035   7.220   2.599
 4927WAT     H215024   1.985   7.092   2.510
 4928WAT      O15025   4.681   5.975   1.641
 4928WAT     H115026   4.693   5.955   1.738
 4928WAT     H215027   4.722   5.903   1.587
 4929WAT      O15028   0.465   2.242   7.111
 4929WAT     H115029   0.562   2.225   7.092
 4929WAT     H215030   0.422   2.158   7.143
 4930WAT      O15031   2.426   4.406   4.531
 4930WAT     H115032   2.434   4.455   4.444
 4930WAT     H215033   2.470   4.317   4.524
 4931WAT      O15034   7.910   4.455   7.443
 4931WAT     H115035   8.000   4.453   7.401
 4931WAT     H215036   7.840   4.469   7.372
 4932WAT      O15037   5.724   1.274   2.888
 4932WAT     H115038   5.745   1.300   2.793
 4932WAT     H215039   5.807   1.246   2.935
 4933WAT      O15040   3.126   3.363   7.247
 4933WAT     H115041   3.102   3.459   7.264
 4933WAT     H215042   3.208   3.360   7.189
 4934WAT      O15043   2.381   3.074   3.967
 4934WAT     H115044   2.383   2.976   3.987
 4934WAT     H215045   2.341   3.088   3.876
 4935WAT      O15046   1.184   8.700   0.706
 4935WAT     H115047   1.088   8.688   0.680
 4935WAT     H215048   1.235   8.617   0.686
 4936WAT      O15049   2.568   4.706   2.704
 4936WAT     H115050   2.484   4.664   2.737
 4936WAT     H215051   2.549   4.799   2.673
 4937WAT      O15052   5.392   1.672   3.256
 4937WAT     H115053   5.370   1.630   3.168
 4937WAT     H215054   5.491   1.689   3.260
 4938WAT      O15055   0.249   3.100   9.818
 4938WAT     H115056   0.289   3.109   9.908
 4938WAT     H215057   0.271   3.181   9.763
 4939WAT      O15058   5.819   8.360   4.245
 4939WAT     H115059   5.753   8.288   4.265
 4939WAT     H215060   5.802   8.397   4.154
 4940WAT      O15061   3.821   6.098   7.048
 4940WAT     H115062   3.886   6.136   6.982
 4940WAT     H215063   3.729   6.130   7.025
 4941WAT      O15064   7.343   0.503   8.299
 4941WAT     H115065   7.441   0.519   8.302
 4941WAT     H215066   7.325   0.405   8.303
 4942WAT      O15067   2.974   5.619   5.240
 4942WAT     H115068   3.054   5.659   5.196
 4942WAT     H215069   2.978   5.520   5.233
 4943WAT      O15070   0.938   6.944   6.167
 4943WAT     H115071   0.988   6.972   6.085
 4943WAT     H215072   1.003   6.914   6.237
 4944WAT      O15073   1.407   7.482   0.417
 4944WAT     H115074   1.488   7.532   0.386
 4944WAT     H215075   1.430   7.429   0.498
 4945WAT      O15076   9.637   1.288   1.092
 4945WAT     H115077   9.701   1.272   1.017
 4945WAT     H215078   9.688   1.307   1.176
 4946WAT      O15079   5.581   1.487   7.484
 4946WAT     H115080   5.612   1.567   7.434
 4946WAT     H215081   5.638   1.408   7.461
 4947WAT      O15082   0.843   0.471   5.452
 4947WAT     H115083   0.920   0.469   5.389
 4947WAT     H215084   0.758   0.484   5.401
 4948WAT      O15085   8.441   0.258   7.440
 4948WAT     H115086   8.464   0.161   7.451
 4948WAT     H215087   8.397   0.291   7.524
 4949WAT      O15088   4.945   9.210   3.354
 4949WAT     H115089   5.006   9.131   3.367
 4949WAT     H215090   5.000   9.294   3.353
 4950WAT      O15091   6.726   2.732   7.173
 4950WAT     H115092   6.666   2.728   7.093
 4950WAT     H215093   6.702   2.812   7.229
 4951WAT      O15094   6.194   0.350   5.872
 4951WAT     H115095   6.180   0.266   5.925
 4951WAT     H215096   6.172   0.333   5.776
 4952WAT      O15097   1.781   9.505   4.098
 4952WAT     H115098   1.795   9.601   4.074
 4952WAT     H215099   1.786   9.449   4.015
 4953WAT      O15100   8.834   4.317   8.441
 4953WAT     H115101   8.750   4.295   8.489
 4953WAT     H215102   8.899   4.241   8.450
 4954WAT      O15103   5.005   2.999   3.621
 4954WAT     H115104   5.087   3.027   3.571
 4954WAT     H215105   5.026   2.920   3.679
 4955WAT      O15106   0.336   2.257   9.756
 4955WAT     H115107   0.349   2.284   9.851
 4955WAT     H215108   0.270   2.318   9.713
 4956WAT      O15109   8.904   2.241   6.182
 4956WAT     H115110   8.878   2.311   6.116
 4956WAT     H215111   8.954   2.168   6.136
 4957WAT      O15112   0.543   0.300   8.082
 4957WAT     H115113   0.507   0.371   8.141
 4957WAT     H215114   0.496   0.303   7.994
 4958WAT      O15115   3.511   9.325   6.503
 4958WAT     H115116   3.432   9.381   6.529
 4958WAT     H215117   3.547   9.356   6.415
 4959WAT      O15118   5.635   3.578   2.333
 4959WAT     H115119   5.697   3.501   2.346
 4959WAT     H215120   5.567   3.554   2.263
 4960WAT      O15121   0.829   3.788   7.575
 4960WAT     H115122   0.744   3.791   7.627
 4960WAT     H215123   0.891   3.722   7.618
 4961WAT      O15124   6.692   2.023   8.706
 4961WAT     H115125   6.667   2.095   8.642
 4961WAT     H215126   6.711   1.939   8.655
 4962WAT      O15127   2.159   2.278   4.763
 4962WAT     H115128   2.248   2.319   4.742
 4962WAT     H215129   2.094   2.350   4.786
 4963WAT      O15130   1.428   3.411   9.847
 4963WAT     H115131   1.397   3.483   9.909
 4963WAT     H215132   1.374   3.328   9.863
 4964WAT      O15133   7.647   2.937   3.749
 4964WAT     H115134   7.557   2.970   3.778
 4964WAT     H215135   7.640   2.841   3.722
 4965WAT      O15136   0.408   7.321   2.836
 4965WAT     H115137   0.479   7.291   2.773
 4965WAT     H215138   0.450   7.371   2.912
 4966WAT      O15139   4.541   9.510   6.485
 4966WAT     H115140   4.505   9.515   6.578
 4966WAT     H215141   4.476   9.462   6.427
 4967WAT      O15142   7.499   1.961   4.182
 4967WAT     H115143   7.591   1.922   4.170
 4967WAT     H215144   7.470   1.949   4.277
 4968WAT      O15145   3.188   4.341   6.170
 4968WAT     H115146   3.201   4.334   6.071
 4968WAT     H215147   3.257   4.401   6.209
 4969WAT      O15148   0.838   3.039   2.467
 4969WAT     H115149   0.857   3.128   2.425
 4969WAT     H215150   0.747   3.040   2.508
 4970WAT      O15151   6.065   9.210   7.886
 4970WAT     H115152   6.085   9.120   7.848
 4970WAT     H215153   6.001   9.258   7.826
 4971WAT      O15154   3.581   9.619   3.515
 4971WAT     H115155   3.515   9.595   3.586
 4971WAT     H215156   3.665   9.566   3.528
 4972WAT      O15157   1.072   0.753   6.254
 4972WAT     H115158   1.116   0.745   6.344
 4972WAT     H215159   1.050   0.662   6.220
 4973WAT      O15160   7.228   1.864   6.095
 4973WAT     H115161   7.170   1.783   6.087
 4973WAT     H215162   7.224   1.898   6.189
 4974WAT      O15163   4.977   1.918   4.769
 4974WAT     H115164   4.893   1.890   4.722
 4974WAT     H215165   4.958   1.928   4.867
 4975WAT      O15166   7.151   4.801   9.240
 4975WAT     H115167   7.235   4.849   9.266
 4975WAT     H215168   7.084   4.866   9.205
 4976WAT      O15169   0.606   7.386   2.130
 4976WAT     H115170   0.655   7.398   2.044
 4976WAT     H215171   0.541   7.310   2.121
 4977WAT      O15172   6.542   4.189   8.698
 4977WAT     H115173   6.579   4.098   8.721
 4977WAT     H215174   6.444   4.180   8.679
 4978WAT      O15175   5.919   7.620   8.121
 4978WAT     H115176   6.012   7.584   8.130
 4978WAT     H215177   5.869   7.566   8.053
 4979WAT      O15178   5.568   9.124   7.557
 4979WAT     H115179   5.563   9.043   7.498
 4979WAT     H215180   5.634   9.108   7.630
 4980WAT      O15181   8.954   9.036   7.530
 4980WAT     H115182   8.943   8.990   7.618
 4980WAT     H215183   8.890   8.997   7.464
 4981WAT      O15184   7.325   5.404   8.947
 4981WAT     H115185   7.320   5.486   8.889
 4981WAT     H215186   7.321   5.322   8.889
 4982WAT      O15187   2.964   3.957   2.211
 4982WAT     H115188   2.874   3.913   2.204
 4982WAT     H215189   3.035   3.887   2.205
 4983WAT      O15190   1.801   9.309   6.543
 4983WAT     H115191   1.895   9.340   6.528
 4983WAT     H215192   1.796   9.260   6.630
 4984WAT      O15193   2.964   6.172   5.671
 4984WAT     H115194   3.029   6.243   5.694
 4984WAT     H215195   3.004   6.082   5.690
 4985WAT      O15196   8.920   2.888   9.050
 4985WAT     H115197   8.854   2.872   9.124
 4985WAT     H215198   8.953   2.982   9.055
 4986WAT      O15199   8.769   0.903   3.000
 4986WAT     H115200   8.792   0.935   3.091
 4986WAT     H215201   8.674   0.927   2.979
 4987WAT      O15202   6.059   0.838   4.648
 4987WAT     H115203   6.113   0.812   4.568
 4987WAT     H215204   5.962   0.827   4.628
 4988WAT      O15205   5.105   9.277   1.188
 4988WAT     H115206   5.094   9.178   1.195
 4988WAT     H215207   5.017   9.322   1.200
 4989WAT      O15208   6.394   2.270   1.407
 4989WAT     H115209   6.369   2.324   1.327
 4989WAT     H215210   6.483   2.299   1.441
 4990WAT      O15211   8.307   5.201   4.264
 4990WAT     H115212   8.303   5.263   4.342
 4990WAT     H215213   8.280   5.109   4.293
 4991WAT      O15214   3.379   3.147   7.232
 4991WAT     H115215   3.461   3.106   7.272
 4991WAT     H215216   3.299   3.117   7.282
 4992WAT      O15217   4.922   0.273   7.586
 4992WAT     H115218   4.922   0.209   7.509
 4992WAT     H215219   4.842   0.332   7.582
 4993WAT      O15220   5.802   7.135   4.402
 4993WAT     H115221   5.828   7.225   4.436
 4993WAT     H215222   5.884   7.083   4.378
 4994WAT      O15223   3.776   0.736   8.910
 4994WAT     H115224   3.724   0.714   8.993
 4994WAT     H215225   3.745   0.678   8.835
 4995WAT      O15226   8.737   7.380   9.539
 4995WAT     H115227   8.682   7.460   9.516
 4995WAT     H215228   8.753   7.378   9.638
 4996WAT      O15229   1.632   3.195   5.284
 4996WAT     H115230   1.619   3.167   5.379
 4996WAT     H215231   1.662   3.116   5.230
 4997WAT      O15232   0.331   6.487   0.969
 4997WAT     H115233   0.255   6.528   1.019
 4997WAT     H215234   0.378   6.422   1.028
 4998WAT      O15235   6.209   4.183   7.666
 4998WAT     H115236   6.228   4.240   7.746
 4998WAT     H215237   6.272   4.208   7.592
 4999WAT      O15238   2.901   4.238   2.264
 4999WAT     H115239   2.929   4.150   2.226
 4999WAT     H215240   2.947   4.253   2.351
 5000WAT      O15241   4.414   8.186   3.236
 5000WAT     H115242   4.389   8.089   3.242
 5000WAT     H215243   4.446   8.207   3.144
 5001WAT      O15244   0.579   8.472   5.297
 5001WAT     H115245   0.627   8.550   5.257
 5001WAT     H215246   0.485   8.499   5.319
 5002WAT      O15247   7.835   2.568   1.270
 5002WAT     H115248   7.864   2.618   1.188
 5002WAT     H215249   7.762   2.619   1.316
 5003WAT      O15250   3.623   7.607   3.129
 5003WAT     H115251   3.561   7.549   3.076
 5003WAT     H215252   3.637   7.693   3.081
 5004WAT      O15253   0.433   1.700   4.495
 5004WAT     H115254   0.468   1.766   4.561
 5004WAT     H215255   0.491   1.618   4.496
 5005WAT      O15256   7.760   8.606   4.326
 5005WAT     H115257   7.667   8.579   4.351
 5005WAT     H215258   7.761   8.703   4.302
 5006WAT      O15259   3.921   3.929   2.492
 5006WAT     H115260   3.985   3.993   2.535
 5006WAT     H215261   3.858   3.979   2.434
 5007WAT      O15262   9.252   2.379   9.619
 5007WAT     H115263   9.267   2.425   9.531
 5007WAT     H215264   9.262   2.445   9.693
 5008WAT      O15265   2.591   6.185   5.104
 5008WAT     H115266   2.527   6.230   5.042
 5008WAT     H215267   2.674   6.161   5.054
 5009WAT      O15268   2.853   0.658   1.116
 5009WAT     H115269   2.945   0.626   1.141
 5009WAT     H215270   2.785   0.594   1.153
 5010WAT      O15271   9.005   3.371   9.580
 5010WAT     H115272   9.101   3.387   9.601
 5010WAT     H215273   8.980   3.423   9.498
 5011WAT      O15274   0.505   4.482   4.703
 5011WAT     H115275   0.548   4.554   4.648
 5011WAT     H215276   0.521   4.394   4.660
 5012WAT      O15277   1.045   4.622   6.003
 5012WAT     H115278   1.035   4.722   6.001
 5012WAT     H215279   1.139   4.598   5.979
 5013WAT      O15280   2.430   5.622   1.371
 5013WAT     H115281   2.382   5.537   1.353
 5013WAT     H215282   2.528   5.605   1.377
 5014WAT      O15283   3.868   0.108   1.203
 5014WAT     H115284   3.834   0.192   1.160
 5014WAT     H215285   3.889   0.126   1.299
 5015WAT      O15286   7.714   6.662   6.235
 5015WAT     H115287   7.659   6.736   6.271
 5015WAT     H215288   7.695   6.578   6.285
 5016WAT      O15289   3.889   4.099   6.143
 5016WAT     H115290   3.946   4.110   6.062
 5016WAT     H215291   3.930   4.033   6.205
 5017WAT      O15292   3.027   4.387   5.686
 5017WAT     H115293   2.967   4.312   5.715
 5017WAT     H215294   2.976   4.449   5.626
 5018WAT      O15295   6.468   8.399   0.130
 5018WAT     H115296   6.494   8.399   0.226
 5018WAT     H215297   6.536   8.346   0.077
 5019WAT      O15298   0.678   8.091   7.484
 5019WAT     H115299   0.629   8.177   7.495
 5019WAT     H215300   0.644   8.023   7.549
 5020WAT      O15301   0.338   5.344   6.452
 5020WAT     H115302   0.292   5.269   6.405
 5020WAT     H215303   0.357   5.318   6.546
 5021WAT      O15304   7.067   2.991   3.221
 5021WAT     H115305   7.060   2.943   3.133
 5021WAT     H215306   7.162   3.017   3.237
 5022WAT      O15307   0.915   1.818   1.734
 5022WAT     H115308   0.865   1.888   1.785
 5022WAT     H215309   0.898   1.830   1.636
 5023WAT      O15310   2.582   1.116   9.616
 5023WAT     H115311   2.546   1.173   9.543
 5023WAT     H215312   2.674   1.084   9.592
 5024WAT      O15313   2.674   9.243   1.036
 5024WAT     H115314   2.670   9.260   1.135
 5024WAT     H215315   2.712   9.323   0.990
 5025WAT      O15316   5.932   8.831   7.552
 5025WAT     H115317   6.004   8.763   7.542
 5025WAT     H215318   5.847   8.785   7.582
 5026WAT      O15319   9.009   8.191   4.398
 5026WAT     H115320   8.995   8.124   4.325
 5026WAT     H215321   8.941   8.177   4.469
 5027WAT      O15322   4.487   2.869   1.959
 5027WAT     H115323   4.529   2.880   1.869
 5027WAT     H215324   4.400   2.821   1.949
 5028WAT      O15325   5.135   1.845   6.936
 5028WAT     H115326   5.089   1.773   6.988
 5028WAT     H215327   5.076   1.875   6.861
 5029WAT      O15328   0.770   0.752   9.206
 5029WAT     H115329   0.766   0.839   9.157
 5029WAT     H215330   0.723   0.682   9.152
 5030WAT      O15331   1.909   4.335   0.156
 5030WAT     H115332   1.965   4.414   0.179
 5030WAT     H215333   1.893   4.333   0.057
 5031WAT      O15334   2.045   1.356   4.561
 5031WAT     H115335   1.972   1.349   4.630
 5031WAT     H215336   2.055   1.268   4.514
 5032WAT      O15337   0.530   1.949   9.301
 5032WAT     H115338   0.459   1.913   9.361
 5032WAT     H215339   0.609   1.976   9.356
 5033WAT      O15340   4.204   8.905   6.672
 5033WAT     H115341   4.294   8.918   6.632
 5033WAT     H215342   4.194   8.810   6.703
 5034WAT      O15343   3.731   5.576   7.798
 5034WAT     H115344   3.635   5.604   7.791
 5034WAT     H215345   3.778   5.597   7.712
 5035WAT      O15346   2.947   7.004   3.395
 5035WAT     H115347   2.980   7.067   3.466
 5035WAT     H215348   3.025   6.955   3.356
 5036WAT      O15349   4.054   9.730   8.563
 5036WAT     H115350   4.015   9.798   8.501
 5036WAT     H215351   4.060   9.769   8.655
 5037WAT      O15352   3.109   2.368   6.850
 5037WAT     H115353   3.168   2.313   6.910
 5037WAT     H215354   3.125   2.341   6.755
 5038WAT      O15355   1.591   4.117   5.631
 5038WAT     H115356   1.567   4.089   5.724
 5038WAT     H215357   1.517   4.173   5.592
 5039WAT      O15358   3.798   7.433   8.928
 5039WAT     H115359   3.719   7.468   8.877
 5039WAT     H215360   3.795   7.467   9.022
 5040WAT      O15361   4.169   1.642   9.857
 5040WAT     H115362   4.194   1.696   9.937
 5040WAT     H215363   4.244   1.642   9.792
 5041WAT      O15364   5.257   0.015   8.047
 5041WAT     H115365   5.224  -0.023   7.961
 5041WAT     H215366   5.235   0.113   8.051
 5042WAT      O15367   3.451   0.326   1.473
 5042WAT     H115368   3.377   0.376   1.427
 5042WAT     H215369   3.484   0.254   1.412
 5043WAT      O15370   7.868   3.018   9.459
 5043WAT     H115371   7.943   3.067   9.414
 5043WAT     H215372   7.809   3.084   9.507
 5044WAT      O15373   6.808   9.180   9.253
 5044WAT     H115374   6.756   9.215   9.331
 5044WAT     H215375   6.905   9.175   9.277
 5045WAT      O15376   4.666   9.216   1.261
 5045WAT     H115377   4.596   9.165   1.311
 5045WAT     H215378   4.731   9.152   1.220
 5046WAT      O15379   5.776   9.299   7.440
 5046WAT     H115380   5.805   9.207   7.413
 5046WAT     H215381   5.689   9.293   7.490
 5047WAT      O15382   0.916   8.725   5.259
 5047WAT     H115383   0.824   8.691   5.244
 5047WAT     H215384   0.955   8.756   5.172
 5048WAT      O15385   4.097   8.044   7.172
 5048WAT     H115386   4.079   8.084   7.262
 5048WAT     H215387   4.178   7.986   7.176
 5049WAT      O15388   2.136   0.472   4.813
 5049WAT     H115389   2.141   0.416   4.896
 5049WAT     H215390   2.199   0.549   4.822
 5050WAT      O15391   5.432   9.100   5.427
 5050WAT     H115392   5.424   9.193   5.462
 5050WAT     H215393   5.491   9.046   5.487
 5051WAT      O15394   3.433   6.223   5.953
 5051WAT     H115395   3.394   6.144   6.001
 5051WAT     H215396   3.422   6.210   5.854
 5052WAT      O15397   2.361   4.336   5.129
 5052WAT     H115398   2.454   4.366   5.111
 5052WAT     H215399   2.314   4.318   5.043
 5053WAT      O15400   7.690   7.383   8.525
 5053WAT     H115401   7.733   7.420   8.443
 5053WAT     H215402   7.753   7.390   8.602
 5054WAT      O15403   3.644   7.606   4.020
 5054WAT     H115404   3.645   7.636   3.925
 5054WAT     H215405   3.569   7.650   4.069
 5055WAT      O15406   3.923   7.383   7.911
 5055WAT     H115407   3.947   7.454   7.977
 5055WAT     H215408   4.006   7.333   7.885
 5056WAT      O15409   8.656   3.118   6.624
 5056WAT     H115410   8.598   3.042   6.596
 5056WAT     H215411   8.670   3.180   6.547
 5057WAT      O15412   2.225   4.322   0.950
 5057WAT     H115413   2.181   4.312   1.039
 5057WAT     H215414   2.259   4.234   0.919
 5058WAT      O15415   9.631   4.000   9.628
 5058WAT     H115416   9.660   4.043   9.714
 5058WAT     H215417   9.713   3.971   9.577
 5059WAT      O15418   0.433   0.238   7.829
 5059WAT     H115419   0.489   0.157   7.807
 5059WAT     H215420   0.339   0.222   7.800
 5060WAT      O15421   6.329   4.524   1.985
 5060WAT     H115422   6.262   4.511   1.912
 5060WAT     H215423   6.358   4.620   1.986
 5061WAT      O15424   2.253   2.882   0.669
 5061WAT     H115425   2.345   2.893   0.634
 5061WAT     H215426   2.203   2.968   0.659
 5062WAT      O15427   9.475   3.249   3.619
 5062WAT     H115428   9.542   3.271   3.547
 5062WAT     H215429   9.472   3.150   3.632
 5063WAT      O15430   0.078   9.239   1.897
 5063WAT     H115431   0.055   9.254   1.993
 5063WAT     H215432   0.176   9.222   1.888
 5064WAT      O15433   9.392   7.623   6.695
 5064WAT     H115434   9.340   7.539   6.678
 5064WAT     H215435   9.433   7.654   6.609
 5065WAT      O15436   6.231   1.818   5.992
 5065WAT     H115437   6.306   1.779   5.940
 5065WAT     H215438   6.260   1.903   6.035
 5066WAT      O15439   5.349   7.442   2.796
 5066WAT     H115440   5.429   7.384   2.813
 5066WAT     H215441   5.374   7.537   2.810
 5067WAT      O15442   1.750   2.948   1.114
 5067WAT     H115443   1.689   2.877   1.079
 5067WAT     H215444   1.713   3.038   1.090
 5068WAT      O15445   9.733   8.362   8.248
 5068WAT     H115446   9.695   8.285   8.196
 5068WAT     H215447   9.809   8.330   8.304
 5069WAT      O15448   4.905   3.361   4.162
 5069WAT     H115449   4.840   3.431   4.190
 5069WAT     H215450   4.920   3.366   4.064
 5070WAT      O15451   0.817   8.794   9.169
 5070WAT     H115452   0.870   8.871   9.202
 5070WAT     H215453   0.724   8.798   9.207
 5071WAT      O15454   2.895   1.371   2.654
 5071WAT     H115455   2.873   1.444   2.718
 5071WAT     H215456   2.856   1.392   2.564
 5072WAT      O15457   1.549   6.707   1.311
 5072WAT     H115458   1.479   6.723   1.381
 5072WAT     H215459   1.509   6.721   1.221
 5073WAT      O15460   8.250   7.498   3.178
 5073WAT     H115461   8.331   7.553   3.198
 5073WAT     H215462   8.242   7.425   3.246
 5074WAT      O15463   8.736   2.898   3.964
 5074WAT     H115464   8.638   2.892   3.980
 5074WAT     H215465   8.756   2.974   3.903
 5075WAT      O15466   6.124   2.508   9.330
 5075WAT     H115467   6.089   2.422   9.293
 5075WAT     H215468   6.157   2.565   9.255
 5076WAT      O15469   4.576   6.256   2.120
 5076WAT     H115470   4.644   6.273   2.049
 5076WAT     H215471   4.622   6.229   2.205
 5077WAT      O15472   7.348   5.283   6.784
 5077WAT     H115473   7.277   5.339   6.826
 5077WAT     H215474   7.421   5.265   6.850
 5078WAT      O15475   9.346   9.389   4.169
 5078WAT     H115476   9.355   9.454   4.245
 5078WAT     H215477   9.428   9.332   4.164
 5079WAT      O15478   5.164   6.128   7.712
 5079WAT     H115479   5.261   6.153   7.715
 5079WAT     H215480   5.152   6.046   7.656
 5080WAT      O15481   8.564   8.997   4.176
 5080WAT     H115482   8.528   9.083   4.140
 5080WAT     H215483   8.565   8.929   4.103
 5081WAT      O15484   8.903   5.791   0.488
 5081WAT     H115485   8.854   5.848   0.554
 5081WAT     H215486   8.908   5.839   0.400
 5082WAT      O15487   1.536   5.873   4.205
 5082WAT     H115488   1.571   5.853   4.297
 5082WAT     H215489   1.566   5.964   4.177
 5083WAT      O15490   4.237   4.921   9.277
 5083WAT     H115491   4.169   4.915   9.204
 5083WAT     H215492   4.329   4.909   9.238
 5084WAT      O15493   5.696   7.522   1.781
 5084WAT     H115494   5.772   7.587   1.778
 5084WAT     H215495   5.683   7.482   1.691
 5085WAT      O15496   9.653   4.444   5.554
 5085WAT     H115497   9.647   4.389   5.470
 5085WAT     H215498   9.602   4.399   5.627
 5086WAT      O15499   1.065   6.486   0.284
 5086WAT     H115500   1.160   6.454   0.280
 5086WAT     H215501   1.004   6.415   0.250
 5087WAT      O15502   6.917   5.872   1.678
 5087WAT     H115503   6.986   5.917   1.735
 5087WAT     H215504   6.832   5.925   1.679
 5088WAT      O15505   8.018   5.618   9.352
 5088WAT     H115506   8.050   5.682   9.421
 5088WAT     H215507   8.003   5.529   9.394
 5089WAT      O15508   1.150   6.054   2.109
 5089WAT     H115509   1.229   5.992   2.116
 5089WAT     H215510   1.114   6.071   2.201
 5090WAT      O15511   6.329   1.852   7.175
 5090WAT     H115512   6.382   1.797   7.239
 5090WAT     H215513   6.236   1.814   7.167
 5091WAT      O15514   5.989   1.694   3.567
 5091WAT     H115515   6.001   1.733   3.476
 5091WAT     H215516   6.073   1.706   3.619
 5092WAT      O15517   6.903   5.889   2.752
 5092WAT     H115518   6.924   5.957   2.823
 5092WAT     H215519   6.949   5.803   2.775
 5093WAT      O15520   2.872   1.435   4.733
 5093WAT     H115521   2.795   1.448   4.670
 5093WAT     H215522   2.870   1.341   4.769
 5094WAT      O15523   8.444   0.630   1.094
 5094WAT     H115524   8.445   0.677   1.005
 5094WAT     H215525   8.525   0.572   1.101
 5095WAT      O15526   9.294   0.012   4.067
 5095WAT     H115527   9.361  -0.039   4.121
 5095WAT     H215528   9.328   0.104   4.051
 5096WAT      O15529   8.067   3.156   4.929
 5096WAT     H115530   8.084   3.062   4.959
 5096WAT     H215531   8.040   3.212   5.008
 5097WAT      O15532   1.220   1.555   8.555
 5097WAT     H115533   1.148   1.487   8.571
 5097WAT     H215534   1.179   1.646   8.552
 5098WAT      O15535   0.037   1.193   5.714
 5098WAT     H115536   0.113   1.253   5.686
 5098WAT     H215537   0.046   1.105   5.668
 5099WAT      O15538   4.802   4.388   4.462
 5099WAT     H115539   4.727   4.322   4.451
 5099WAT     H215540   4.778   4.454   4.534
 5100WAT      O15541   0.336   1.060   7.543
 5100WAT     H115542   0.381   1.016   7.465
 5100WAT     H215543   0.396   1.132   7.579
 5101WAT      O15544   6.679   8.313   7.438
 5101WAT     H115545   6.678   8.398   7.489
 5101WAT     H215546   6.772   8.293   7.408
 5102WAT      O15547   3.387   5.070   3.587
 5102WAT     H115548   3.459   5.085   3.520
 5102WAT     H215549   3.318   5.141   3.578
 5103WAT      O15550   5.168   8.382   2.566
 5103WAT     H115551   5.203   8.426   2.648
 5103WAT     H215552   5.244   8.351   2.509
 5104WAT      O15553   2.828   5.458   3.904
 5104WAT     H115554   2.779   5.533   3.860
 5104WAT     H215555   2.848   5.483   3.999
 5105WAT      O15556   4.087   9.342   4.393
 5105WAT     H115557   4.169   9.307   4.347
 5105WAT     H215558   4.113   9.384   4.480
 5106WAT      O15559   0.634   9.138   5.673
 5106WAT     H115560   0.626   9.084   5.757
 5106WAT     H215561   0.607   9.232   5.690
 5107WAT      O15562   4.441   9.326   5.095
 5107WAT     H115563   4.349   9.358   5.070
 5107WAT     H215564   4.509   9.380   5.047
 5108WAT      O15565   3.709   4.274   4.476
 5108WAT     H115566   3.723   4.356   4.532
 5108WAT     H215567   3.792   4.218   4.478
 5109WAT      O15568   2.298   6.357   4.685
 5109WAT     H115569   2.292   6.455   4.669
 5109WAT     H215570   2.243   6.308   4.617
 5110WAT      O15571   4.178   6.797   0.963
 5110WAT     H115572   4.203   6.807   1.059
 5110WAT     H215573   4.203   6.881   0.914
 5111WAT      O15574   1.960   1.304   8.747
 5111WAT     H115575   1.948   1.266   8.655
 5111WAT     H215576   2.050   1.281   8.782
 5112WAT      O15577   4.386   3.105   8.589
 5112WAT     H115578   4.382   3.046   8.669
 5112WAT     H215579   4.357   3.197   8.614
 5113WAT      O15580   7.695   3.921   5.258
 5113WAT     H115581   7.740   4.007   5.280
 5113WAT     H215582   7.597   3.937   5.247
 5114WAT      O15583   8.770   3.704   1.421
 5114WAT     H115584   8.721   3.720   1.335
 5114WAT     H215585   8.809   3.790   1.454
 5115WAT      O15586   3.835   2.420   3.135
 5115WAT     H115587   3.776   2.349   3.173
 5115WAT     H215588   3.929   2.406   3.167
 5116WAT      O15589   1.473   5.952   7.923
 5116WAT     H115590   1.377   5.979   7.910
 5116WAT     H215591   1.477   5.881   7.994
 5117WAT      O15592   5.594   1.579   2.818
 5117WAT     H115593   5.582   1.480   2.823
 5117WAT     H215594   5.526   1.624   2.877
 5118WAT      O15595   1.635   2.422   3.280
 5118WAT     H115596   1.673   2.511   3.253
 5118WAT     H215597   1.673   2.350   3.222
 5119WAT      O15598   6.714   7.547   3.874
 5119WAT     H115599   6.672   7.599   3.800
 5119WAT     H215600   6.787   7.601   3.915
 5120WAT      O15601   0.999   3.808   8.536
 5120WAT     H115602   1.031   3.886   8.591
 5120WAT     H215603   1.043   3.810   8.446
 5121WAT      O15604   0.601   8.282   1.092
 5121WAT     H115605   0.505   8.280   1.120
 5121WAT     H215606   0.618   8.208   1.028
 5122WAT      O15607   6.778   1.037   3.136
 5122WAT     H115608   6.795   1.010   3.041
 5122WAT     H215609   6.756   0.956   3.190
 5123WAT      O15610   1.536   6.399   1.218
 5123WAT     H115611   1.620   6.346   1.215
 5123WAT     H215612   1.515   6.423   1.312
 5124WAT      O15613   1.108   9.701   9.196
 5124WAT     H115614   1.030   9.763   9.200
 5124WAT     H215615   1.189   9.746   9.236
 5125WAT      O15616   3.639   1.619   9.622
 5125WAT     H115617   3.738   1.617   9.628
 5125WAT     H215618   3.609   1.707   9.585
 5126WAT      O15619   5.097   1.728   4.306
 5126WAT     H115620   5.023   1.709   4.241
 5126WAT     H215621   5.067   1.799   4.370
 5127WAT      O15622   0.254   7.063   4.847
 5127WAT     H115623   0.335   7.079   4.790
 5127WAT     H215624   0.204   7.148   4.859
 5128WAT      O15625   0.086   4.620   6.598
 5128WAT     H115626   0.140   4.550   6.550
 5128WAT     H215627   0.054   4.582   6.685
 5129WAT      O15628   9.715   9.021   5.094
 5129WAT     H115629   9.633   9.005   5.040
 5129WAT     H215630   9.738   8.939   5.147
 5130WAT      O15631   0.208   5.542   2.874
 5130WAT     H115632   0.227   5.640   2.881
 5130WAT     H215633   0.119   5.528   2.830
 5131WAT      O15634   0.938   5.516   4.077
 5131WAT     H115635   0.888   5.579   4.136
 5131WAT     H215636   0.898   5.424   4.086
 5132WAT      O15637   2.704   4.879   0.136
 5132WAT     H115638   2.719   4.807   0.068
 5132WAT     H215639   2.674   4.838   0.222
 5133WAT      O15640   5.409   0.754   4.965
 5133WAT     H115641   5.351   0.724   5.040
 5133WAT     H215642   5.415   0.854   4.965
 5134WAT      O15643   8.023   6.461   9.484
 5134WAT     H115644   8.041   6.408   9.567
 5134WAT     H215645   8.090   6.436   9.414
 5135WAT      O15646   6.301   2.754   2.143
 5135WAT     H115647   6.386   2.775   2.192
 5135WAT     H215648   6.266   2.665   2.173
 5136WAT      O15649   6.445   0.323   4.733
 5136WAT     H115650   6.356   0.279   4.720
 5136WAT     H215651   6.472   0.368   4.648
 5137WAT      O15652   3.980   1.006   0.221
 5137WAT     H115653   4.031   0.992   0.306
 5137WAT     H215654   3.913   1.079   0.234
 5138WAT      O15655   3.885   3.746   6.548
 5138WAT     H115656   3.917   3.665   6.598
 5138WAT     H215657   3.786   3.755   6.561
 5139WAT      O15658   9.171   8.094   8.234
 5139WAT     H115659   9.213   8.182   8.212
 5139WAT     H215660   9.243   8.026   8.252
 5140WAT      O15661   4.656   0.909   4.360
 5140WAT     H115662   4.640   0.824   4.311
 5140WAT     H215663   4.713   0.891   4.440
 5141WAT      O15664   6.632   8.682   0.015
 5141WAT     H115665   6.640   8.684  -0.085
 5141WAT     H215666   6.536   8.689   0.041
 5142WAT      O15667   7.163   5.858   3.285
 5142WAT     H115668   7.071   5.822   3.303
 5142WAT     H215669   7.162   5.915   3.203
 5143WAT      O15670   0.519   4.695   0.792
 5143WAT     H115671   0.500   4.610   0.840
 5143WAT     H215672   0.435   4.749   0.786
 5144WAT      O15673   8.738   6.340   8.393
 5144WAT     H115674   8.671   6.356   8.320
 5144WAT     H215675   8.696   6.284   8.465
 5145WAT      O15676   9.808   6.314   4.588
 5145WAT     H115677   9.833   6.235   4.532
 5145WAT     H215678   9.711   6.334   4.576
 5146WAT      O15679   8.736   3.234   2.271
 5146WAT     H115680   8.701   3.250   2.363
 5146WAT     H215681   8.730   3.136   2.250
 5147WAT      O15682   1.771   5.554   6.744
 5147WAT     H115683   1.840   5.622   6.717
 5147WAT     H215684   1.810   5.492   6.812
 5148WAT      O15685   8.315   7.237   4.010
 5148WAT     H115686   8.316   7.143   3.978
 5148WAT     H215687   8.379   7.248   4.086
 5149WAT      O15688   4.379   3.069   2.658
 5149WAT     H115689   4.358   3.166   2.672
 5149WAT     H215690   4.398   3.053   2.561
 5150WAT      O15691   7.679   1.299   7.199
 5150WAT     H115692   7.744   1.225   7.214
 5150WAT     H215693   7.609   1.269   7.135
 5151WAT      O15694   3.566   8.813   9.374
 5151WAT     H115695   3.616   8.777   9.453
 5151WAT     H215696   3.614   8.789   9.290
 5152WAT      O15697   7.393   9.099   5.589
 5152WAT     H115698   7.420   9.075   5.495
 5152WAT     H215699   7.364   9.195   5.592
 5153WAT      O15700   8.051   1.388   1.833
 5153WAT     H115701   7.972   1.378   1.893
 5153WAT     H215702   8.028   1.359   1.740
 5154WAT      O15703   2.508   3.834   3.273
 5154WAT     H115704   2.522   3.782   3.357
 5154WAT     H215705   2.413   3.823   3.243
 5155WAT      O15706   0.603   1.848   0.580
 5155WAT     H115707   0.550   1.925   0.544
 5155WAT     H215708   0.584   1.766   0.525
 5156WAT      O15709   0.173   9.592   9.497
 5156WAT     H115710   0.242   9.650   9.454
 5156WAT     H215711   0.214   9.503   9.519
 5157WAT      O15712   7.275   3.401   9.645
 5157WAT     H115713   7.267   3.461   9.565
 5157WAT     H215714   7.244   3.451   9.726
 5158WAT      O15715   1.379   2.020   7.583
 5158WAT     H115716   1.358   2.080   7.506
 5158WAT     H215717   1.431   1.941   7.550
 5159WAT      O15718   5.909   4.359   7.584
 5159WAT     H115719   5.956   4.400   7.506
 5159WAT     H215720   5.927   4.261   7.586
 5160WAT      O15721   4.357   9.679   2.665
 5160WAT     H115722   4.343   9.622   2.584
 5160WAT     H215723   4.286   9.751   2.668
 5161WAT      O15724   1.365   8.177   5.542
 5161WAT     H115725   1.307   8.255   5.566
 5161WAT     H215726   1.314   8.114   5.484
 5162WAT      O15727   0.821   2.283   0.751
 5162WAT     H115728   0.861   2.296   0.841
 5162WAT     H215729   0.731   2.327   0.748
 5163WAT      O15730   1.527   2.327   8.287
 5163WAT     H115731   1.432   2.345   8.264
 5163WAT     H215732   1.580   2.312   8.204
 5164WAT      O15733   0.855   3.955   2.189
 5164WAT     H115734   0.787   3.909   2.247
 5164WAT     H215735   0.919   3.887   2.153
 5165WAT      O15736   2.415   5.927   8.861
 5165WAT     H115737   2.411   5.845   8.919
 5165WAT     H215738   2.324   5.946   8.825
 5166WAT      O15739   1.134   4.265   5.637
 5166WAT     H115740   1.093   4.178   5.610
 5166WAT     H215741   1.064   4.336   5.638
 5167WAT      O15742   4.334   5.087   0.966
 5167WAT     H115743   4.282   5.169   0.989
 5167WAT     H215744   4.428   5.113   0.942
 5168WAT      O15745   1.396   3.185   5.120
 5168WAT     H115746   1.348   3.238   5.050
 5168WAT     H215747   1.485   3.227   5.138
 5169WAT      O15748   0.433   8.867   3.754
 5169WAT     H115749   0.521   8.912   3.768
 5169WAT     H215750   0.446   8.768   3.751
 5170WAT      O15751   7.949   8.146   9.564
 5170WAT     H115752   7.945   8.198   9.649
 5170WAT     H215753   7.968   8.209   9.488
 5171WAT      O15754   4.260   0.999   1.438
 5171WAT     H115755   4.280   1.012   1.535
 5171WAT     H215756   4.211   1.079   1.404
 5172WAT      O15757   8.072   1.308   0.985
 5172WAT     H115758   8.022   1.372   1.043
 5172WAT     H215759   8.017   1.225   0.971
 5173WAT      O15760   6.437   3.013   9.788
 5173WAT     H115761   6.535   2.989   9.786
 5173WAT     H215762   6.396   2.974   9.870
 5174WAT      O15763   1.799   5.566   4.893
 5174WAT     H115764   1.737   5.595   4.966
 5174WAT     H215765   1.831   5.474   4.911
 5175WAT      O15766   7.536   5.248   1.305
 5175WAT     H115767   7.612   5.310   1.325
 5175WAT     H215768   7.517   5.192   1.386
 5176WAT      O15769   9.619   7.861   0.342
 5176WAT     H115770   9.561   7.887   0.265
 5176WAT     H215771   9.567   7.805   0.407
 5177WAT      O15772   7.179   0.454   3.343
 5177WAT     H115773   7.080   0.441   3.348
 5177WAT     H215774   7.220   0.429   3.431
 5178WAT      O15775   4.425   4.235   8.383
 5178WAT     H115776   4.494   4.164   8.368
 5178WAT     H215777   4.431   4.303   8.309
 5179WAT      O15778   9.776   4.812   4.972
 5179WAT     H115779   9.873   4.791   4.985
 5179WAT     H215780   9.733   4.828   5.061
 5180WAT      O15781   7.137   0.132   2.950
 5180WAT     H115782   7.118   0.099   2.858
 5180WAT     H215783   7.230   0.104   2.977
 5181WAT      O15784   2.947   9.394   3.834
 5181WAT     H115785   2.963   9.328   3.760
 5181WAT     H215786   2.906   9.477   3.795
 5182WAT      O15787   0.525   5.105   6.624
 5182WAT     H115788   0.485   5.026   6.670
 5182WAT     H215789   0.508   5.188   6.678
 5183WAT      O15790   8.087   6.703   9.843
 5183WAT     H115791   8.031   6.722   9.762
 5183WAT     H215792   8.047   6.627   9.894
 5184WAT      O15793   3.967   7.885   4.472
 5184WAT     H115794   4.031   7.866   4.397
 5184WAT     H215795   3.895   7.817   4.472
 5185WAT      O15796   3.303   8.097   9.192
 5185WAT     H115797   3.268   8.067   9.104
 5185WAT     H215798   3.388   8.149   9.179
 5186WAT      O15799   4.743   6.282   1.173
 5186WAT     H115800   4.753   6.264   1.271
 5186WAT     H215801   4.662   6.235   1.138
 5187WAT      O15802   5.984   1.646   0.126
 5187WAT     H115803   6.022   1.728   0.083
 5187WAT     H215804   6.044   1.615   0.199
 5188WAT      O15805   2.280   2.001   2.276
 5188WAT     H115806   2.365   2.054   2.273
 5188WAT     H215807   2.206   2.059   2.310
 5189WAT      O15808   2.476   1.830   8.734
 5189WAT     H115809   2.404   1.760   8.737
 5189WAT     H215810   2.450   1.906   8.794
 5190WAT      O15811   1.740   9.362   1.561
 5190WAT     H115812   1.673   9.325   1.625
 5190WAT     H215813   1.702   9.441   1.514
 5191WAT      O15814   1.571   0.326   5.475
 5191WAT     H115815   1.476   0.358   5.466
 5191WAT     H215816   1.630   0.376   5.412
 5192WAT      O15817   7.558   0.126   4.127
 5192WAT     H115818   7.609   0.043   4.152
 5192WAT     H215819   7.558   0.135   4.027
 5193WAT      O15820   7.283   1.815   8.485
 5193WAT     H115821   7.371   1.864   8.493
 5193WAT     H215822   7.279   1.771   8.395
 5194WAT      O15823   9.469   3.732   4.379
 5194WAT     H115824   9.393   3.702   4.322
 5194WAT     H215825   9.547   3.755   4.321
 5195WAT      O15826   4.087   3.346   3.325
 5195WAT     H115827   4.159   3.276   3.325
 5195WAT     H215828   4.033   3.338   3.409
 5196WAT      O15829   3.208   5.136   6.085
 5196WAT     H115830   3.195   5.197   6.007
 5196WAT     H215831   3.227   5.044   6.052
 5197WAT      O15832   9.075   6.099   0.688
 5197WAT     H115833   9.118   6.015   0.654
 5197WAT     H215834   9.082   6.170   0.618
 5198WAT      O15835   2.873   6.495   7.594
 5198WAT     H115836   2.808   6.566   7.567
 5198WAT     H215837   2.938   6.533   7.660
 5199WAT      O15838   3.143   7.320   4.822
 5199WAT     H115839   3.205   7.329   4.899
 5199WAT     H215840   3.173   7.245   4.763
 5200WAT      O15841   6.918   0.122   6.043
 5200WAT     H115842   6.836   0.076   6.010
 5200WAT     H215843   6.922   0.116   6.143
 5201WAT      O15844   4.338   5.565   9.824
 5201WAT     H115845   4.339   5.652   9.775
 5201WAT     H215846   4.408   5.505   9.786
 5202WAT      O15847   0.293   9.075   0.599
 5202WAT     H115848   0.378   9.036   0.634
 5202WAT     H215849   0.224   9.003   0.591
 5203WAT      O15850   2.344   5.720   7.007
 5203WAT     H115851   2.355   5.803   6.951
 5203WAT     H215852   2.426   5.706   7.062
 5204WAT      O15853   0.530   1.564   1.445
 5204WAT     H115854   0.495   1.656   1.429
 5204WAT     H215855   0.470   1.497   1.402
 5205WAT      O15856   4.652   8.536   2.054
 5205WAT     H115857   4.607   8.517   2.142
 5205WAT     H215858   4.607   8.614   2.010
 5206WAT      O15859   7.642   8.461   2.012
 5206WAT     H115860   7.704   8.540   2.014
 5206WAT     H215861   7.589   8.462   1.927
 5207WAT      O15862   2.350   8.111   2.343
 5207WAT     H115863   2.400   8.190   2.307
 5207WAT     H215864   2.393   8.026   2.310
 5208WAT      O15865   4.307   0.873   4.581
 5208WAT     H115866   4.352   0.933   4.647
 5208WAT     H215867   4.236   0.924   4.532
 5209WAT      O15868   6.080   0.869   9.177
 5209WAT     H115869   6.135   0.884   9.095
 5209WAT     H215870   6.008   0.804   9.158
 5210WAT      O15871   4.287   2.811   3.868
 5210WAT     H115872   4.365   2.802   3.806
 5210WAT     H215873   4.202   2.812   3.815
 5211WAT      O15874   9.421   0.663   6.887
 5211WAT     H115875   9.351   0.649   6.957
 5211WAT     H215876   9.379   0.703   6.805
 5212WAT      O15877   5.956   3.616   1.336
 5212WAT     H115878   6.028   3.559   1.297
 5212WAT     H215879   5.938   3.694   1.275
 5213WAT      O15880   6.468   5.066   9.364
 5213WAT     H115881   6.371   5.056   9.343
 5213WAT     H215882   6.488   5.018   9.450
 5214WAT      O15883   3.371   0.129   2.799
 5214WAT     H115884   3.333   0.200   2.858
 5214WAT     H215885   3.470   0.127   2.809
 5215WAT      O15886   6.322   6.180   7.181
 5215WAT     H115887   6.419   6.156   7.195
 5215WAT     H215888   6.313   6.228   7.093
 5216WAT      O15889   7.321   7.579   5.201
 5216WAT     H115890   7.320   7.601   5.103
 5216WAT     H215891   7.252   7.635   5.248
 5217WAT      O15892   8.909   6.697   7.104
 5217WAT     H115893   8.936   6.641   7.183
 5217WAT     H215894   8.921   6.794   7.127
 5218WAT      O15895   0.198   9.523   7.667
 5218WAT     H115896   0.150   9.440   7.698
 5218WAT     H215897   0.291   9.522   7.704
 5219WAT      O15898   3.906   7.598   6.918
 5219WAT     H115899   3.962   7.643   6.987
 5219WAT     H215900   3.962   7.536   6.864
 5220WAT      O15901   6.382   0.462   0.129
 5220WAT     H115902   6.410   0.374   0.090
 5220WAT     H215903   6.332   0.447   0.214
 5221WAT      O15904   7.101   9.036   6.828
 5221WAT     H115905   7.125   9.080   6.742
 5221WAT     H215906   7.002   9.047   6.844
 5222WAT      O15907   0.623   2.464   0.946
 5222WAT     H115908   0.702   2.445   1.004
 5222WAT     H215909   0.552   2.509   1.001
 5223WAT      O15910   2.859   6.216   6.666
 5223WAT     H115911   2.914   6.300   6.661
 5223WAT     H215912   2.904   6.151   6.727
 5224WAT      O15913   6.767   3.059   1.345
 5224WAT     H115914   6.793   3.031   1.252
 5224WAT     H215915   6.798   2.990   1.410
 5225WAT      O15916   1.066   7.501   7.210
 5225WAT     H115917   1.135   7.541   7.149
 5225WAT     H215918   0.975   7.531   7.181
 5226WAT      O15919   8.037   5.159   2.186
 5226WAT     H115920   8.058   5.217   2.108
 5226WAT     H215921   8.018   5.066   2.155
 5227WAT      O15922   2.440   8.335   5.066
 5227WAT     H115923   2.487   8.265   5.121
 5227WAT     H215924   2.448   8.311   4.969
 5228WAT      O15925   1.301   6.628   5.502
 5228WAT     H115926   1.336   6.535   5.519
 5228WAT     H215927   1.211   6.638   5.544
 5229WAT      O15928   7.811   8.656   3.882
 5229WAT     H115929   7.908   8.674   3.898
 5229WAT     H215930   7.796   8.632   3.786
 5230WAT      O15931   2.865   6.664   1.462
 5230WAT     H115932   2.914   6.738   1.417
 5230WAT     H215933   2.907   6.576   1.437
 5231WAT      O15934   6.595   1.064   9.888
 5231WAT     H115935   6.615   1.141   9.827
 5231WAT     H215936   6.531   1.093   9.959
 5232WAT      O15937   4.973   8.398   4.478
 5232WAT     H115938   4.974   8.394   4.578
 5232WAT     H215939   5.067   8.402   4.443
 5233WAT      O15940   0.013   1.056   3.305
 5233WAT     H115941   0.105   1.089   3.284
 5233WAT     H215942   0.020   0.973   3.360
 5234WAT      O15943   8.403   9.168   0.832
 5234WAT     H115944   8.316   9.213   0.812
 5234WAT     H215945   8.477   9.235   0.829
 5235WAT      O15946   3.302   5.886   9.594
 5235WAT     H115947   3.311   5.787   9.583
 5235WAT     H215948   3.330   5.912   9.686
 5236WAT      O15949   4.211   4.278   4.344
 5236WAT     H115950   4.288   4.337   4.322
 5236WAT     H215951   4.243   4.183   4.348
 5237WAT      O15952   3.963   8.701   7.266
 5237WAT     H115953   3.970   8.800   7.260
 5237WAT     H215954   3.945   8.674   7.361
 5238WAT      O15955   6.125   9.732   1.745
 5238WAT     H115956   6.074   9.648   1.762
 5238WAT     H215957   6.069   9.795   1.691
 5239WAT      O15958   8.736   5.574   2.196
 5239WAT     H115959   8.680   5.655   2.213
 5239WAT     H215960   8.823   5.583   2.246
 5240WAT      O15961   2.315   7.753   7.093
 5240WAT     H115962   2.303   7.699   7.010
 5240WAT     H215963   2.273   7.706   7.170
 5241WAT      O15964   1.968   4.717   6.977
 5241WAT     H115965   1.928   4.800   6.938
 5241WAT     H215966   1.919   4.637   6.942
 5242WAT      O15967   8.916   4.043   2.053
 5242WAT     H115968   8.909   4.112   1.981
 5242WAT     H215969   9.004   3.995   2.044
 5243WAT      O15970   3.778   8.107   5.728
 5243WAT     H115971   3.821   8.187   5.687
 5243WAT     H215972   3.730   8.055   5.657
 5244WAT      O15973   3.840   7.719   7.834
 5244WAT     H115974   3.881   7.643   7.784
 5244WAT     H215975   3.744   7.698   7.854
 5245WAT      O15976   1.859   9.659   7.116
 5245WAT     H115977   1.945   9.657   7.066
 5245WAT     H215978   1.787   9.615   7.062
 5246WAT      O15979   5.317   2.538   7.401
 5246WAT     H115980   5.281   2.445   7.402
 5246WAT     H215981   5.272   2.592   7.472
 5247WAT      O15982   2.597   5.298   3.830
 5247WAT     H115983   2.692   5.326   3.837
 5247WAT     H215984   2.575   5.278   3.734
 5248WAT      O15985   8.310   0.505   1.874
 5248WAT     H115986   8.399   0.537   1.842
 5248WAT     H215987   8.301   0.407   1.855
 5249WAT      O15988   5.513   3.963   1.115
 5249WAT     H115989   5.471   4.045   1.154
 5249WAT     H215990   5.442   3.909   1.069
 5250WAT      O15991   8.257   8.611   9.355
 5250WAT     H115992   8.208   8.666   9.423
 5250WAT     H215993   8.355   8.622   9.368
 5251WAT      O15994   9.653   0.279   6.571
 5251WAT     H115995   9.683   0.269   6.477
 5251WAT     H215996   9.555   0.260   6.577
 5252WAT      O15997   5.100   9.629   4.659
 5252WAT     H115998   5.188   9.609   4.617
 5252WAT     H215999   5.114   9.680   4.744
 5253WAT      O16000   4.559   9.126   0.747
 5253WAT     H116001   4.551   9.205   0.807
 5253WAT     H216002   4.617   9.150   0.669
 5254WAT      O16003   2.342   9.317   9.757
 5254WAT     H116004   2.366   9.367   9.841
 5254WAT     H216005   2.253   9.349   9.724
 5255WAT      O16006   5.308   5.132   2.096
 5255WAT     H116007   5.215   5.149   2.062
 5255WAT     H216008   5.372   5.191   2.047
 5256WAT      O16009   4.889   7.717   0.338
 5256WAT     H116010   4.876   7.809   0.373
 5256WAT     H216011   4.802   7.680   0.307
 5257WAT      O16012   9.462   4.284   6.807
 5257WAT     H116013   9.550   4.313   6.845
 5257WAT     H216014   9.390   4.297   6.875
 5258WAT      O16015   4.675   1.336   7.421
 5258WAT     H116016   4.718   1.263   7.368
 5258WAT     H216017   4.744   1.385   7.474
 5259WAT      O16018   3.175   5.204   0.332
 5259WAT     H116019   3.094   5.198   0.390
 5259WAT     H216020   3.253   5.236   0.386
 5260WAT      O16021   4.486   9.677   5.113
 5260WAT     H116022   4.570   9.728   5.129
 5260WAT     H216023   4.433   9.673   5.198
 5261WAT      O16024   2.882   1.099   1.432
 5261WAT     H116025   2.828   1.027   1.388
 5261WAT     H216026   2.834   1.131   1.514
 5262WAT      O16027   2.963   9.109   8.408
 5262WAT     H116028   3.042   9.086   8.352
 5262WAT     H216029   2.888   9.045   8.388
 5263WAT      O16030   3.201   3.615   6.943
 5263WAT     H116031   3.246   3.534   6.982
 5263WAT     H216032   3.257   3.696   6.961
 5264WAT      O16033   5.360   4.084   7.636
 5264WAT     H116034   5.297   4.045   7.569
 5264WAT     H216035   5.454   4.072   7.604
 5265WAT      O16036   5.496   2.777   2.674
 5265WAT     H116037   5.493   2.822   2.585
 5265WAT     H216038   5.560   2.701   2.671
 5266WAT      O16039   3.980   9.213   4.021
 5266WAT     H116040   3.987   9.163   4.108
 5266WAT     H216041   4.037   9.168   3.952
 5267WAT      O16042   8.053   6.714   3.760
 5267WAT     H116043   8.106   6.788   3.718
 5267WAT     H216044   7.979   6.687   3.699
 5268WAT      O16045   1.182   7.564   4.962
 5268WAT     H116046   1.144   7.581   4.871
 5268WAT     H216047   1.242   7.484   4.959
 5269WAT      O16048   7.274   6.796   0.021
 5269WAT     H116049   7.231   6.707   0.003
 5269WAT     H216050   7.373   6.784   0.031
 5270WAT      O16051   0.814   7.735   0.693
 5270WAT     H116052   0.891   7.797   0.673
 5270WAT     H216053   0.847   7.659   0.749
 5271WAT      O16054   0.873   9.204   3.037
 5271WAT     H116055   0.925   9.222   2.954
 5271WAT     H216056   0.924   9.238   3.116
 5272WAT      O16057   7.860   1.781   3.814
 5272WAT     H116058   7.959   1.775   3.798
 5272WAT     H216059   7.830   1.700   3.863
 5273WAT      O16060   8.504   0.399   8.701
 5273WAT     H116061   8.460   0.485   8.728
 5273WAT     H216062   8.485   0.329   8.770
 5274WAT      O16063   1.167   6.542   3.109
 5274WAT     H116064   1.228   6.478   3.062
 5274WAT     H216065   1.219   6.621   3.140
 5275WAT      O16066   1.212   8.483   1.015
 5275WAT     H116067   1.117   8.464   0.990
 5275WAT     H216068   1.220   8.578   1.045
 5276WAT      O16069   5.703   2.979   0.779
 5276WAT     H116070   5.725   2.894   0.827
 5276WAT     H216071   5.698   2.961   0.681
 5277WAT      O16072   1.338   1.792   2.869
 5277WAT     H116073   1.308   1.786   2.774
 5277WAT     H216074   1.412   1.727   2.885
 5278WAT      O16075   4.142   8.135   9.523
 5278WAT     H116076   4.169   8.082   9.442
 5278WAT     H216077   4.080   8.080   9.579
 5279WAT      O16078   0.495   2.928   6.302
 5279WAT     H116079   0.474   2.831   6.288
 5279WAT     H216080   0.527   2.968   6.217
 5280WAT      O16081   1.026   5.023   6.687
 5280WAT     H116082   0.934   5.011   6.725
 5280WAT     H216083   1.085   5.067   6.755
 5281WAT      O16084   3.665   7.303   3.340
 5281WAT     H116085   3.744   7.347   3.298
 5281WAT     H216086   3.615   7.251   3.270
 5282WAT      O16087   3.781   4.134   5.697
 5282WAT     H116088   3.857   4.188   5.661
 5282WAT     H216089   3.817   4.054   5.745
 5283WAT      O16090   7.513   8.722   4.646
 5283WAT     H116091   7.488   8.781   4.569
 5283WAT     H216092   7.447   8.648   4.654
 5284WAT      O16093   5.514   8.127   9.262
 5284WAT     H116094   5.609   8.150   9.240
 5284WAT     H216095   5.506   8.028   9.273
 5285WAT      O16096   4.794   1.882   4.559
 5285WAT     H116097   4.747   1.825   4.492
 5285WAT     H216098   4.850   1.950   4.511
 5286WAT      O16099   3.668   9.060   0.289
 5286WAT     H116100   3.605   8.997   0.335
 5286WAT     H216101   3.653   9.153   0.323
 5287WAT      O16102   8.388   9.536   5.223
 5287WAT     H116103   8.399   9.611   5.289
 5287WAT     H216104   8.414   9.450   5.265
 5288WAT      O16105   6.780   8.552   2.392
 5288WAT     H116106   6.734   8.536   2.479
 5288WAT     H216107   6.729   8.509   2.318
 5289WAT      O16108   6.022   5.951   4.633
 5289WAT     H116109   6.070   6.015   4.693
 5289WAT     H216110   5.925   5.949   4.656
 5290WAT      O16111   7.789   0.709   7.848
 5290WAT     H116112   7.809   0.616   7.879
 5290WAT     H216113   7.805   0.716   7.750
 5291WAT      O16114   4.365   7.989   0.448
 5291WAT     H116115   4.383   8.064   0.512
 5291WAT     H216116   4.407   7.905   0.481
 5292WAT      O16117   0.648   1.964   2.241
 5292WAT     H116118   0.552   1.937   2.256
 5292WAT     H216119   0.704   1.928   2.316
 5293WAT      O16120   7.075   1.964   8.597
 5293WAT     H116121   7.147   1.903   8.563
 5293WAT     H216122   7.049   1.936   8.689
 5294WAT      O16123   3.842   2.454   4.162
 5294WAT     H116124   3.806   2.374   4.114
 5294WAT     H216125   3.941   2.444   4.174
 5295WAT      O16126   2.184   5.136   2.967
 5295WAT     H116127   2.151   5.042   2.960
 5295WAT     H216128   2.272   5.137   3.014
 5296WAT      O16129   2.797   1.140   2.965
 5296WAT     H116130   2.893   1.165   2.977
 5296WAT     H216131   2.783   1.101   2.875
 5297WAT      O16132   6.968   6.736   2.159
 5297WAT     H116133   6.999   6.823   2.120
 5297WAT     H216134   7.027   6.710   2.235
 5298WAT      O16135   0.398   2.032   6.014
 5298WAT     H116136   0.301   2.021   5.994
 5298WAT     H216137   0.451   1.961   5.968
 5299WAT      O16138   6.275   5.479   9.442
 5299WAT     H116139   6.298   5.410   9.511
 5299WAT     H216140   6.190   5.453   9.397
 5300WAT      O16141   4.804   0.398   0.952
 5300WAT     H116142   4.786   0.450   1.035
 5300WAT     H216143   4.901   0.404   0.929
 5301WAT      O16144   9.300   1.291   5.123
 5301WAT     H116145   9.254   1.364   5.174
 5301WAT     H216146   9.387   1.269   5.166
 5302WAT      O16147   2.641   9.291   9.115
 5302WAT     H116148   2.584   9.215   9.083
 5302WAT     H216149   2.648   9.360   9.043
 5303WAT      O16150   2.649   9.531   0.551
 5303WAT     H116151   2.725   9.576   0.504
 5303WAT     H216152   2.565   9.582   0.534
 5304WAT      O16153   3.653   5.601   0.808
 5304WAT     H116154   3.574   5.639   0.856
 5304WAT     H216155   3.708   5.547   0.871
 5305WAT      O16156   6.395   3.232   0.583
 5305WAT     H116157   6.466   3.165   0.562
 5305WAT     H216158   6.394   3.303   0.512
 5306WAT      O16159   0.056   0.297   0.535
 5306WAT     H116160   0.144   0.267   0.572
 5306WAT     H216161  -0.017   0.268   0.597
 5307WAT      O16162   5.484   5.760   3.239
 5307WAT     H116163   5.566   5.739   3.186
 5307WAT     H216164   5.416   5.689   3.223
 5308WAT      O16165   1.756   9.441   3.237
 5308WAT     H116166   1.727   9.443   3.141
 5308WAT     H216167   1.689   9.489   3.293
 5309WAT      O16168   0.772   7.335   7.513
 5309WAT     H116169   0.750   7.432   7.503
 5309WAT     H216170   0.740   7.285   7.432
 5310WAT      O16171   5.881   6.045   7.293
 5310WAT     H116172   5.957   5.984   7.313
 5310WAT     H216173   5.829   6.063   7.376
 5311WAT      O16174   0.552   6.331   5.353
 5311WAT     H116175   0.648   6.306   5.367
 5311WAT     H216176   0.546   6.430   5.338
 5312WAT      O16177   9.115   1.716   6.034
 5312WAT     H116178   9.190   1.728   5.969
 5312WAT     H216179   9.060   1.800   6.036
 5313WAT      O16180   9.549   4.538   7.627
 5313WAT     H116181   9.484   4.463   7.612
 5313WAT     H216182   9.593   4.526   7.716
 5314WAT      O16183   1.283   0.762   9.212
 5314WAT     H116184   1.337   0.840   9.179
 5314WAT     H216185   1.307   0.744   9.308
 5315WAT      O16186   9.346   0.398   3.298
 5315WAT     H116187   9.382   0.389   3.391
 5315WAT     H216188   9.399   0.467   3.248
 5316WAT      O16189   0.902   8.254   2.869
 5316WAT     H116190   0.823   8.195   2.854
 5316WAT     H216191   0.912   8.317   2.792
 5317WAT      O16192   6.980   5.302   3.977
 5317WAT     H116193   7.003   5.316   3.881
 5317WAT     H216194   7.062   5.275   4.027
 5318WAT      O16195   1.935   6.544   4.637
 5318WAT     H116196   1.938   6.447   4.613
 5318WAT     H216197   1.890   6.555   4.726
 5319WAT      O16198   6.951   6.507   7.635
 5319WAT     H116199   7.028   6.568   7.615
 5319WAT     H216200   6.974   6.449   7.714
 5320WAT      O16201   6.159   3.371   5.460
 5320WAT     H116202   6.098   3.450   5.473
 5320WAT     H216203   6.222   3.390   5.385
 5321WAT      O16204   3.358   1.957   0.403
 5321WAT     H116205   3.327   2.046   0.371
 5321WAT     H216206   3.315   1.885   0.349
 5322WAT      O16207   7.929   7.510   2.110
 5322WAT     H116208   7.890   7.422   2.083
 5322WAT     H216209   7.948   7.564   2.029
 5323WAT      O16210   5.904   2.109   8.973
 5323WAT     H116211   5.805   2.113   8.981
 5323WAT     H216212   5.942   2.053   9.047
 5324WAT      O16213   1.822   9.239   3.446
 5324WAT     H116214   1.795   9.259   3.352
 5324WAT     H216215   1.749   9.267   3.509
 5325WAT      O16216   9.576   9.428   7.027
 5325WAT     H116217   9.558   9.484   7.108
 5325WAT     H216218   9.594   9.334   7.055
 5326WAT      O16219   7.136   7.448   3.950
 5326WAT     H116220   7.078   7.509   3.896
 5326WAT     H216221   7.217   7.498   3.981
 5327WAT      O16222   4.949   0.981   9.676
 5327WAT     H116223   4.859   0.970   9.635
 5327WAT     H216224   4.965   1.078   9.696
 5328WAT      O16225   7.594   1.206   1.052
 5328WAT     H116226   7.649   1.194   1.134
 5328WAT     H216227   7.580   1.118   1.007
 5329WAT      O16228   3.420   5.250   0.460
 5329WAT     H116229   3.487   5.297   0.518
 5329WAT     H216230   3.466   5.178   0.409
 5330WAT      O16231   0.327   5.977   6.527
 5330WAT     H116232   0.331   6.059   6.585
 5330WAT     H216233   0.268   5.909   6.570
 5331WAT      O16234   6.599   8.246   5.254
 5331WAT     H116235   6.597   8.268   5.156
 5331WAT     H216236   6.512   8.204   5.280
 5332WAT      O16237   5.670   6.159   1.160
 5332WAT     H116238   5.760   6.148   1.202
 5332WAT     H216239   5.647   6.077   1.108
 5333WAT      O16240   7.974   0.954   1.724
 5333WAT     H116241   7.933   0.971   1.814
 5333WAT     H216242   8.021   0.866   1.726
 5334WAT      O16243   6.651   2.148   7.259
 5334WAT     H116244   6.636   2.196   7.345
 5334WAT     H216245   6.593   2.189   7.188
 5335WAT      O16246   7.315   8.174   8.012
 5335WAT     H116247   7.273   8.100   7.960
 5335WAT     H216248   7.327   8.254   7.954
 5336WAT      O16249   7.708   1.362   6.692
 5336WAT     H116250   7.799   1.391   6.723
 5336WAT     H216251   7.687   1.273   6.732
 5337WAT      O16252   3.004   6.369   8.338
 5337WAT     H116253   3.036   6.430   8.266
 5337WAT     H216254   3.070   6.294   8.350
 5338WAT      O16255   6.439   6.789   4.372
 5338WAT     H116256   6.341   6.785   4.392
 5338WAT     H216257   6.466   6.883   4.353
 5339WAT      O16258   3.202   6.832   6.804
 5339WAT     H116259   3.131   6.803   6.868
 5339WAT     H216260   3.198   6.775   6.722
 5340WAT      O16261   1.065   3.252   7.919
 5340WAT     H116262   1.024   3.202   7.995
 5340WAT     H216263   1.072   3.349   7.944
 5341WAT      O16264   3.614   2.980   7.096
 5341WAT     H116265   3.631   2.908   7.163
 5341WAT     H216266   3.616   2.941   7.004
 5342WAT      O16267   4.385   8.656   3.012
 5342WAT     H116268   4.321   8.601   3.065
 5342WAT     H216269   4.476   8.616   3.017
 5343WAT      O16270   7.847   5.639   4.850
 5343WAT     H116271   7.852   5.585   4.767
 5343WAT     H216272   7.905   5.598   4.920
 5344WAT      O16273   6.084   9.118   2.775
 5344WAT     H116274   6.143   9.194   2.746
 5344WAT     H216275   6.141   9.044   2.810
 5345WAT      O16276   7.240   4.919   0.601
 5345WAT     H116277   7.216   4.922   0.698
 5345WAT     H216278   7.323   4.864   0.588
 5346WAT      O16279   5.371   6.164   3.890
 5346WAT     H116280   5.281   6.123   3.873
 5346WAT     H216281   5.418   6.178   3.803
 5347WAT      O16282   9.653   1.307   4.816
 5347WAT     H116283   9.731   1.329   4.757
 5347WAT     H216284   9.686   1.265   4.901
 5348WAT      O16285   0.688   0.818   3.250
 5348WAT     H116286   0.688   0.857   3.158
 5348WAT     H216287   0.732   0.881   3.314
 5349WAT      O16288   6.813   4.708   6.407
 5349WAT     H116289   6.803   4.794   6.457
 5349WAT     H216290   6.736   4.697   6.344
 5350WAT      O16291   2.486   4.322   2.620
 5350WAT     H116292   2.417   4.322   2.693
 5350WAT     H216293   2.443   4.295   2.534
 5351WAT      O16294   1.273   6.480   5.808
 5351WAT     H116295   1.303   6.535   5.730
 5351WAT     H216296   1.273   6.536   5.891
 5352WAT      O16297   6.109   7.692   0.147
 5352WAT     H116298   6.128   7.781   0.188
 5352WAT     H216299   6.058   7.704   0.062
 5353WAT      O16300   8.703   6.748   6.924
 5353WAT     H116301   8.746   6.704   6.845
 5353WAT     H216302   8.757   6.730   7.006
 5354WAT      O16303   9.823   3.951   0.300
 5354WAT     H116304   9.734   3.981   0.265
 5354WAT     H216305   9.838   3.856   0.275
 5355WAT      O16306   5.565   7.741   8.286
 5355WAT     H116307   5.625   7.685   8.343
 5355WAT     H216308   5.618   7.781   8.212
 5356WAT      O16309   5.808   2.253   7.668
 5356WAT     H116310   5.777   2.159   7.683
 5356WAT     H216311   5.824   2.297   7.756
 5357WAT      O16312   8.555   7.976   1.844
 5357WAT     H116313   8.572   7.887   1.886
 5357WAT     H216314   8.621   7.991   1.770
 5358WAT      O16315   6.532   8.277   7.831
 5358WAT     H116316   6.570   8.327   7.909
 5358WAT     H216317   6.602   8.217   7.793
 5359WAT      O16318   8.234   9.300   9.509
 5359WAT     H116319   8.149   9.254   9.484
 5359WAT     H216320   8.269   9.350   9.430
 5360WAT      O16321   6.536   4.489   5.181
 5360WAT     H116322   6.532   4.392   5.156
 5360WAT     H216323   6.630   4.522   5.170
 5361WAT      O16324   7.837   6.187   2.674
 5361WAT     H116325   7.870   6.146   2.759
 5361WAT     H216326   7.752   6.237   2.692
 5362WAT      O16327   4.598   5.565   9.173
 5362WAT     H116328   4.536   5.541   9.099
 5362WAT     H216329   4.547   5.615   9.244
 5363WAT      O16330   1.578   0.732   3.401
 5363WAT     H116331   1.521   0.665   3.354
 5363WAT     H216332   1.649   0.684   3.452
 5364WAT      O16333   4.659   6.336   7.050
 5364WAT     H116334   4.619   6.249   7.019
 5364WAT     H216335   4.609   6.368   7.131
 5365WAT      O16336   3.848   8.242   7.038
 5365WAT     H116337   3.926   8.203   6.988
 5365WAT     H216338   3.772   8.257   6.974
 5366WAT      O16339   8.214   9.792   7.903
 5366WAT     H116340   8.300   9.799   7.953
 5366WAT     H216341   8.138   9.823   7.961
 5367WAT      O16342   6.110   5.724   9.487
 5367WAT     H116343   6.166   5.651   9.448
 5367WAT     H216344   6.159   5.811   9.480
 5368WAT      O16345   6.489   9.622   9.546
 5368WAT     H116346   6.396   9.596   9.572
 5368WAT     H216347   6.488   9.711   9.502
 5369WAT      O16348   8.455   1.695   5.649
 5369WAT     H116349   8.482   1.680   5.554
 5369WAT     H216350   8.535   1.725   5.701
 5370WAT      O16351   2.468   1.109   2.600
 5370WAT     H116352   2.434   1.162   2.523
 5370WAT     H216353   2.447   1.156   2.685
 5371WAT      O16354   3.662   2.705   6.514
 5371WAT     H116355   3.674   2.804   6.518
 5371WAT     H216356   3.741   2.665   6.468
 5372WAT      O16357   7.982   0.006   2.426
 5372WAT     H116358   7.957   0.102   2.419
 5372WAT     H216359   7.906  -0.052   2.396
 5373WAT      O16360   0.735   8.207   9.693
 5373WAT     H116361   0.790   8.127   9.718
 5373WAT     H216362   0.791   8.289   9.702
 5374WAT      O16363   6.401   2.244   8.420
 5374WAT     H116364   6.381   2.148   8.400
 5374WAT     H216365   6.357   2.302   8.352
 5375WAT      O16366   3.447   9.726   5.295
 5375WAT     H116367   3.412   9.771   5.213
 5375WAT     H216368   3.451   9.627   5.279
 5376WAT      O16369   4.888   4.277   8.370
 5376WAT     H116370   4.973   4.289   8.319
 5376WAT     H216371   4.865   4.179   8.374
 5377WAT      O16372   0.004   1.133   8.828
 5377WAT     H116373   0.025   1.036   8.832
 5377WAT     H216374   0.018   1.174   8.918
 5378WAT      O16375   2.023   2.221   3.438
 5378WAT     H116376   2.018   2.310   3.392
 5378WAT     H216377   2.116   2.206   3.470
 5379WAT      O16378   4.098   6.027   9.094
 5379WAT     H116379   4.087   6.119   9.056
 5379WAT     H216380   4.194   5.999   9.088
 5380WAT      O16381   8.766   6.765   3.463
 5380WAT     H116382   8.832   6.798   3.395
 5380WAT     H216383   8.677   6.753   3.419
 5381WAT      O16384   0.183   5.779   8.345
 5381WAT     H116385   0.193   5.848   8.417
 5381WAT     H216386   0.123   5.815   8.273
 5382WAT      O16387   8.830   7.604   3.242
 5382WAT     H116388   8.819   7.505   3.235
 5382WAT     H216389   8.804   7.635   3.334
 5383WAT      O16390   5.482   7.896   7.661
 5383WAT     H116391   5.559   7.926   7.604
 5383WAT     H216392   5.509   7.817   7.715
 5384WAT      O16393   9.392   6.870   2.802
 5384WAT     H116394   9.464   6.928   2.766
 5384WAT     H216395   9.303   6.913   2.786
 5385WAT      O16396   1.240   0.563   0.134
 5385WAT     H116397   1.260   0.471   0.101
 5385WAT     H216398   1.245   0.564   0.234
 5386WAT      O16399   7.118   8.790   7.793
 5386WAT     H116400   7.166   8.726   7.853
 5386WAT     H216401   7.166   8.878   7.794
 5387WAT      O16402   0.313   6.479   9.861
 5387WAT     H116403   0.280   6.392   9.899
 5387WAT     H216404   0.409   6.470   9.836
 5388WAT      O16405   7.997   5.775   6.618
 5388WAT     H116406   8.018   5.800   6.524
 5388WAT     H216407   7.903   5.801   6.640
 5389WAT      O16408   1.041   7.812   0.085
 5389WAT     H116409   1.100   7.749   0.034
 5389WAT     H216410   1.092   7.848   0.163
 5390WAT      O16411   6.789   7.566   0.058
 5390WAT     H116412   6.773   7.656   0.097
 5390WAT     H216413   6.884   7.539   0.075
 5391WAT      O16414   5.894   3.362   8.750
 5391WAT     H116415   5.857   3.272   8.725
 5391WAT     H216416   5.944   3.400   8.671
 5392WAT      O16417   9.523   1.587   9.346
 5392WAT     H116418   9.562   1.632   9.426
 5392WAT     H216419   9.583   1.601   9.267
 5393WAT      O16420   1.114   8.756   4.650
 5393WAT     H116421   1.038   8.820   4.660
 5393WAT     H216422   1.141   8.723   4.741
 5394WAT      O16423   6.260   5.327   6.940
 5394WAT     H116424   6.358   5.312   6.956
 5394WAT     H216425   6.239   5.308   6.844
 5395WAT      O16426   0.601   6.071   1.696
 5395WAT     H116427   0.608   6.161   1.652
 5395WAT     H216428   0.543   6.011   1.640
 5396WAT      O16429   0.031   3.187   3.223
 5396WAT     H116430  -0.012   3.258   3.167
 5396WAT     H216431   0.127   3.210   3.238
 5397WAT      O16432   9.588   8.752   3.979
 5397WAT     H116433   9.672   8.717   3.938
 5397WAT     H216434   9.511   8.734   3.919
 5398WAT      O16435   6.434   1.987   5.575
 5398WAT     H116436   6.454   2.064   5.636
 5398WAT     H216437   6.455   1.901   5.623
 5399WAT      O16438   1.860   7.349   9.136
 5399WAT     H116439   1.762   7.334   9.145
 5399WAT     H216440   1.909   7.297   9.206
 5400WAT      O16441   7.951   4.778   7.850
 5400WAT     H116442   7.900   4.700   7.812
 5400WAT     H216443   7.889   4.855   7.861
 5401WAT      O16444   9.698   8.431   8.709
 5401WAT     H116445   9.694   8.500   8.781
 5401WAT     H216446   9.794   8.416   8.683
 5402WAT      O16447   7.577   2.025   0.414
 5402WAT     H116448   7.519   1.999   0.492
 5402WAT     H216449   7.572   2.124   0.401
 5403WAT      O16450   7.469   6.422   3.780
 5403WAT     H116451   7.500   6.498   3.722
 5403WAT     H216452   7.377   6.440   3.812
 5404WAT      O16453   9.287   1.562   4.918
 5404WAT     H116454   9.273   1.660   4.902
 5404WAT     H216455   9.209   1.511   4.880
 5405WAT      O16456   2.221   8.740   8.700
 5405WAT     H116457   2.179   8.825   8.667
 5405WAT     H216458   2.220   8.739   8.800
 5406WAT      O16459   0.335   0.405   8.951
 5406WAT     H116460   0.239   0.377   8.954
 5406WAT     H216461   0.387   0.356   9.022
 5407WAT      O16462   8.241   9.602   1.614
 5407WAT     H116463   8.222   9.504   1.625
 5407WAT     H216464   8.170   9.643   1.558
 5408WAT      O16465   4.869   6.279   0.365
 5408WAT     H116466   4.845   6.319   0.277
 5408WAT     H216467   4.801   6.304   0.434
 5409WAT      O16468   8.943   5.398   6.231
 5409WAT     H116469   8.956   5.342   6.313
 5409WAT     H216470   8.969   5.493   6.252
 5410WAT      O16471   5.152   7.996   6.648
 5410WAT     H116472   5.232   7.950   6.609
 5410WAT     H216473   5.073   7.935   6.644
 5411WAT      O16474   7.582   3.310   0.637
 5411WAT     H116475   7.567   3.365   0.720
 5411WAT     H216476   7.627   3.366   0.568
 5412WAT      O16477   4.696   7.407   1.255
 5412WAT     H116478   4.635   7.408   1.335
 5412WAT     H216479   4.658   7.464   1.183
 5413WAT      O16480   4.042   3.629   6.766
 5413WAT     H116481   4.060   3.727   6.764
 5413WAT     H216482   4.069   3.588   6.679
 5414WAT      O16483   7.715   5.421   1.409
 5414WAT     H116484   7.802   5.463   1.385
 5414WAT     H216485   7.702   5.425   1.509
 5415WAT      O16486   0.942   2.964   1.626
 5415WAT     H116487   0.931   3.042   1.688
 5415WAT     H216488   0.875   2.971   1.552
 5416WAT      O16489   0.062   4.536   6.968
 5416WAT     H116490   0.024   4.481   7.042
 5416WAT     H216491   0.109   4.476   6.904
 5417WAT      O16492   1.625   5.296   0.390
 5417WAT     H116493   1.584   5.381   0.359
 5417WAT     H216494   1.694   5.266   0.323
 5418WAT      O16495   7.267   4.298   4.383
 5418WAT     H116496   7.189   4.358   4.402
 5418WAT     H216497   7.240   4.203   4.392
 5419WAT      O16498   1.282   2.205   2.632
 5419WAT     H116499   1.248   2.215   2.538
 5419WAT     H216500   1.339   2.284   2.655
 5420WAT      O16501   0.327   2.346   2.729
 5420WAT     H116502   0.423   2.368   2.749
 5420WAT     H216503   0.273   2.352   2.812
 5421WAT      O16504   9.372   2.776   2.748
 5421WAT     H116505   9.389   2.819   2.659
 5421WAT     H216506   9.273   2.763   2.760
 5422WAT      O16507   0.845   7.321   6.446
 5422WAT     H116508   0.821   7.418   6.448
 5422WAT     H216509   0.944   7.312   6.432
 5423WAT      O16510   7.449   4.376   2.941
 5423WAT     H116511   7.513   4.422   3.003
 5423WAT     H216512   7.418   4.441   2.872
 5424WAT      O16513   1.313   7.594   6.840
 5424WAT     H116514   1.276   7.520   6.783
 5424WAT     H216515   1.240   7.633   6.896
 5425WAT      O16516   8.926   0.024   5.081
 5425WAT     H116517   9.009   0.013   5.027
 5425WAT     H216518   8.896   0.120   5.078
 5426WAT      O16519   8.575   4.726   4.685
 5426WAT     H116520   8.665   4.736   4.643
 5426WAT     H216521   8.527   4.813   4.681
 5427WAT      O16522   1.331   2.771   1.753
 5427WAT     H116523   1.321   2.795   1.850
 5427WAT     H216524   1.315   2.852   1.697
 5428WAT      O16525   7.896   7.557   0.366
 5428WAT     H116526   7.894   7.656   0.378
 5428WAT     H216527   7.923   7.535   0.272
 5429WAT      O16528   9.332   9.668   5.203
 5429WAT     H116529   9.298   9.662   5.297
 5429WAT     H216530   9.389   9.750   5.194
 5430WAT      O16531   6.711   2.840   7.667
 5430WAT     H116532   6.671   2.866   7.579
 5430WAT     H216533   6.804   2.878   7.674
 5431WAT      O16534   1.940   6.651   6.351
 5431WAT     H116535   1.919   6.565   6.305
 5431WAT     H216536   2.000   6.707   6.294
 5432WAT      O16537   7.756   6.034   8.808
 5432WAT     H116538   7.842   6.084   8.818
 5432WAT     H216539   7.685   6.095   8.775
 5433WAT      O16540   2.679   8.974   9.195
 5433WAT     H116541   2.675   9.039   9.270
 5433WAT     H216542   2.614   8.900   9.211
 5434WAT      O16543   0.436   1.742   9.464
 5434WAT     H116544   0.470   1.764   9.556
 5434WAT     H216545   0.480   1.659   9.431
 5435WAT      O16546   6.661   8.382   0.892
 5435WAT     H116547   6.716   8.347   0.968
 5435WAT     H216548   6.587   8.318   0.873
 5436WAT      O16549   0.027   2.042   4.478
 5436WAT     H116550   0.037   2.085   4.388
 5436WAT     H216551   0.063   1.949   4.475
 5437WAT      O16552   7.393   6.625   4.022
 5437WAT     H116553   7.475   6.654   3.974
 5437WAT     H216554   7.339   6.706   4.046
 5438WAT      O16555   1.160   8.069   1.111
 5438WAT     H116556   1.112   8.155   1.126
 5438WAT     H216557   1.219   8.077   1.031
 5439WAT      O16558   7.000   6.279   4.721
 5439WAT     H116559   7.053   6.246   4.799
 5439WAT     H216560   7.039   6.242   4.636
 5440WAT      O16561   0.967   0.683   8.618
 5440WAT     H116562   1.050   0.631   8.639
 5440WAT     H216563   0.926   0.716   8.703
 5441WAT      O16564   0.244   6.511   9.148
 5441WAT     H116565   0.147   6.487   9.139
 5441WAT     H216566   0.290   6.441   9.203
 5442WAT      O16567   2.437   2.088   3.888
 5442WAT     H116568   2.356   2.060   3.939
 5442WAT     H216569   2.436   2.188   3.876
 5443WAT      O16570   8.571   1.432   1.852
 5443WAT     H116571   8.575   1.345   1.803
 5443WAT     H216572   8.529   1.501   1.793
 5444WAT      O16573   5.944   6.108   1.224
 5444WAT     H116574   5.950   6.008   1.231
 5444WAT     H216575   6.019   6.150   1.275
 5445WAT      O16576   4.764   3.014   8.156
 5445WAT     H116577   4.798   2.952   8.085
 5445WAT     H216578   4.778   3.109   8.126
 5446WAT      O16579   1.347   3.885   1.039
 5446WAT     H116580   1.317   3.820   0.970
 5446WAT     H216581   1.418   3.944   1.000
 5447WAT      O16582   7.366   7.634   4.923
 5447WAT     H116583   7.282   7.688   4.919
 5447WAT     H216584   7.359   7.557   4.859
 5448WAT      O16585   5.380   3.681   5.285
 5448WAT     H116586   5.410   3.717   5.373
 5448WAT     H216587   5.459   3.654   5.231
 5449WAT      O16588   4.071   5.588   7.233
 5449WAT     H116589   4.139   5.583   7.160
 5449WAT     H216590   4.076   5.676   7.278
 5450WAT      O16591   6.302   8.650   4.012
 5450WAT     H116592   6.223   8.705   3.984
 5450WAT     H216593   6.375   8.659   3.944
 5451WAT      O16594   8.064   5.859   6.372
 5451WAT     H116595   8.144   5.799   6.368
 5451WAT     H216596   8.053   5.904   6.284
 5452WAT      O16597   9.611   2.905   3.875
 5452WAT     H116598   9.673   2.860   3.939
 5452WAT     H216599   9.519   2.908   3.914
 5453WAT      O16600   1.292   6.310   0.279
 5453WAT     H116601   1.383   6.269   0.280
 5453WAT     H216602   1.230   6.251   0.227
 5454WAT      O16603   2.338   8.231   5.951
 5454WAT     H116604   2.338   8.204   6.047
 5454WAT     H216605   2.393   8.314   5.940
 5455WAT      O16606   1.630   8.747   3.320
 5455WAT     H116607   1.579   8.665   3.347
 5455WAT     H216608   1.570   8.827   3.325
 5456WAT      O16609   5.765   1.992   3.587
 5456WAT     H116610   5.786   2.035   3.499
 5456WAT     H216611   5.691   2.042   3.632
 5457WAT      O16612   1.388   5.125   9.499
 5457WAT     H116613   1.375   5.107   9.401
 5457WAT     H216614   1.445   5.053   9.538
 5458WAT      O16615   4.472   6.058   8.362
 5458WAT     H116616   4.521   6.036   8.446
 5458WAT     H216617   4.379   6.088   8.384
 5459WAT      O16618   5.663   1.944   1.078
 5459WAT     H116619   5.623   1.854   1.096
 5459WAT     H216620   5.731   1.937   1.005
 5460WAT      O16621   9.521   6.923   9.613
 5460WAT     H116622   9.554   6.967   9.530
 5460WAT     H216623   9.577   6.953   9.691
 5461WAT      O16624   1.446   2.056   5.123
 5461WAT     H116625   1.502   1.979   5.153
 5461WAT     H216626   1.498   2.112   5.058
 5462WAT      O16627   5.489   1.941   5.228
 5462WAT     H116628   5.392   1.925   5.206
 5462WAT     H216629   5.496   2.003   5.306
 5463WAT      O16630   3.620   5.066   4.792
 5463WAT     H116631   3.612   5.136   4.863
 5463WAT     H216632   3.704   5.081   4.739
 5464WAT      O16633   6.290   1.850   4.658
 5464WAT     H116634   6.376   1.862   4.707
 5464WAT     H216635   6.249   1.939   4.639
 5465WAT      O16636   8.954   8.532   2.544
 5465WAT     H116637   8.913   8.474   2.614
 5465WAT     H216638   8.882   8.581   2.495
 5466WAT      O16639   7.796   6.939   5.449
 5466WAT     H116640   7.749   6.916   5.534
 5466WAT     H216641   7.797   7.038   5.437
 5467WAT      O16642   9.878   5.832   4.340
 5467WAT     H116643   9.898   5.745   4.386
 5467WAT     H216644   9.781   5.838   4.319
 5468WAT      O16645   0.481   4.686   3.823
 5468WAT     H116646   0.436   4.597   3.820
 5468WAT     H216647   0.439   4.748   3.757
 5469WAT      O16648   6.479   5.039   4.337
 5469WAT     H116649   6.546   5.107   4.307
 5469WAT     H216650   6.440   4.994   4.257
 5470WAT      O16651   7.506   0.978   3.389
 5470WAT     H116652   7.406   0.974   3.382
 5470WAT     H216653   7.535   1.072   3.410
 5471WAT      O16654   9.166   7.462   0.732
 5471WAT     H116655   9.231   7.412   0.675
 5471WAT     H216656   9.214   7.532   0.785
 5472WAT      O16657   5.705   3.391   3.300
 5472WAT     H116658   5.617   3.438   3.288
 5472WAT     H216659   5.748   3.422   3.385
 5473WAT      O16660   6.606   9.215   0.776
 5473WAT     H116661   6.644   9.304   0.751
 5473WAT     H216662   6.681   9.150   0.790
 5474WAT      O16663   4.766   9.238   2.795
 5474WAT     H116664   4.832   9.176   2.836
 5474WAT     H216665   4.773   9.234   2.696
 5475WAT      O16666   7.871   5.949   4.799
 5475WAT     H116667   7.847   5.857   4.830
 5475WAT     H216668   7.849   5.958   4.702
 5476WAT      O16669   2.250   4.821   5.051
 5476WAT     H116670   2.337   4.785   5.083
 5476WAT     H216671   2.193   4.745   5.018
 5477WAT      O16672   0.193   5.104   2.377
 5477WAT     H116673   0.107   5.057   2.391
 5477WAT     H216674   0.176   5.194   2.336
 5478WAT      O16675   0.242   9.180   6.458
 5478WAT     H116676   0.325   9.194   6.404
 5478WAT     H216677   0.162   9.198   6.401
 5479WAT      O16678   0.585   2.320   4.087
 5479WAT     H116679   0.578   2.273   4.175
 5479WAT     H216680   0.670   2.372   4.084
 5480WAT      O16681   0.957   3.396   8.226
 5480WAT     H116682   0.928   3.458   8.299
 5480WAT     H216683   0.935   3.436   8.137
 5481WAT      O16684   0.530   0.345   2.673
 5481WAT     H116685   0.510   0.439   2.647
 5481WAT     H216686   0.585   0.345   2.757
 5482WAT      O16687   7.337   2.407   7.201
 5482WAT     H116688   7.328   2.457   7.115
 5482WAT     H216689   7.311   2.467   7.277
 5483WAT      O16690   3.048   5.647   3.513
 5483WAT     H116691   3.089   5.645   3.421
 5483WAT     H216692   3.091   5.719   3.567
 5484WAT      O16693   0.630   0.907   7.032
 5484WAT     H116694   0.584   0.978   6.978
 5484WAT     H216695   0.577   0.822   7.026
 5485WAT      O16696   8.536   9.458   4.308
 5485WAT     H116697   8.493   9.538   4.266
 5485WAT     H216698   8.636   9.467   4.302
 5486WAT      O16699   4.687   6.225   8.944
 5486WAT     H116700   4.658   6.299   9.005
 5486WAT     H216701   4.787   6.226   8.936
 5487WAT      O16702   8.654   9.604   6.426
 5487WAT     H116703   8.652   9.696   6.387
 5487WAT     H216704   8.749   9.579   6.447
 5488WAT      O16705   4.002   4.581   1.355
 5488WAT     H116706   4.078   4.645   1.345
 5488WAT     H216707   3.979   4.570   1.451
 5489WAT      O16708   5.515   4.414   0.969
 5489WAT     H116709   5.485   4.350   1.040
 5489WAT     H216710   5.449   4.413   0.894
 5490WAT      O16711   9.530   4.257   0.383
 5490WAT     H116712   9.442   4.258   0.429
 5490WAT     H216713   9.552   4.350   0.352
 5491WAT      O16714   0.970   0.516   6.785
 5491WAT     H116715   1.054   0.511   6.731
 5491WAT     H216716   0.902   0.572   6.737
 5492WAT      O16717   0.141   3.632   0.894
 5492WAT     H116718   0.233   3.667   0.877
 5492WAT     H216719   0.078   3.709   0.908
 5493WAT      O16720   2.597   7.106   0.016
 5493WAT     H116721   2.623   7.160  -0.065
 5493WAT     H216722   2.504   7.129   0.043
 5494WAT      O16723   0.366   2.838   5.553
 5494WAT     H116724   0.304   2.897   5.604
 5494WAT     H216725   0.415   2.891   5.485
 5495WAT      O16726   4.134   3.605   8.843
 5495WAT     H116727   4.046   3.562   8.866
 5495WAT     H216728   4.168   3.567   8.757
 5496WAT      O16729   3.969   1.597   8.385
 5496WAT     H116730   3.939   1.653   8.308
 5496WAT     H216731   3.896   1.591   8.452
 5497WAT      O16732   3.598   4.787   5.449
 5497WAT     H116733   3.566   4.713   5.389
 5497WAT     H216734   3.698   4.795   5.441
 5498WAT      O16735   5.169   0.719   5.771
 5498WAT     H116736   5.122   0.705   5.684
 5498WAT     H216737   5.120   0.669   5.843
 5499WAT      O16738   8.758   9.691   4.681
 5499WAT     H116739   8.664   9.689   4.647
 5499WAT     H216740   8.811   9.620   4.635
 5500WAT      O16741   5.230   0.517   2.997
 5500WAT     H116742   5.300   0.583   3.024
 5500WAT     H216743   5.264   0.424   3.012
 5501WAT      O16744   3.427   2.594   7.192
 5501WAT     H116745   3.413   2.636   7.282
 5501WAT     H216746   3.524   2.573   7.179
 5502WAT      O16747   2.906   3.026   5.779
 5502WAT     H116748   2.810   3.008   5.761
 5502WAT     H216749   2.915   3.110   5.833
 5503WAT      O16750   7.606   9.341   2.531
 5503WAT     H116751   7.545   9.310   2.458
 5503WAT     H216752   7.681   9.275   2.541
 5504WAT      O16753   4.181   7.203   0.012
 5504WAT     H116754   4.155   7.255   0.094
 5504WAT     H216755   4.211   7.111   0.040
 5505WAT      O16756   9.378   0.170   9.211
 5505WAT     H116757   9.366   0.230   9.132
 5505WAT     H216758   9.430   0.089   9.183
 5506WAT      O16759   4.956   2.638   4.921
 5506WAT     H116760   4.864   2.605   4.941
 5506WAT     H216761   5.022   2.593   4.982
 5507WAT      O16762   3.954   3.395   9.783
 5507WAT     H116763   4.010   3.317   9.812
 5507WAT     H216764   3.946   3.395   9.683
 5508WAT      O16765   1.823   3.741   4.629
 5508WAT     H116766   1.868   3.687   4.558
 5508WAT     H216767   1.865   3.721   4.718
 5509WAT      O16768   3.761   1.822   7.336
 5509WAT     H116769   3.745   1.724   7.345
 5509WAT     H216770   3.859   1.840   7.329
 5510WAT      O16771   0.177   9.793   5.080
 5510WAT     H116772   0.154   9.699   5.053
 5510WAT     H216773   0.273   9.812   5.056
 5511WAT      O16774   4.746   6.631   9.585
 5511WAT     H116775   4.774   6.716   9.631
 5511WAT     H216776   4.716   6.653   9.492
 5512WAT      O16777   0.438   6.118   2.791
 5512WAT     H116778   0.415   6.094   2.697
 5512WAT     H216779   0.537   6.113   2.804
 5513WAT      O16780   7.975   2.391   0.241
 5513WAT     H116781   7.930   2.399   0.152
 5513WAT     H216782   7.988   2.483   0.280
 5514WAT      O16783   2.757   3.578   2.256
 5514WAT     H116784   2.714   3.578   2.166
 5514WAT     H216785   2.854   3.553   2.247
 5515WAT      O16786   6.238   3.511   2.634
 5515WAT     H116787   6.209   3.587   2.692
 5515WAT     H216788   6.163   3.486   2.572
 5516WAT      O16789   1.364   1.370   6.623
 5516WAT     H116790   1.410   1.416   6.698
 5516WAT     H216791   1.408   1.394   6.536
 5517WAT      O16792   0.408   0.014   3.298
 5517WAT     H116793   0.439   0.101   3.337
 5517WAT     H216794   0.417   0.017   3.199
 5518WAT      O16795   8.570   7.137   9.756
 5518WAT     H116796   8.524   7.062   9.804
 5518WAT     H216797   8.666   7.142   9.785
 5519WAT      O16798   6.121   3.705   2.784
 5519WAT     H116799   6.111   3.805   2.782
 5519WAT     H216800   6.033   3.663   2.807
 5520WAT      O16801   4.694   8.069   7.775
 5520WAT     H116802   4.659   8.054   7.682
 5520WAT     H216803   4.732   7.984   7.810
 5521WAT      O16804   7.718   3.548   1.979
 5521WAT     H116805   7.656   3.497   2.039
 5521WAT     H216806   7.705   3.517   1.885
 5522WAT      O16807   2.565   8.911   2.468
 5522WAT     H116808   2.503   8.856   2.523
 5522WAT     H216809   2.512   8.970   2.407
 5523WAT      O16810   1.245   2.435   7.522
 5523WAT     H116811   1.228   2.384   7.437
 5523WAT     H216812   1.338   2.416   7.555
 5524WAT      O16813   0.068   6.590   5.642
 5524WAT     H116814   0.021   6.524   5.584
 5524WAT     H216815   0.006   6.664   5.666
 5525WAT      O16816   7.937   8.709   5.907
 5525WAT     H116817   7.885   8.778   5.858
 5525WAT     H216818   7.908   8.704   6.002
 5526WAT      O16819   2.082   5.376   7.586
 5526WAT     H116820   2.177   5.353   7.566
 5526WAT     H216821   2.042   5.304   7.643
 5527WAT      O16822   8.744   8.665   5.710
 5527WAT     H116823   8.649   8.632   5.715
 5527WAT     H216824   8.746   8.762   5.734
 5528WAT      O16825   9.871   0.658   8.451
 5528WAT     H116826   9.790   0.704   8.489
 5528WAT     H216827   9.943   0.725   8.436
 5529WAT      O16828   4.172   3.801   5.978
 5529WAT     H116829   4.143   3.732   5.913
 5529WAT     H216830   4.269   3.822   5.964
 5530WAT      O16831   5.756   9.767   1.178
 5530WAT     H116832   5.678   9.705   1.188
 5530WAT     H216833   5.791   9.793   1.268
 5531WAT      O16834   3.532   4.712   0.966
 5531WAT     H116835   3.531   4.797   0.913
 5531WAT     H216836   3.611   4.711   1.028
 5532WAT      O16837   7.390   7.663   5.782
 5532WAT     H116838   7.413   7.744   5.728
 5532WAT     H216839   7.381   7.689   5.878
 5533WAT      O16840   0.607   7.594   3.609
 5533WAT     H116841   0.621   7.637   3.520
 5533WAT     H216842   0.695   7.569   3.648
 5534WAT      O16843   5.536   0.315   4.019
 5534WAT     H116844   5.635   0.322   4.034
 5534WAT     H216845   5.512   0.364   3.935
 5535WAT      O16846   6.248   6.937   9.255
 5535WAT     H116847   6.177   6.888   9.205
 5535WAT     H216848   6.215   6.958   9.347
 5536WAT      O16849   1.768   1.032   3.705
 5536WAT     H116850   1.735   1.029   3.799
 5536WAT     H216851   1.836   0.959   3.691
 5537WAT      O16852   2.179   3.771   4.271
 5537WAT     H116853   2.228   3.787   4.185
 5537WAT     H216854   2.081   3.782   4.255
 5538WAT      O16855   1.436   6.445   9.525
 5538WAT     H116856   1.456   6.524   9.468
 5538WAT     H216857   1.412   6.475   9.618
 5539WAT      O16858   2.522   8.646   7.555
 5539WAT     H116859   2.577   8.710   7.609
 5539WAT     H216860   2.434   8.689   7.534
 5540WAT      O16861   3.696   5.727   6.437
 5540WAT     H116862   3.631   5.702   6.365
 5540WAT     H216863   3.732   5.644   6.480
 5541WAT      O16864   3.899   9.124   9.572
 5541WAT     H116865   3.854   9.037   9.592
 5541WAT     H216866   3.844   9.174   9.504
 5542WAT      O16867   7.449   6.872   7.137
 5542WAT     H116868   7.531   6.865   7.194
 5542WAT     H216869   7.460   6.945   7.070
 5543WAT      O16870   7.476   5.196   3.885
 5543WAT     H116871   7.435   5.146   3.962
 5543WAT     H216872   7.419   5.276   3.864
 5544WAT      O16873   6.517   7.593   7.835
 5544WAT     H116874   6.467   7.506   7.837
 5544WAT     H216875   6.612   7.578   7.861
 5545WAT      O16876   2.470   4.147   4.784
 5545WAT     H116877   2.443   4.149   4.687
 5545WAT     H216878   2.395   4.184   4.840
 5546WAT      O16879   9.524   7.602   1.802
 5546WAT     H116880   9.611   7.619   1.848
 5546WAT     H216881   9.469   7.686   1.801
 5547WAT      O16882   5.642   7.462   8.973
 5547WAT     H116883   5.613   7.515   8.893
 5547WAT     H216884   5.575   7.472   9.046
 5548WAT      O16885   8.751   1.171   7.015
 5548WAT     H116886   8.790   1.262   6.999
 5548WAT     H216887   8.728   1.161   7.112
 5549WAT      O16888   8.466   6.037   2.137
 5549WAT     H116889   8.464   6.080   2.047
 5549WAT     H216890   8.394   6.076   2.195
 5550WAT      O16891   6.060   7.429   2.953
 5550WAT     H116892   5.982   7.394   3.004
 5550WAT     H216893   6.139   7.437   3.013
 5551WAT      O16894   5.610   7.424   0.219
 5551WAT     H116895   5.709   7.428   0.231
 5551WAT     H216896   5.574   7.517   0.208
 5552WAT      O16897   9.409   7.073   0.969
 5552WAT     H116898   9.345   7.150   0.975
 5552WAT     H216899   9.453   7.060   1.058
 5553WAT      O16900   8.624   6.493   8.040
 5553WAT     H116901   8.571   6.565   7.995
 5553WAT     H216902   8.573   6.459   8.119
 5554WAT      O16903   0.294   7.641   6.849
 5554WAT     H116904   0.380   7.644   6.798
 5554WAT     H216905   0.235   7.571   6.809
 5555WAT      O16906   5.403   5.264   9.219
 5555WAT     H116907   5.409   5.242   9.316
 5555WAT     H216908   5.312   5.239   9.185
 5556WAT      O16909   9.620   0.759   3.776
 5556WAT     H116910   9.575   0.687   3.829
 5556WAT     H216911   9.697   0.796   3.828
 5557WAT      O16912   3.386   6.741   0.838
 5557WAT     H116913   3.419   6.672   0.904
 5557WAT     H216914   3.451   6.747   0.762
 5558WAT      O16915   1.210   3.470   1.635
 5558WAT     H116916   1.155   3.426   1.705
 5558WAT     H216917   1.296   3.503   1.676
 5559WAT      O16918   7.466   0.046   7.320
 5559WAT     H116919   7.554   0.051   7.367
 5559WAT     H216920   7.482   0.025   7.223
 5560WAT      O16921   2.294   7.323   6.206
 5560WAT     H116922   2.361   7.284   6.269
 5560WAT     H216923   2.315   7.419   6.191
 5561WAT      O16924   5.735   2.007   4.696
 5561WAT     H116925   5.686   1.957   4.767
 5561WAT     H216926   5.817   2.048   4.735
 5562WAT      O16927   8.165   4.281   9.261
 5562WAT     H116928   8.184   4.299   9.165
 5562WAT     H216929   8.189   4.361   9.316
 5563WAT      O16930   3.185   1.711   8.734
 5563WAT     H116931   3.249   1.787   8.724
 5563WAT     H216932   3.124   1.729   8.811
 5564WAT      O16933   1.290   2.585   1.067
 5564WAT     H116934   1.364   2.581   1.134
 5564WAT     H216935   1.328   2.590   0.975
 5565WAT      O16936   6.209   9.149   0.011
 5565WAT     H116937   6.223   9.248   0.004
 5565WAT     H216938   6.275   9.101  -0.046
 5566WAT      O16939   9.121   8.963   6.247
 5566WAT     H116940   9.198   8.931   6.192
 5566WAT     H216941   9.057   9.013   6.189
 5567WAT      O16942   3.319   2.132   3.409
 5567WAT     H116943   3.371   2.205   3.454
 5567WAT     H216944   3.256   2.172   3.343
 5568WAT      O16945   6.716   1.849   2.420
 5568WAT     H116946   6.811   1.857   2.388
 5568WAT     H216947   6.673   1.770   2.378
 5569WAT      O16948   5.450   8.837   5.911
 5569WAT     H116949   5.400   8.876   5.834
 5569WAT     H216950   5.497   8.754   5.882
 5570WAT      O16951   4.880   5.285   0.721
 5570WAT     H116952   4.855   5.272   0.817
 5570WAT     H216953   4.978   5.268   0.710
 5571WAT      O16954   8.436   0.947   0.727
 5571WAT     H116955   8.527   0.971   0.760
 5571WAT     H216956   8.415   0.853   0.752
 5572WAT      O16957   0.618   9.818   0.935
 5572WAT     H116958   0.618   9.740   0.873
 5572WAT     H216959   0.646   9.900   0.885
 5573WAT      O16960   9.708   2.043   8.456
 5573WAT     H116961   9.640   2.046   8.529
 5573WAT     H216962   9.757   1.956   8.459
 5574WAT      O16963   3.885   7.622   5.553
 5574WAT     H116964   3.899   7.543   5.612
 5574WAT     H216965   3.948   7.695   5.580
 5575WAT      O16966   6.041   5.040   1.723
 5575WAT     H116967   6.110   4.968   1.719
 5575WAT     H216968   6.023   5.065   1.818
 5576WAT      O16969   3.097   0.921   1.005
 5576WAT     H116970   3.078   0.865   0.924
 5576WAT     H216971   3.108   0.862   1.084
 5577WAT      O16972   9.075   6.372   5.845
 5577WAT     H116973   9.048   6.448   5.905
 5577WAT     H216974   8.993   6.325   5.812
 5578WAT      O16975   6.878   2.036   0.340
 5578WAT     H116976   6.863   1.981   0.258
 5578WAT     H216977   6.919   1.980   0.412
 5579WAT      O16978   1.795   3.011   2.849
 5579WAT     H116979   1.819   2.924   2.892
 5579WAT     H216980   1.872   3.043   2.793
 5580WAT      O16981   3.499   0.359   2.573
 5580WAT     H116982   3.450   0.396   2.495
 5580WAT     H216983   3.433   0.327   2.642
 5581WAT      O16984   4.589   4.223   4.251
 5581WAT     H116985   4.548   4.155   4.311
 5581WAT     H216986   4.655   4.179   4.190
 5582WAT      O16987   5.850   1.764   7.466
 5582WAT     H116988   5.922   1.787   7.531
 5582WAT     H216989   5.855   1.667   7.444
 5583WAT      O16990   1.815   6.886   7.096
 5583WAT     H116991   1.800   6.945   7.017
 5583WAT     H216992   1.850   6.941   7.172
 5584WAT      O16993   3.809   6.051   0.694
 5584WAT     H116994   3.814   5.952   0.680
 5584WAT     H216995   3.893   6.094   0.660
 5585WAT      O16996   6.400   7.404   1.211
 5585WAT     H116997   6.452   7.477   1.167
 5585WAT     H216998   6.396   7.420   1.309
 5586WAT      O16999   5.543   8.953   6.964
 5586WAT     H117000   5.538   8.868   6.911
 5586WAT     H217001   5.584   9.025   6.909
 5587WAT      O17002   3.452   0.221   8.416
 5587WAT     H117003   3.361   0.261   8.427
 5587WAT     H217004   3.455   0.166   8.333
 5588WAT      O17005   0.611   2.889   1.215
 5588WAT     H117006   0.522   2.924   1.243
 5588WAT     H217007   0.631   2.919   1.122
 5589WAT      O17008   7.795   0.897   1.090
 5589WAT     H117009   7.811   0.831   1.163
 5589WAT     H217010   7.880   0.947   1.071
 5590WAT      O17011   5.232   2.295   4.212
 5590WAT     H117012   5.279   2.251   4.135
 5590WAT     H217013   5.218   2.229   4.285
 5591WAT      O17014   4.990   4.135   7.495
 5591WAT     H117015   5.052   4.212   7.479
 5591WAT     H217016   4.919   4.135   7.424
 5592WAT      O17017   2.408   8.290   4.390
 5592WAT     H117018   2.470   8.367   4.368
 5592WAT     H217019   2.365   8.258   4.306
 5593WAT      O17020   1.934   8.497   7.605
 5593WAT     H117021   2.006   8.429   7.622
 5593WAT     H217022   1.975   8.586   7.587
 5594WAT      O17023   6.049   3.184   5.191
 5594WAT     H117024   6.118   3.128   5.238
 5594WAT     H217025   5.959   3.145   5.206
 5595WAT      O17026   4.137   5.683   7.662
 5595WAT     H117027   4.100   5.615   7.725
 5595WAT     H217028   4.237   5.677   7.661
 5596WAT      O17029   9.483   4.907   1.414
 5596WAT     H117030   9.570   4.955   1.402
 5596WAT     H217031   9.480   4.866   1.506
 5597WAT      O17032   3.262   9.421   5.862
 5597WAT     H117033   3.207   9.444   5.781
 5597WAT     H217034   3.359   9.426   5.838
 5598WAT      O17035   1.414   7.105   3.621
 5598WAT     H117036   1.438   7.141   3.530
 5598WAT     H217037   1.331   7.050   3.615
 5599WAT      O17038   2.693   1.525   3.227
 5599WAT     H117039   2.641   1.440   3.239
 5599WAT     H217040   2.733   1.552   3.314
 5600WAT      O17041   0.638   9.673   1.801
 5600WAT     H117042   0.598   9.591   1.843
 5600WAT     H217043   0.611   9.753   1.854
 5601WAT      O17044   6.653   0.883   7.069
 5601WAT     H117045   6.690   0.956   7.012
 5601WAT     H217046   6.620   0.921   7.155
 5602WAT      O17047   1.894   4.237   1.018
 5602WAT     H117048   1.803   4.206   1.048
 5602WAT     H217049   1.964   4.196   1.075
 5603WAT      O17050   0.302   7.871   3.843
 5603WAT     H117051   0.234   7.918   3.786
 5603WAT     H217052   0.265   7.784   3.874
 5604WAT      O17053   2.959   6.892   0.103
 5604WAT     H117054   2.881   6.886   0.165
 5604WAT     H217055   2.941   6.961   0.033
 5605WAT      O17056   9.385   4.386   8.547
 5605WAT     H117057   9.345   4.294   8.546
 5605WAT     H217058   9.315   4.453   8.523
 5606WAT      O17059   3.549   9.279   4.846
 5606WAT     H117060   3.505   9.205   4.896
 5606WAT     H217061   3.482   9.324   4.787
 5607WAT      O17062   9.859   7.901   5.306
 5607WAT     H117063   9.894   7.814   5.339
 5607WAT     H217064   9.932   7.970   5.308
 5608WAT      O17065   5.290   6.497   2.240
 5608WAT     H117066   5.213   6.492   2.302
 5608WAT     H217067   5.337   6.408   2.238
 5609WAT      O17068   0.741   6.714   8.818
 5609WAT     H117069   0.790   6.776   8.757
 5609WAT     H217070   0.696   6.643   8.765
 5610WAT      O17071   1.333   0.516   4.212
 5610WAT     H117072   1.432   0.509   4.220
 5610WAT     H217073   1.290   0.446   4.269
 5611WAT      O17074   0.189   9.241   7.381
 5611WAT     H117075   0.241   9.326   7.395
 5611WAT     H217076   0.247   9.163   7.404
 5612WAT      O17077   6.042   4.013   7.320
 5612WAT     H117078   6.080   3.943   7.259
 5612WAT     H217079   6.033   4.099   7.269
 5613WAT      O17080   6.806   4.089   2.503
 5613WAT     H117081   6.725   4.062   2.451
 5613WAT     H217082   6.862   4.008   2.521
 5614WAT      O17083   4.907   0.105   6.473
 5614WAT     H117084   4.812   0.128   6.454
 5614WAT     H217085   4.958   0.188   6.494
 5615WAT      O17086   1.298   7.019   6.007
 5615WAT     H117087   1.251   7.106   6.016
 5615WAT     H217088   1.327   7.006   5.912
 5616WAT      O17089   9.080   4.813   5.796
 5616WAT     H117090   9.022   4.881   5.840
 5616WAT     H217091   9.152   4.784   5.859
 5617WAT      O17092   7.958   9.496   8.525
 5617WAT     H117093   7.901   9.439   8.467
 5617WAT     H217094   8.050   9.456   8.532
 5618WAT      O17095   5.727   5.250   2.331
 5618WAT     H117096   5.748   5.314   2.405
 5618WAT     H217097   5.799   5.180   2.326
 5619WAT      O17098   2.783   2.053   4.660
 5619WAT     H117099   2.716   2.094   4.722
 5619WAT     H217100   2.803   2.116   4.586
 5620WAT      O17101   9.535   0.747   2.775
 5620WAT     H117102   9.534   0.651   2.748
 5620WAT     H217103   9.595   0.759   2.854
 5621WAT      O17104   4.200   5.683   2.905
 5621WAT     H117105   4.200   5.768   2.852
 5621WAT     H217106   4.112   5.671   2.951
 5622WAT      O17107   4.000   8.168   7.403
 5622WAT     H117108   4.034   8.259   7.426
 5622WAT     H217109   3.984   8.116   7.487
 5623WAT      O17110   9.770   2.329   9.533
 5623WAT     H117111   9.850   2.389   9.531
 5623WAT     H217112   9.770   2.275   9.617
 5624WAT      O17113   6.413   6.390   6.478
 5624WAT     H117114   6.402   6.294   6.503
 5624WAT     H217115   6.323   6.432   6.467
 5625WAT      O17116   5.225   7.729   3.107
 5625WAT     H117117   5.315   7.737   3.148
 5625WAT     H217118   5.167   7.805   3.137
 5626WAT      O17119   6.159   4.704   8.193
 5626WAT     H117120   6.188   4.796   8.219
 5626WAT     H217121   6.114   4.660   8.271
 5627WAT      O17122   6.931   7.180   7.109
 5627WAT     H117123   6.984   7.250   7.155
 5627WAT     H217124   6.980   7.093   7.113
 5628WAT      O17125   9.388   8.153   3.551
 5628WAT     H117126   9.477   8.112   3.574
 5628WAT     H217127   9.322   8.080   3.534
 5629WAT      O17128   2.081   4.847   4.716
 5629WAT     H117129   2.009   4.893   4.768
 5629WAT     H217130   2.084   4.883   4.623
 5630WAT      O17131   8.437   4.310   9.648
 5630WAT     H117132   8.401   4.252   9.575
 5630WAT     H217133   8.489   4.254   9.713
 5631WAT      O17134   1.268   9.689   8.987
 5631WAT     H117135   1.215   9.695   9.072
 5631WAT     H217136   1.208   9.710   8.909
 5632WAT      O17137   6.733   1.601   5.256
 5632WAT     H117138   6.701   1.593   5.350
 5632WAT     H217139   6.722   1.513   5.209
 5633WAT      O17140   9.462   0.146   2.052
 5633WAT     H117141   9.482   0.151   2.150
 5633WAT     H217142   9.493   0.229   2.007
 5634WAT      O17143   6.495   5.967   5.286
 5634WAT     H117144   6.505   6.066   5.295
 5634WAT     H217145   6.398   5.944   5.289
 5635WAT      O17146   8.156   5.463   7.981
 5635WAT     H117147   8.077   5.410   8.010
 5635WAT     H217148   8.139   5.504   7.891
 5636WAT      O17149   3.965   8.197   8.988
 5636WAT     H117150   3.995   8.214   8.894
 5636WAT     H217151   4.001   8.268   9.048
 5637WAT      O17152   8.851   2.381   4.941
 5637WAT     H117153   8.804   2.379   5.028
 5637WAT     H217154   8.866   2.288   4.909
 5638WAT      O17155   6.536   0.573   8.581
 5638WAT     H117156   6.475   0.503   8.544
 5638WAT     H217157   6.595   0.608   8.508
 5639WAT      O17158   9.476   9.536   1.135
 5639WAT     H117159   9.552   9.478   1.107
 5639WAT     H217160   9.470   9.537   1.235
 5640WAT      O17161   3.799   2.176   8.880
 5640WAT     H117162   3.836   2.156   8.790
 5640WAT     H217163   3.712   2.224   8.871
 5641WAT      O17164   9.118   3.706   6.699
 5641WAT     H117165   9.025   3.685   6.727
 5641WAT     H217166   9.179   3.632   6.728
 5642WAT      O17167   8.382   4.395   1.930
 5642WAT     H117168   8.414   4.341   2.008
 5642WAT     H217169   8.324   4.470   1.963
 5643WAT      O17170   2.723   6.004   9.061
 5643WAT     H117171   2.716   5.993   8.962
 5643WAT     H217172   2.802   5.954   9.095
 5644WAT      O17173   6.213   7.495   2.424
 5644WAT     H117174   6.193   7.437   2.503
 5644WAT     H217175   6.192   7.446   2.340
 5645WAT      O17176   2.907   1.146   5.920
 5645WAT     H117177   2.915   1.198   5.835
 5645WAT     H217178   2.992   1.095   5.935
 5646WAT      O17179   1.205   7.695   9.602
 5646WAT     H117180   1.145   7.646   9.539
 5646WAT     H217181   1.271   7.748   9.550
 5647WAT      O17182   5.948   5.378   3.721
 5647WAT     H117183   5.958   5.472   3.753
 5647WAT     H217184   5.852   5.351   3.726
 5648WAT      O17185   8.891   3.670   8.710
 5648WAT     H117186   8.893   3.762   8.671
 5648WAT     H217187   8.980   3.648   8.748
 5649WAT      O17188   2.130   3.030   7.857
 5649WAT     H117189   2.101   3.077   7.940
 5649WAT     H217190   2.226   3.004   7.864
 5650WAT      O17191   0.460   5.842   8.156
 5650WAT     H117192   0.459   5.906   8.233
 5650WAT     H217193   0.479   5.750   8.190
 5651WAT      O17194   7.693   8.571   5.519
 5651WAT     H117195   7.762   8.544   5.452
 5651WAT     H217196   7.627   8.632   5.475
 5652WAT      O17197   4.534   8.651   7.442
 5652WAT     H117198   4.627   8.681   7.422
 5652WAT     H217199   4.470   8.723   7.417
 5653WAT      O17200   9.536   5.431   8.202
 5653WAT     H117201   9.557   5.355   8.264
 5653WAT     H217202   9.600   5.507   8.220
 5654WAT      O17203   7.198   5.318   0.386
 5654WAT     H117204   7.169   5.223   0.388
 5654WAT     H217205   7.152   5.366   0.312
 5655WAT      O17206   3.476   5.585   0.571
 5655WAT     H117207   3.530   5.544   0.643
 5655WAT     H217208   3.528   5.585   0.485
 5656WAT      O17209   4.511   5.032   5.056
 5656WAT     H117210   4.537   5.123   5.025
 5656WAT     H217211   4.434   5.039   5.119
 5657WAT      O17212   1.287   5.781   4.263
 5657WAT     H117213   1.381   5.806   4.239
 5657WAT     H217214   1.240   5.860   4.301
 5658WAT      O17215   4.474   1.136   8.370
 5658WAT     H117216   4.475   1.047   8.324
 5658WAT     H217217   4.386   1.179   8.356
 5659WAT      O17218   6.642   2.171   8.942
 5659WAT     H117219   6.687   2.127   8.864
 5659WAT     H217220   6.574   2.237   8.909
 5660WAT      O17221   2.585   5.466   7.785
 5660WAT     H117222   2.675   5.457   7.826
 5660WAT     H217223   2.594   5.502   7.692
 5661WAT      O17224   4.715   4.565   2.134
 5661WAT     H117225   4.787   4.619   2.179
 5661WAT     H217226   4.627   4.588   2.175
 5662WAT      O17227   5.017   8.419   1.430
 5662WAT     H117228   4.939   8.388   1.485
 5662WAT     H217229   5.016   8.372   1.342
 5663WAT      O17230   4.960   9.275   1.953
 5663WAT     H117231   4.941   9.310   1.861
 5663WAT     H217232   5.037   9.212   1.949
 5664WAT      O17233   2.492   1.096   5.213
 5664WAT     H117234   2.553   1.060   5.285
 5664WAT     H217235   2.507   1.045   5.129
 5665WAT      O17236   6.059   6.400   5.986
 5665WAT     H117237   6.036   6.435   6.077
 5665WAT     H217238   6.089   6.305   5.994
 5666WAT      O17239   8.800   7.218   6.549
 5666WAT     H117240   8.779   7.171   6.463
 5666WAT     H217241   8.727   7.200   6.615
 5667WAT      O17242   9.041   1.421   3.118
 5667WAT     H117243   9.075   1.511   3.090
 5667WAT     H217244   8.971   1.390   3.054
 5668WAT      O17245   4.432   8.460   7.942
 5668WAT     H117246   4.462   8.365   7.936
 5668WAT     H217247   4.509   8.521   7.923
 5669WAT      O17248   3.774   3.763   8.476
 5669WAT     H117249   3.874   3.762   8.475
 5669WAT     H217250   3.739   3.675   8.443
 5670WAT      O17251   8.031   8.211   8.938
 5670WAT     H117252   8.080   8.237   9.021
 5670WAT     H217253   8.070   8.260   8.859
 5671WAT      O17254   7.471   7.774   1.926
 5671WAT     H117255   7.500   7.706   1.994
 5671WAT     H217256   7.388   7.743   1.881
 5672WAT      O17257   0.274   0.893   0.664
 5672WAT     H117258   0.206   0.833   0.707
 5672WAT     H217259   0.233   0.937   0.585
 5673WAT      O17260   6.984   7.436   7.461
 5673WAT     H117261   6.917   7.366   7.484
 5673WAT     H217262   6.991   7.502   7.537
 5674WAT      O17263   7.730   5.803   6.686
 5674WAT     H117264   7.647   5.858   6.674
 5674WAT     H217265   7.705   5.710   6.711
 5675WAT      O17266   5.239   3.093   2.392
 5675WAT     H117267   5.229   2.995   2.413
 5675WAT     H217268   5.207   3.110   2.299
 5676WAT      O17269   9.226   5.572   8.632
 5676WAT     H117270   9.227   5.473   8.620
 5676WAT     H217271   9.143   5.610   8.590
 5677WAT      O17272   2.855   5.428   3.550
 5677WAT     H117273   2.906   5.504   3.510
 5677WAT     H217274   2.919   5.362   3.590
 5678WAT      O17275   0.867   9.280   1.977
 5678WAT     H117276   0.921   9.362   1.993
 5678WAT     H217277   0.926   9.209   1.939
 5679WAT      O17278   3.281   9.099   4.335
 5679WAT     H117279   3.349   9.109   4.262
 5679WAT     H217280   3.192   9.077   4.295
 5680WAT      O17281   6.943   2.577   3.669
 5680WAT     H117282   6.988   2.664   3.650
 5680WAT     H217283   7.012   2.504   3.671
 5681WAT      O17284   6.713   7.915   2.113
 5681WAT     H117285   6.686   7.898   2.207
 5681WAT     H217286   6.697   7.833   2.058
 5682WAT      O17287   1.751   5.623   3.028
 5682WAT     H117288   1.753   5.588   3.122
 5682WAT     H217289   1.772   5.721   3.028
 5683WAT      O17290   5.443   5.031   8.791
 5683WAT     H117291   5.467   4.975   8.711
 5683WAT     H217292   5.464   4.980   8.874
 5684WAT      O17293   0.078   3.901   1.423
 5684WAT     H117294  -0.014   3.913   1.460
 5684WAT     H217295   0.135   3.852   1.489
 5685WAT      O17296   8.537   2.682   1.967
 5685WAT     H117297   8.454   2.670   2.022
 5685WAT     H217298   8.610   2.625   2.004
 5686WAT      O17299   9.685   6.161   6.777
 5686WAT     H117300   9.612   6.098   6.749
 5686WAT     H217301   9.773   6.127   6.741
 5687WAT      O17302   8.992   2.110   8.308
 5687WAT     H117303   8.973   2.145   8.216
 5687WAT     H217304   8.980   2.183   8.375
 5688WAT      O17305   3.280   2.107   2.888
 5688WAT     H117306   3.348   2.111   2.961
 5688WAT     H217307   3.258   2.011   2.869
 5689WAT      O17308   6.842   1.827   4.078
 5689WAT     H117309   6.918   1.880   4.116
 5689WAT     H217310   6.874   1.736   4.053
 5690WAT      O17311   3.224   6.669   1.626
 5690WAT     H117312   3.197   6.657   1.530
 5690WAT     H217313   3.158   6.623   1.685
 5691WAT      O17314   4.063   5.760   1.720
 5691WAT     H117315   4.023   5.749   1.812
 5691WAT     H217316   4.029   5.844   1.679
 5692WAT      O17317   3.228   5.996   1.216
 5692WAT     H117318   3.214   5.905   1.256
 5692WAT     H217319   3.173   6.063   1.265
 5693WAT      O17320   4.880   3.775   9.819
 5693WAT     H117321   4.899   3.718   9.899
 5693WAT     H217322   4.929   3.739   9.739
 5694WAT      O17323   3.884   8.279   5.319
 5694WAT     H117324   3.882   8.179   5.322
 5694WAT     H217325   3.790   8.314   5.313
 5695WAT      O17326   5.310   1.688   6.769
 5695WAT     H117327   5.265   1.760   6.822
 5695WAT     H217328   5.401   1.720   6.741
 5696WAT      O17329   9.405   5.433   7.949
 5696WAT     H117330   9.453   5.453   8.034
 5696WAT     H217331   9.438   5.346   7.912
 5697WAT      O17332   1.137   8.144   2.371
 5697WAT     H117333   1.075   8.078   2.414
 5697WAT     H217334   1.099   8.236   2.381
 5698WAT      O17335   3.935   8.043   8.550
 5698WAT     H117336   3.989   8.010   8.473
 5698WAT     H217337   3.854   7.985   8.561
 5699WAT      O17338   1.501   6.180   0.774
 5699WAT     H117339   1.540   6.225   0.854
 5699WAT     H217340   1.571   6.170   0.703
 5700WAT      O17341   2.209   4.442   0.070
 5700WAT     H117342   2.292   4.449   0.013
 5700WAT     H217343   2.236   4.422   0.164
 5701WAT      O17344   5.179   9.232   2.941
 5701WAT     H117345   5.147   9.283   2.861
 5701WAT     H217346   5.276   9.213   2.931
 5702WAT      O17347   0.978   6.092   1.685
 5702WAT     H117348   1.052   6.137   1.634
 5702WAT     H217349   0.931   6.027   1.625
 5703WAT      O17350   9.664   0.562   9.480
 5703WAT     H117351   9.610   0.493   9.527
 5703WAT     H217352   9.673   0.538   9.383
 5704WAT      O17353   6.648   9.560   6.038
 5704WAT     H117354   6.641   9.603   6.128
 5704WAT     H217355   6.641   9.631   5.967
 5705WAT      O17356   8.472   8.362   7.507
 5705WAT     H117357   8.414   8.314   7.441
 5705WAT     H217358   8.564   8.322   7.505
 5706WAT      O17359   0.788   6.936   1.811
 5706WAT     H117360   0.775   6.866   1.880
 5706WAT     H217361   0.719   7.008   1.823
 5707WAT      O17362   3.203   7.962   8.967
 5707WAT     H117363   3.173   7.870   8.993
 5707WAT     H217364   3.132   8.006   8.913
 5708WAT      O17365   6.387   8.422   8.349
 5708WAT     H117366   6.390   8.368   8.433
 5708WAT     H217367   6.299   8.468   8.342
 5709WAT      O17368   4.304   7.938   4.752
 5709WAT     H117369   4.342   8.029   4.769
 5709WAT     H217370   4.335   7.904   4.663
 5710WAT      O17371   6.874   7.045   6.081
 5710WAT     H117372   6.943   7.068   6.013
 5710WAT     H217373   6.917   6.999   6.159
 5711WAT      O17374   5.229   0.794   5.350
 5711WAT     H117375   5.187   0.788   5.259
 5711WAT     H217376   5.179   0.861   5.405
 5712WAT      O17377   3.114   2.934   1.855
 5712WAT     H117378   3.096   2.964   1.948
 5712WAT     H217379   3.151   2.841   1.855
 5713WAT      O17380   4.998   8.614   0.904
 5713WAT     H117381   4.930   8.638   0.834
 5713WAT     H217382   4.994   8.516   0.923
 5714WAT      O17383   8.483   3.491   9.429
 5714WAT     H117384   8.472   3.574   9.483
 5714WAT     H217385   8.514   3.417   9.489
 5715WAT      O17386   8.704   2.409   8.054
 5715WAT     H117387   8.731   2.506   8.055
 5715WAT     H217388   8.698   2.376   8.148
 5716WAT      O17389   6.467   8.532   5.453
 5716WAT     H117390   6.487   8.567   5.361
 5716WAT     H217391   6.474   8.606   5.519
 5717WAT      O17392   8.602   3.923   0.971
 5717WAT     H117393   8.523   3.985   0.975
 5717WAT     H217394   8.663   3.943   1.048
 5718WAT      O17395   2.455   5.975   0.684
 5718WAT     H117396   2.444   6.040   0.760
 5718WAT     H217397   2.552   5.961   0.666
 5719WAT      O17398   9.651   9.565   6.411
 5719WAT     H117399   9.750   9.574   6.410
 5719WAT     H217400   9.624   9.488   6.352
 5720WAT      O17401   7.264   8.542   6.728
 5720WAT     H117402   7.235   8.638   6.729
 5720WAT     H217403   7.244   8.502   6.638
 5721WAT      O17404   2.522   6.653   4.494
 5721WAT     H117405   2.447   6.708   4.458
 5721WAT     H217406   2.498   6.619   4.585
 5722WAT      O17407   4.621   7.804   2.895
 5722WAT     H117408   4.675   7.725   2.867
 5722WAT     H217409   4.524   7.784   2.882
 5723WAT      O17410   1.171   4.562   8.082
 5723WAT     H117411   1.181   4.475   8.130
 5723WAT     H217412   1.255   4.616   8.091
 5724WAT      O17413   9.139   2.629   5.440
 5724WAT     H117414   9.057   2.580   5.409
 5724WAT     H217415   9.111   2.710   5.491
 5725WAT      O17416   2.046   3.887   2.706
 5725WAT     H117417   2.070   3.919   2.798
 5725WAT     H217418   1.968   3.940   2.672
 5726WAT      O17419   2.976   4.215   6.576
 5726WAT     H117420   3.036   4.180   6.503
 5726WAT     H217421   2.901   4.151   6.591
 5727WAT      O17422   7.953   5.725   7.100
 5727WAT     H117423   7.969   5.632   7.134
 5727WAT     H217424   7.879   5.767   7.152
 5728WAT      O17425   7.942   5.547   6.885
 5728WAT     H117426   7.942   5.615   6.958
 5728WAT     H217427   7.848   5.526   6.857
 5729WAT      O17428   2.862   6.022   4.301
 5729WAT     H117429   2.787   6.058   4.357
 5729WAT     H217430   2.899   6.095   4.244
 5730WAT      O17431   8.192   9.680   4.466
 5730WAT     H117432   8.173   9.583   4.463
 5730WAT     H217433   8.157   9.719   4.552
 5731WAT      O17434   9.323   3.343   5.362
 5731WAT     H117435   9.255   3.411   5.336
 5731WAT     H217436   9.414   3.374   5.335
 5732WAT      O17437   9.503   7.407   5.895
 5732WAT     H117438   9.444   7.474   5.940
 5732WAT     H217439   9.526   7.334   5.958
 5733WAT      O17440   9.827   5.230   8.128
 5733WAT     H117441   9.743   5.232   8.183
 5733WAT     H217442   9.870   5.321   8.130
 5734WAT      O17443   5.778   3.104   5.243
 5734WAT     H117444   5.727   3.122   5.327
 5734WAT     H217445   5.826   3.016   5.252
 5735WAT      O17446   5.480   5.083   1.186
 5735WAT     H117447   5.517   5.099   1.278
 5735WAT     H217448   5.426   4.999   1.186
 5736WAT      O17449   0.972   4.319   1.516
 5736WAT     H117450   0.964   4.328   1.615
 5736WAT     H217451   0.996   4.225   1.492
 5737WAT      O17452   7.409   2.940   8.481
 5737WAT     H117453   7.430   2.908   8.573
 5737WAT     H217454   7.488   2.922   8.421
 5738WAT      O17455   2.441   1.249   2.361
 5738WAT     H117456   2.509   1.176   2.363
 5738WAT     H217457   2.386   1.242   2.278
 5739WAT      O17458   1.532   7.078   0.780
 5739WAT     H117459   1.525   7.177   0.787
 5739WAT     H217460   1.623   7.053   0.748
 5740WAT      O17461   7.984   5.472   1.344
 5740WAT     H117462   8.049   5.416   1.395
 5740WAT     H217463   7.996   5.457   1.246
 5741WAT      O17464   1.258   0.113   7.878
 5741WAT     H117465   1.294   0.196   7.921
 5741WAT     H217466   1.167   0.132   7.841
 5742WAT      O17467   3.552   5.042   3.786
 5742WAT     H117468   3.509   5.048   3.695
 5742WAT     H217469   3.631   4.981   3.781
 5743WAT      O17470   5.179   6.539   7.523
 5743WAT     H117471   5.146   6.594   7.600
 5743WAT     H217472   5.257   6.585   7.481
 5744WAT      O17473   3.449   7.268   8.500
 5744WAT     H117474   3.469   7.181   8.456
 5744WAT     H217475   3.358   7.300   8.472
 5745WAT      O17476   1.244   1.945   4.124
 5745WAT     H117477   1.192   2.016   4.171
 5745WAT     H217478   1.217   1.855   4.160
 5746WAT      O17479   2.898   7.518   5.584
 5746WAT     H117480   2.843   7.505   5.666
 5746WAT     H217481   2.927   7.613   5.578
 5747WAT      O17482   4.069   9.153   4.738
 5747WAT     H117483   3.991   9.212   4.720
 5747WAT     H217484   4.098   9.164   4.833
 5748WAT      O17485   3.798   2.156   4.234
 5748WAT     H117486   3.895   2.166   4.256
 5748WAT     H217487   3.784   2.071   4.183
 5749WAT      O17488   0.021   5.499   6.323
 5749WAT     H117489  -0.016   5.548   6.245
 5749WAT     H217490  -0.054   5.461   6.377
 5750WAT      O17491   0.218   7.496   4.208
 5750WAT     H117492   0.206   7.539   4.118
 5750WAT     H217493   0.296   7.539   4.255
 5751WAT      O17494   5.891   9.462   0.718
 5751WAT     H117495   5.928   9.553   0.698
 5751WAT     H217496   5.792   9.462   0.704
 5752WAT      O17497   8.227   2.567   1.412
 5752WAT     H117498   8.295   2.507   1.453
 5752WAT     H217499   8.137   2.524   1.418
 5753WAT      O17500   0.605   2.643   1.299
 5753WAT     H117501   0.588   2.731   1.255
 5753WAT     H217502   0.683   2.652   1.361
 5754WAT      O17503   5.044   6.068   0.292
 5754WAT     H117504   4.959   6.117   0.313
 5754WAT     H217505   5.089   6.110   0.214
 5755WAT      O17506   0.897   9.460   7.704
 5755WAT     H117507   0.897   9.409   7.790
 5755WAT     H217508   0.988   9.457   7.663
 5756WAT      O17509   5.300   9.500   8.458
 5756WAT     H117510   5.302   9.446   8.374
 5756WAT     H217511   5.370   9.571   8.453
 5757WAT      O17512   3.374   5.549   1.412
 5757WAT     H117513   3.284   5.531   1.449
 5757WAT     H217514   3.444   5.534   1.482
 5758WAT      O17515   5.559   4.207   2.066
 5758WAT     H117516   5.486   4.227   2.131
 5758WAT     H217517   5.632   4.158   2.113
 5759WAT      O17518   2.379   9.129   3.517
 5759WAT     H117519   2.364   9.087   3.606
 5759WAT     H217520   2.303   9.106   3.456
 5760WAT      O17521   2.765   2.696   0.503
 5760WAT     H117522   2.768   2.692   0.603
 5760WAT     H217523   2.851   2.663   0.466
 5761WAT      O17524   8.963   8.237   8.395
 5761WAT     H117525   9.038   8.219   8.331
 5761WAT     H217526   8.925   8.328   8.376
 5762WAT      O17527   5.091   2.868   8.805
 5762WAT     H117528   5.085   2.810   8.886
 5762WAT     H217529   5.078   2.812   8.723
 5763WAT      O17530   1.700   6.625   7.410
 5763WAT     H117531   1.734   6.542   7.455
 5763WAT     H217532   1.702   6.611   7.311
 5764WAT      O17533   2.242   0.787   6.476
 5764WAT     H117534   2.150   0.810   6.444
 5764WAT     H217535   2.238   0.759   6.572
 5765WAT      O17536   2.958   8.563   2.215
 5765WAT     H117537   2.936   8.621   2.137
 5765WAT     H217538   3.025   8.609   2.273
 5766WAT      O17539   2.666   2.960   6.202
 5766WAT     H117540   2.604   2.891   6.164
 5766WAT     H217541   2.617   3.013   6.272
 5767WAT      O17542   1.524   9.603   1.612
 5767WAT     H117543   1.561   9.590   1.520
 5767WAT     H217544   1.445   9.542   1.625
 5768WAT      O17545   8.882   0.390   9.303
 5768WAT     H117546   8.891   0.487   9.327
 5768WAT     H217547   8.943   0.335   9.361
 5769WAT      O17548   4.062   0.769   3.908
 5769WAT     H117549   4.069   0.671   3.890
 5769WAT     H217550   4.103   0.819   3.831
 5770WAT      O17551   7.837   2.449   2.693
 5770WAT     H117552   7.923   2.401   2.675
 5770WAT     H217553   7.817   2.511   2.618
 5771WAT      O17554   5.343   1.726   5.665
 5771WAT     H117555   5.315   1.803   5.723
 5771WAT     H217556   5.320   1.640   5.711
 5772WAT      O17557   2.482   4.398   7.285
 5772WAT     H117558   2.479   4.480   7.342
 5772WAT     H217559   2.392   4.355   7.284
 5773WAT      O17560   9.530   0.366   1.166
 5773WAT     H117561   9.610   0.320   1.127
 5773WAT     H217562   9.559   0.432   1.235
 5774WAT      O17563   4.417   3.045   6.560
 5774WAT     H117564   4.472   3.127   6.541
 5774WAT     H217565   4.337   3.071   6.613
 5775WAT      O17566   1.505   4.699   9.434
 5775WAT     H117567   1.433   4.708   9.365
 5775WAT     H217568   1.476   4.631   9.502
 5776WAT      O17569   5.178   0.593   4.530
 5776WAT     H117570   5.089   0.626   4.498
 5776WAT     H217571   5.242   0.590   4.453
 5777WAT      O17572   0.802   8.354   4.359
 5777WAT     H117573   0.872   8.293   4.322
 5777WAT     H217574   0.712   8.326   4.326
 5778WAT      O17575   6.503   3.348   1.889
 5778WAT     H117576   6.526   3.427   1.832
 5778WAT     H217577   6.587   3.308   1.925
 5779WAT      O17578   7.825   0.414   7.942
 5779WAT     H117579   7.840   0.328   7.992
 5779WAT     H217580   7.754   0.467   7.989
 5780WAT      O17581   5.809   3.812   8.349
 5780WAT     H117582   5.888   3.842   8.401
 5780WAT     H217583   5.835   3.798   8.253
 5781WAT      O17584   2.009   4.036   6.594
 5781WAT     H117585   1.925   4.038   6.540
 5781WAT     H217586   2.032   4.129   6.622
 5782WAT      O17587   4.547   4.526   1.074
 5782WAT     H117588   4.609   4.492   1.145
 5782WAT     H217589   4.546   4.625   1.076
 5783WAT      O17590   9.874   5.930   6.415
 5783WAT     H117591   9.846   5.893   6.504
 5783WAT     H217592   9.796   5.930   6.353
 5784WAT      O17593   0.111   2.220   0.879
 5784WAT     H117594   0.150   2.234   0.787
 5784WAT     H217595   0.077   2.307   0.914
 5785WAT      O17596   1.376   6.919   0.109
 5785WAT     H117597   1.395   7.010   0.072
 5785WAT     H217598   1.453   6.889   0.164
 5786WAT      O17599   7.520   2.080   2.955
 5786WAT     H117600   7.561   2.056   3.043
 5786WAT     H217601   7.437   2.133   2.969
 5787WAT      O17602   9.292   3.590   4.227
 5787WAT     H117603   9.315   3.606   4.131
 5787WAT     H217604   9.198   3.620   4.244
 5788WAT      O17605   2.744   0.796   8.610
 5788WAT     H117606   2.792   0.784   8.523
 5788WAT     H217607   2.809   0.790   8.686
 5789WAT      O17608   2.151   0.364   7.989
 5789WAT     H117609   2.232   0.311   7.966
 5789WAT     H217610   2.171   0.424   8.067
 5790WAT      O17611   7.354   5.947   9.675
 5790WAT     H117612   7.277   5.981   9.729
 5790WAT     H217613   7.322   5.877   9.612
 5791WAT      O17614   3.702   3.171   3.391
 5791WAT     H117615   3.636   3.098   3.373
 5791WAT     H217616   3.709   3.186   3.490
 5792WAT      O17617   8.048   5.360   5.307
 5792WAT     H117618   8.108   5.390   5.381
 5792WAT     H217619   8.033   5.261   5.315
 5793WAT      O17620   4.717   8.821   3.369
 5793WAT     H117621   4.814   8.809   3.390
 5793WAT     H217622   4.673   8.732   3.362
 5794WAT      O17623   3.490   7.458   9.785
 5794WAT     H117624   3.476   7.366   9.748
 5794WAT     H217625   3.579   7.493   9.756
 5795WAT      O17626   7.920   8.210   7.118
 5795WAT     H117627   7.848   8.161   7.070
 5795WAT     H217628   8.001   8.151   7.127
 5796WAT      O17629   9.139   7.969   5.316
 5796WAT     H117630   9.124   7.981   5.218
 5796WAT     H217631   9.228   7.928   5.331
 5797WAT      O17632   3.077   0.173   7.913
 5797WAT     H117633   3.057   0.158   7.816
 5797WAT     H217634   3.048   0.092   7.966
 5798WAT      O17635   0.048   2.864   9.121
 5798WAT     H117636  -0.018   2.845   9.048
 5798WAT     H217637   0.003   2.912   9.196
 5799WAT      O17638   2.973   1.455   7.816
 5799WAT     H117639   2.892   1.436   7.760
 5799WAT     H217640   3.052   1.471   7.758
 5800WAT      O17641   5.193   1.173   8.982
 5800WAT     H117642   5.206   1.224   8.897
 5800WAT     H217643   5.174   1.077   8.961
 5801WAT      O17644   7.695   5.615   3.903
 5801WAT     H117645   7.614   5.654   3.859
 5801WAT     H217646   7.735   5.683   3.964
 5802WAT      O17647   0.084   3.455   9.625
 5802WAT     H117648   0.099   3.503   9.539
 5802WAT     H217649  -0.002   3.404   9.620
 5803WAT      O17650   4.172   7.222   5.996
 5803WAT     H117651   4.195   7.139   6.047
 5803WAT     H217652   4.257   7.267   5.965
 5804WAT      O17653   0.564   0.143   5.582
 5804WAT     H117654   0.566   0.156   5.483
 5804WAT     H217655   0.657   0.129   5.616
 5805WAT      O17656   7.919   5.685   7.441
 5805WAT     H117657   7.969   5.768   7.468
 5805WAT     H217658   7.864   5.704   7.359
 5806WAT      O17659   2.187   8.922   1.224
 5806WAT     H117660   2.217   8.878   1.308
 5806WAT     H217661   2.255   8.908   1.152
 5807WAT      O17662   9.299   6.267   1.929
 5807WAT     H117663   9.341   6.317   1.853
 5807WAT     H217664   9.370   6.233   1.990
 5808WAT      O17665   8.103   6.254   1.930
 5808WAT     H117666   8.167   6.241   2.005
 5808WAT     H217667   8.029   6.187   1.937
 5809WAT      O17668   6.477   1.803   2.690
 5809WAT     H117669   6.457   1.821   2.786
 5809WAT     H217670   6.542   1.870   2.656
 5810WAT      O17671   8.064   4.424   3.798
 5810WAT     H117672   8.150   4.397   3.843
 5810WAT     H217673   8.012   4.342   3.773
 5811WAT      O17674   6.343   4.840   2.486
 5811WAT     H117675   6.249   4.838   2.454
 5811WAT     H217676   6.347   4.805   2.580
 5812WAT      O17677   2.466   5.207   8.173
 5812WAT     H117678   2.413   5.274   8.121
 5812WAT     H217679   2.468   5.121   8.122
 5813WAT      O17680   6.462   3.746   6.240
 5813WAT     H117681   6.392   3.752   6.169
 5813WAT     H217682   6.549   3.778   6.203
 5814WAT      O17683   1.195   1.038   5.835
 5814WAT     H117684   1.152   1.034   5.925
 5814WAT     H217685   1.144   1.101   5.776
 5815WAT      O17686   9.128   6.946   2.783
 5815WAT     H117687   9.098   6.981   2.694
 5815WAT     H217688   9.077   6.992   2.855
 5816WAT      O17689   6.570   0.289   1.136
 5816WAT     H117690   6.564   0.199   1.091
 5816WAT     H217691   6.487   0.306   1.189
 5817WAT      O17692   4.007   3.006   0.482
 5817WAT     H117693   3.970   3.099   0.483
 5817WAT     H217694   4.107   3.009   0.485
 5818WAT      O17695   5.838   1.890   7.201
 5818WAT     H117696   5.812   1.838   7.282
 5818WAT     H217697   5.899   1.965   7.227
 5819WAT      O17698   4.152   7.658   5.941
 5819WAT     H117699   4.097   7.575   5.936
 5819WAT     H217700   4.096   7.737   5.917
 5820WAT      O17701   1.469   4.712   5.196
 5820WAT     H117702   1.442   4.697   5.291
 5820WAT     H217703   1.568   4.706   5.187
 5821WAT      O17704   7.907   3.694   7.113
 5821WAT     H117705   7.820   3.668   7.154
 5821WAT     H217706   7.892   3.728   7.020
 5822WAT      O17707   8.922   1.940   2.049
 5822WAT     H117708   8.956   1.856   2.092
 5822WAT     H217709   8.999   1.997   2.020
 5823WAT      O17710   4.648   7.933   6.580
 5823WAT     H117711   4.563   7.880   6.585
 5823WAT     H217712   4.627   8.030   6.585
 5824WAT      O17713   6.349   8.278   3.486
 5824WAT     H117714   6.399   8.356   3.448
 5824WAT     H217715   6.350   8.283   3.586
 5825WAT      O17716   2.964   0.143   3.597
 5825WAT     H117717   2.962   0.243   3.596
 5825WAT     H217718   2.870   0.108   3.587
 5826WAT      O17719   3.735   5.441   5.106
 5826WAT     H117720   3.743   5.395   5.195
 5826WAT     H217721   3.763   5.536   5.116
 5827WAT      O17722   1.050   0.154   9.550
 5827WAT     H117723   1.074   0.178   9.644
 5827WAT     H217724   0.955   0.124   9.547
 5828WAT      O17725   5.475   2.642   0.971
 5828WAT     H117726   5.422   2.712   0.922
 5828WAT     H217727   5.421   2.604   1.045
 5829WAT      O17728   7.043   6.846   8.372
 5829WAT     H117729   7.124   6.831   8.315
 5829WAT     H217730   6.994   6.759   8.384
 5830WAT      O17731   2.623   1.633   6.764
 5830WAT     H117732   2.624   1.541   6.802
 5830WAT     H217733   2.535   1.649   6.718
 5831WAT      O17734   5.311   0.068   8.759
 5831WAT     H117735   5.244   0.106   8.696
 5831WAT     H217736   5.265   0.037   8.842
 5832WAT      O17737   3.468   0.415   4.956
 5832WAT     H117738   3.518   0.377   4.877
 5832WAT     H217739   3.373   0.430   4.930
 5833WAT      O17740   3.489   8.590   6.359
 5833WAT     H117741   3.507   8.546   6.447
 5833WAT     H217742   3.544   8.545   6.288
 5834WAT      O17743   4.510   0.515   3.108
 5834WAT     H117744   4.502   0.599   3.161
 5834WAT     H217745   4.606   0.489   3.101
 5835WAT      O17746   6.395   4.721   4.490
 5835WAT     H117747   6.376   4.668   4.573
 5835WAT     H217748   6.388   4.819   4.511
 5836WAT      O17749   0.920   5.207   7.270
 5836WAT     H117750   0.940   5.220   7.367
 5836WAT     H217751   0.821   5.217   7.255
 5837WAT      O17752   0.013   8.038   8.362
 5837WAT     H117753  -0.060   7.976   8.391
 5837WAT     H217754   0.037   8.018   8.267
 5838WAT      O17755   9.622   3.693   1.629
 5838WAT     H117756   9.670   3.776   1.599
 5838WAT     H217757   9.633   3.621   1.560
 5839WAT      O17758   2.485   1.029   8.210
 5839WAT     H117759   2.542   0.948   8.226
 5839WAT     H217760   2.436   1.052   8.294
 5840WAT      O17761   4.170   7.044   8.234
 5840WAT     H117762   4.178   7.096   8.149
 5840WAT     H217763   4.160   7.108   8.310
 5841WAT      O17764   7.677   5.564   8.750
 5841WAT     H117765   7.579   5.577   8.763
 5841WAT     H217766   7.717   5.646   8.710
 5842WAT      O17767   3.046   1.735   3.425
 5842WAT     H117768   3.116   1.803   3.407
 5842WAT     H217769   2.956   1.775   3.413
 5843WAT      O17770   4.884   0.082   2.181
 5843WAT     H117771   4.869   0.167   2.132
 5843WAT     H217772   4.981   0.056   2.175
 5844WAT      O17773   0.958   6.001   4.026
 5844WAT     H117774   0.967   5.983   4.124
 5844WAT     H217775   1.006   6.086   4.004
 5845WAT      O17776   7.361   5.048   8.111
 5845WAT     H117777   7.272   5.094   8.117
 5845WAT     H217778   7.349   4.956   8.074
 5846WAT      O17779   2.672   2.228   8.883
 5846WAT     H117780   2.713   2.227   8.792
 5846WAT     H217781   2.624   2.315   8.897
 5847WAT      O17782   2.726   0.426   2.705
 5847WAT     H117783   2.813   0.452   2.747
 5847WAT     H217784   2.741   0.352   2.640
 5848WAT      O17785   6.230   2.260   6.089
 5848WAT     H117786   6.262   2.353   6.105
 5848WAT     H217787   6.189   2.254   5.998
 5849WAT      O17788   8.921   6.903   9.119
 5849WAT     H117789   8.901   6.945   9.207
 5849WAT     H217790   8.851   6.835   9.097
 5850WAT      O17791   4.811   5.077   7.629
 5850WAT     H117792   4.852   5.003   7.683
 5850WAT     H217793   4.719   5.050   7.601
 5851WAT      O17794   2.435   6.636   5.987
 5851WAT     H117795   2.351   6.637   6.041
 5851WAT     H217796   2.420   6.688   5.903
 5852WAT      O17797   1.930   9.657   4.349
 5852WAT     H117798   2.019   9.673   4.306
 5852WAT     H217799   1.934   9.574   4.405
 5853WAT      O17800   6.254   1.826   1.338
 5853WAT     H117801   6.325   1.888   1.306
 5853WAT     H217802   6.290   1.767   1.411
 5854WAT      O17803   6.079   5.998   3.870
 5854WAT     H117804   5.999   5.946   3.839
 5854WAT     H217805   6.071   6.017   3.967
 5855WAT      O17806   4.731   3.704   2.945
 5855WAT     H117807   4.716   3.612   2.981
 5855WAT     H217808   4.829   3.723   2.941
 5856WAT      O17809   5.587   6.364   7.893
 5856WAT     H117810   5.672   6.404   7.859
 5856WAT     H217811   5.536   6.433   7.944
 5857WAT      O17812   8.337   8.717   1.448
 5857WAT     H117813   8.302   8.811   1.446
 5857WAT     H217814   8.431   8.718   1.484
 5858WAT      O17815   9.566   4.305   5.784
 5858WAT     H117816   9.513   4.269   5.860
 5858WAT     H217817   9.610   4.230   5.735
 5859WAT      O17818   8.971   9.036   8.661
 5859WAT     H117819   9.037   9.095   8.613
 5859WAT     H217820   8.899   9.008   8.598
 5860WAT      O17821   3.612   0.973   5.180
 5860WAT     H117822   3.641   0.975   5.275
 5860WAT     H217823   3.570   1.061   5.155
 5861WAT      O17824   8.498   8.613   6.062
 5861WAT     H117825   8.429   8.569   6.005
 5861WAT     H217826   8.588   8.573   6.043
 5862WAT      O17827   3.641   4.128   8.349
 5862WAT     H117828   3.681   4.213   8.315
 5862WAT     H217829   3.660   4.054   8.284
 5863WAT      O17830   8.328   6.409   3.296
 5863WAT     H117831   8.364   6.326   3.339
 5863WAT     H217832   8.380   6.428   3.213
 5864WAT      O17833   8.698   9.143   9.445
 5864WAT     H117834   8.622   9.184   9.496
 5864WAT     H217835   8.730   9.207   9.376
 5865WAT      O17836   0.014   1.422   1.591
 5865WAT     H117837   0.014   1.322   1.585
 5865WAT     H217838   0.103   1.452   1.627
 5866WAT      O17839   3.825   1.222   0.282
 5866WAT     H117840   3.853   1.293   0.218
 5866WAT     H217841   3.725   1.216   0.282
 5867WAT      O17842   7.001   0.842   8.455
 5867WAT     H117843   7.021   0.845   8.553
 5867WAT     H217844   6.995   0.935   8.419
 5868WAT      O17845   9.766   0.242   3.277
 5868WAT     H117846   9.839   0.205   3.334
 5868WAT     H217847   9.705   0.298   3.333
 5869WAT      O17848   8.414   8.727   0.774
 5869WAT     H117849   8.376   8.779   0.851
 5869WAT     H217850   8.351   8.734   0.696
 5870WAT      O17851   7.868   9.000   8.091
 5870WAT     H117852   7.942   9.052   8.133
 5870WAT     H217853   7.851   9.035   7.999
 5871WAT      O17854   6.242   9.086   8.769
 5871WAT     H117855   6.278   9.127   8.852
 5871WAT     H217856   6.297   9.117   8.690
 5872WAT      O17857   1.429   2.683   1.429
 5872WAT     H117858   1.488   2.762   1.444
 5872WAT     H217859   1.334   2.707   1.449
 5873WAT      O17860   3.128   2.223   4.233
 5873WAT     H117861   3.054   2.285   4.208
 5873WAT     H217862   3.094   2.128   4.230
 5874WAT      O17863   2.994   8.192   4.396
 5874WAT     H117864   2.921   8.258   4.380
 5874WAT     H217865   3.066   8.235   4.451
 5875WAT      O17866   1.731   7.552   5.985
 5875WAT     H117867   1.660   7.621   5.973
 5875WAT     H217868   1.799   7.562   5.912
 5876WAT      O17869   7.835   4.647   4.544
 5876WAT     H117870   7.793   4.736   4.527
 5876WAT     H217871   7.935   4.656   4.542
 5877WAT      O17872   4.811   5.202   7.382
 5877WAT     H117873   4.726   5.253   7.368
 5877WAT     H217874   4.800   5.139   7.460
 5878WAT      O17875   1.833   0.569   5.700
 5878WAT     H117876   1.801   0.648   5.752
 5878WAT     H217877   1.759   0.504   5.688
 5879WAT      O17878   6.189   0.288   5.344
 5879WAT     H117879   6.114   0.268   5.281
 5879WAT     H217880   6.246   0.206   5.354
 5880WAT      O17881   3.287   0.374   2.894
 5880WAT     H117882   3.268   0.467   2.861
 5880WAT     H217883   3.310   0.378   2.991
 5881WAT      O17884   3.101   2.207   1.845
 5881WAT     H117885   3.112   2.288   1.788
 5881WAT     H217886   3.109   2.125   1.790
 5882WAT      O17887   7.476   7.247   8.613
 5882WAT     H117888   7.545   7.303   8.568
 5882WAT     H217889   7.477   7.265   8.711
 5883WAT      O17890   7.219   2.780   3.913
 5883WAT     H117891   7.269   2.715   3.855
 5883WAT     H217892   7.257   2.872   3.902
 5884WAT      O17893   1.141   3.002   5.618
 5884WAT     H117894   1.206   2.948   5.670
 5884WAT     H217895   1.188   3.080   5.576
 5885WAT      O17896   8.843   0.045   7.118
 5885WAT     H117897   8.753   0.027   7.077
 5885WAT     H217898   8.906   0.077   7.047
 5886WAT      O17899   6.048   6.739   2.113
 5886WAT     H117900   6.147   6.748   2.107
 5886WAT     H217901   6.011   6.717   2.023
 5887WAT      O17902   7.262   6.088   2.326
 5887WAT     H117903   7.222   6.088   2.234
 5887WAT     H217904   7.193   6.056   2.391
 5888WAT      O17905   3.512   8.263   1.054
 5888WAT     H117906   3.457   8.274   0.971
 5888WAT     H217907   3.609   8.265   1.031
 5889WAT      O17908   6.349   7.539   3.122
 5889WAT     H117909   6.361   7.574   3.215
 5889WAT     H217910   6.424   7.476   3.101
 5890WAT      O17911   2.416   1.348   5.964
 5890WAT     H117912   2.504   1.302   5.975
 5890WAT     H217913   2.389   1.390   6.051
 5891WAT      O17914   4.535   0.484   1.632
 5891WAT     H117915   4.513   0.488   1.729
 5891WAT     H217916   4.615   0.541   1.613
 5892WAT      O17917   5.081   3.935   2.364
 5892WAT     H117918   5.123   3.890   2.286
 5892WAT     H217919   5.090   3.876   2.445
 5893WAT      O17920   8.831   9.218   3.247
 5893WAT     H117921   8.901   9.167   3.197
 5893WAT     H217922   8.854   9.315   3.247
 5894WAT      O17923   5.490   3.185   2.463
 5894WAT     H117924   5.559   3.166   2.394
 5894WAT     H217925   5.402   3.146   2.434
 5895WAT      O17926   4.714   5.441   5.336
 5895WAT     H117927   4.691   5.428   5.433
 5895WAT     H217928   4.631   5.435   5.281
 5896WAT      O17929   6.142   4.922   6.983
 5896WAT     H117930   6.123   5.017   7.008
 5896WAT     H217931   6.193   4.877   7.056
 5897WAT      O17932   6.730   3.220   7.541
 5897WAT     H117933   6.653   3.249   7.599
 5897WAT     H217934   6.694   3.184   7.455
 5898WAT      O17935   8.174   9.742   4.818
 5898WAT     H117936   8.175   9.650   4.856
 5898WAT     H217937   8.080   9.776   4.815
 5899WAT      O17938   7.448   7.627   0.309
 5899WAT     H117939   7.509   7.621   0.230
 5899WAT     H217940   7.408   7.537   0.327
 5900WAT      O17941   1.060   1.661   0.599
 5900WAT     H117942   1.137   1.667   0.662
 5900WAT     H217943   1.093   1.632   0.509
 5901WAT      O17944   8.315   7.541   8.813
 5901WAT     H117945   8.348   7.478   8.884
 5901WAT     H217946   8.300   7.631   8.853
 5902WAT      O17947   5.651   4.869   2.300
 5902WAT     H117948   5.662   4.904   2.393
 5902WAT     H217949   5.703   4.784   2.291
 5903WAT      O17950   2.131   5.931   4.623
 5903WAT     H117951   2.173   5.985   4.696
 5903WAT     H217952   2.174   5.841   4.619
 5904WAT      O17953   4.089   0.674   5.476
 5904WAT     H117954   4.120   0.596   5.422
 5904WAT     H217955   3.992   0.663   5.499
 5905WAT      O17956   3.119   2.701   6.237
 5905WAT     H117957   3.188   2.731   6.303
 5905WAT     H217958   3.057   2.776   6.217
 5906WAT      O17959   6.410   4.691   4.054
 5906WAT     H117960   6.353   4.692   3.972
 5906WAT     H217961   6.390   4.773   4.108
 5907WAT      O17962   5.939   7.883   8.185
 5907WAT     H117963   5.894   7.896   8.273
 5907WAT     H217964   5.902   7.801   8.141
 5908WAT      O17965   6.323   7.343   6.614
 5908WAT     H117966   6.322   7.265   6.677
 5908WAT     H217967   6.414   7.351   6.572
 5909WAT      O17968   0.317   7.425   2.225
 5909WAT     H117969   0.416   7.415   2.233
 5909WAT     H217970   0.294   7.522   2.223
 5910WAT      O17971   1.429   8.125   3.022
 5910WAT     H117972   1.478   8.164   2.944
 5910WAT     H217973   1.468   8.036   3.044
 5911WAT      O17974   0.472   5.224   8.406
 5911WAT     H117975   0.531   5.304   8.413
 5911WAT     H217976   0.404   5.226   8.479
 5912WAT      O17977   3.647   1.781   3.636
 5912WAT     H117978   3.549   1.765   3.650
 5912WAT     H217979   3.669   1.767   3.540
 5913WAT      O17980   1.766   3.355   2.963
 5913WAT     H117981   1.802   3.382   2.874
 5913WAT     H217982   1.765   3.256   2.971
 5914WAT      O17983   4.199   2.476   1.608
 5914WAT     H117984   4.182   2.501   1.512
 5914WAT     H217985   4.119   2.428   1.644
 5915WAT      O17986   6.552   1.216   8.601
 5915WAT     H117987   6.629   1.160   8.630
 5915WAT     H217988   6.560   1.235   8.503
 5916WAT      O17989   3.322   7.349   7.583
 5916WAT     H117990   3.333   7.356   7.484
 5916WAT     H217991   3.272   7.429   7.616
 5917WAT      O17992   4.757   0.871   2.359
 5917WAT     H117993   4.840   0.837   2.404
 5917WAT     H217994   4.742   0.967   2.384
 5918WAT      O17995   3.125   3.917   3.348
 5918WAT     H117996   3.106   3.886   3.255
 5918WAT     H217997   3.117   3.841   3.411
 5919WAT      O17998   1.248   7.012   8.172
 5919WAT     H117999   1.160   6.964   8.177
 5919WAT     H218000   1.278   7.015   8.077
 5920WAT      O18001   4.119   5.670   3.244
 5920WAT     H118002   4.215   5.664   3.214
 5920WAT     H218003   4.059   5.657   3.165
 5921WAT      O18004   2.281   8.247   7.093
 5921WAT     H118005   2.219   8.207   7.026
 5921WAT     H218006   2.234   8.320   7.143
 5922WAT      O18007   8.101   1.295   6.557
 5922WAT     H118008   8.170   1.348   6.507
 5922WAT     H218009   8.147   1.229   6.617
 5923WAT      O18010   4.874   4.008   3.845
 5923WAT     H118011   4.813   4.056   3.783
 5923WAT     H218012   4.902   3.921   3.805
 5924WAT      O18013   6.096   8.307   2.059
 5924WAT     H118014   6.107   8.282   2.155
 5924WAT     H218015   6.162   8.257   2.003
 5925WAT      O18016   9.775   3.778   6.767
 5925WAT     H118017   9.769   3.861   6.823
 5925WAT     H218018   9.685   3.736   6.760
 5926WAT      O18019   4.805   6.026   5.308
 5926WAT     H118020   4.739   5.951   5.303
 5926WAT     H218021   4.883   5.997   5.363
 5927WAT      O18022   4.887   5.180   4.010
 5927WAT     H118023   4.882   5.240   4.090
 5927WAT     H218024   4.800   5.185   3.960
 5928WAT      O18025   0.944   3.602   7.733
 5928WAT     H118026   0.929   3.621   7.830
 5928WAT     H218027   1.039   3.624   7.709
 5929WAT      O18028   2.313   4.541   2.493
 5929WAT     H118029   2.353   4.581   2.575
 5929WAT     H218030   2.379   4.478   2.451
 5930WAT      O18031   9.066   3.569   8.441
 5930WAT     H118032   9.121   3.635   8.492
 5930WAT     H218033   8.972   3.571   8.474
 5931WAT      O18034   5.394   6.167   5.872
 5931WAT     H118035   5.407   6.168   5.971
 5931WAT     H218036   5.418   6.076   5.836
 5932WAT      O18037   9.634   5.307   0.472
 5932WAT     H118038   9.715   5.249   0.459
 5932WAT     H218039   9.612   5.312   0.569
 5933WAT      O18040   2.559   0.367   9.440
 5933WAT     H118041   2.470   0.357   9.395
 5933WAT     H218042   2.615   0.432   9.388
 5934WAT      O18043   7.414   4.099   8.354
 5934WAT     H118044   7.456   4.012   8.377
 5934WAT     H218045   7.346   4.086   8.282
 5935WAT      O18046   5.903   2.867   5.229
 5935WAT     H118047   5.893   2.804   5.306
 5935WAT     H218048   5.994   2.859   5.190
 5936WAT      O18049   8.532   2.167   8.024
 5936WAT     H118050   8.503   2.206   7.936
 5936WAT     H218051   8.602   2.224   8.065
 5937WAT      O18052   3.624   8.764   1.721
 5937WAT     H118053   3.626   8.682   1.665
 5937WAT     H218054   3.708   8.816   1.707
 5938WAT      O18055   1.231   5.692   8.031
 5938WAT     H118056   1.183   5.779   8.032
 5938WAT     H218057   1.330   5.709   8.029
 5939WAT      O18058   9.795   8.286   3.130
 5939WAT     H118059   9.875   8.275   3.071
 5939WAT     H218060   9.762   8.380   3.126
 5940WAT      O18061   8.746   8.640   4.750
 5940WAT     H118062   8.663   8.691   4.727
 5940WAT     H218063   8.755   8.634   4.849
 5941WAT      O18064   7.566   5.351   4.216
 5941WAT     H118065   7.657   5.391   4.208
 5941WAT     H218066   7.506   5.392   4.147
 5942WAT      O18067   2.154   4.998   0.240
 5942WAT     H118068   2.201   5.011   0.152
 5942WAT     H218069   2.166   4.903   0.269
 5943WAT      O18070   6.582   2.484   0.272
 5943WAT     H118071   6.648   2.464   0.200
 5943WAT     H218072   6.619   2.454   0.360
 5944WAT      O18073   8.651   2.509   7.335
 5944WAT     H118074   8.636   2.494   7.237
 5944WAT     H218075   8.608   2.435   7.387
 5945WAT      O18076   4.264   6.007   3.237
 5945WAT     H118077   4.293   6.093   3.196
 5945WAT     H218078   4.199   5.961   3.177
 5946WAT      O18079   7.407   0.847   9.270
 5946WAT     H118080   7.398   0.929   9.326
 5946WAT     H218081   7.341   0.778   9.302
 5947WAT      O18082   4.011   6.466   7.220
 5947WAT     H118083   4.089   6.496   7.165
 5947WAT     H218084   3.989   6.537   7.288
 5948WAT      O18085   5.651   3.474   6.737
 5948WAT     H118086   5.595   3.427   6.805
 5948WAT     H218087   5.746   3.444   6.746
 5949WAT      O18088   5.649   8.072   3.045
 5949WAT     H118089   5.578   8.111   2.987
 5949WAT     H218090   5.718   8.028   2.989
 5950WAT      O18091   6.199   5.310   0.684
 5950WAT     H118092   6.266   5.235   0.679
 5950WAT     H218093   6.163   5.328   0.592
 5951WAT      O18094   6.870   2.137   3.075
 5951WAT     H118095   6.782   2.094   3.054
 5951WAT     H218096   6.864   2.235   3.056
 5952WAT      O18097   2.726   0.680   5.920
 5952WAT     H118098   2.717   0.769   5.964
 5952WAT     H218099   2.719   0.608   5.989
 5953WAT      O18100   6.824   5.232   1.841
 5953WAT     H118101   6.859   5.295   1.910
 5953WAT     H218102   6.879   5.148   1.842
 5954WAT      O18103   6.599   1.433   1.035
 5954WAT     H118104   6.696   1.411   1.033
 5954WAT     H218105   6.548   1.360   0.989
 5955WAT      O18106   9.658   0.387   4.015
 5955WAT     H118107   9.691   0.398   3.921
 5955WAT     H218108   9.734   0.399   4.079
 5956WAT      O18109   2.608   6.483   8.025
 5956WAT     H118110   2.621   6.386   8.006
 5956WAT     H218111   2.525   6.495   8.080
 5957WAT      O18112   2.352   8.267   8.954
 5957WAT     H118113   2.393   8.315   8.876
 5957WAT     H218114   2.423   8.218   9.004
 5958WAT      O18115   5.661   8.208   9.516
 5958WAT     H118116   5.643   8.288   9.459
 5958WAT     H218117   5.621   8.222   9.606
 5959WAT      O18118   7.622   1.077   2.120
 5959WAT     H118119   7.667   1.137   2.186
 5959WAT     H218120   7.567   1.009   2.169
 5960WAT      O18121   2.159   9.782   5.276
 5960WAT     H118122   2.107   9.865   5.296
 5960WAT     H218123   2.147   9.716   5.350
 5961WAT      O18124   2.045   8.355   2.959
 5961WAT     H118125   2.050   8.348   2.859
 5961WAT     H218126   1.952   8.333   2.989
 5962WAT      O18127   1.747   0.881   9.129
 5962WAT     H118128   1.729   0.919   9.038
 5962WAT     H218129   1.701   0.935   9.198
 5963WAT      O18130   0.010   3.644   8.793
 5963WAT     H118131  -0.086   3.672   8.801
 5963WAT     H218132   0.017   3.546   8.811
 5964WAT      O18133   9.659   1.310   8.777
 5964WAT     H118134   9.610   1.328   8.862
 5964WAT     H218135   9.731   1.242   8.793
 5965WAT      O18136   0.457   0.192   4.335
 5965WAT     H118137   0.513   0.265   4.373
 5965WAT     H218138   0.364   0.199   4.371
 5966WAT      O18139   0.401   1.565   1.123
 5966WAT     H118140   0.492   1.524   1.110
 5966WAT     H218141   0.398   1.654   1.079
 5967WAT      O18142   9.300   4.807   9.137
 5967WAT     H118143   9.261   4.874   9.074
 5967WAT     H218144   9.227   4.761   9.187
 5968WAT      O18145   6.076   0.771   7.713
 5968WAT     H118146   6.175   0.755   7.712
 5968WAT     H218147   6.028   0.684   7.726
 5969WAT      O18148   5.710   9.843   7.735
 5969WAT     H118149   5.650   9.764   7.750
 5969WAT     H218150   5.696   9.910   7.808
 5970WAT      O18151   7.604   6.037   5.933
 5970WAT     H118152   7.648   5.986   5.859
 5970WAT     H218153   7.523   5.987   5.964
 5971WAT      O18154   5.392   5.251   7.824
 5971WAT     H118155   5.374   5.320   7.893
 5971WAT     H218156   5.325   5.177   7.832
 5972WAT      O18157   5.210   0.922   8.725
 5972WAT     H118158   5.242   0.839   8.679
 5972WAT     H218159   5.198   0.904   8.822
 5973WAT      O18160   4.980   8.510   3.424
 5973WAT     H118161   4.966   8.604   3.453
 5973WAT     H218162   5.070   8.501   3.381
 5974WAT      O18163   9.203   5.092   5.207
 5974WAT     H118164   9.118   5.071   5.159
 5974WAT     H218165   9.236   5.010   5.254
 5975WAT      O18166   3.990   6.399   7.532
 5975WAT     H118167   3.920   6.470   7.525
 5975WAT     H218168   4.013   6.385   7.629
 5976WAT      O18169   6.652   5.263   8.855
 5976WAT     H118170   6.641   5.354   8.816
 5976WAT     H218171   6.575   5.205   8.829
 5977WAT      O18172   8.012   7.191   0.699
 5977WAT     H118173   8.019   7.273   0.642
 5977WAT     H218174   8.077   7.122   0.667
 5978WAT      O18175   2.260   7.686   9.811
 5978WAT     H118176   2.229   7.714   9.902
 5978WAT     H218177   2.182   7.678   9.750
 5979WAT      O18178   3.396   6.274   5.439
 5979WAT     H118179   3.323   6.300   5.376
 5979WAT     H218180   3.428   6.356   5.487
 5980WAT      O18181   7.241   4.606   3.153
 5980WAT     H118182   7.268   4.638   3.062
 5980WAT     H218183   7.183   4.525   3.144
 5981WAT      O18184   3.435   8.815   5.385
 5981WAT     H118185   3.363   8.855   5.328
 5981WAT     H218186   3.417   8.836   5.481
 5982WAT      O18187   6.771   0.035   7.925
 5982WAT     H118188   6.707  -0.023   7.976
 5982WAT     H218189   6.810  -0.018   7.848
 5983WAT      O18190   5.831   7.188   8.227
 5983WAT     H118191   5.753   7.208   8.287
 5983WAT     H218192   5.799   7.172   8.134
 5984WAT      O18193   5.336   2.798   4.651
 5984WAT     H118194   5.321   2.883   4.600
 5984WAT     H218195   5.263   2.733   4.631
 5985WAT      O18196   9.088   9.577   4.793
 5985WAT     H118197   9.046   9.582   4.884
 5985WAT     H218198   9.024   9.534   4.729
 5986WAT      O18199   4.044   3.052   1.328
 5986WAT     H118200   4.115   3.106   1.282
 5986WAT     H218201   3.986   3.113   1.381
 5987WAT      O18202   3.872   2.570   0.843
 5987WAT     H118203   3.886   2.585   0.745
 5987WAT     H218204   3.930   2.493   0.873
 5988WAT      O18205   7.860   2.070   4.852
 5988WAT     H118206   7.873   2.004   4.777
 5988WAT     H218207   7.868   2.163   4.815
 5989WAT      O18208   6.937   0.992   0.953
 5989WAT     H118209   6.993   0.911   0.970
 5989WAT     H218210   6.995   1.073   0.951
 5990WAT      O18211   8.910   9.072   7.101
 5990WAT     H118212   8.992   9.027   7.067
 5990WAT     H218213   8.829   9.030   7.060
 5991WAT      O18214   0.223   5.902   0.564
 5991WAT     H118215   0.292   5.856   0.510
 5991WAT     H218216   0.143   5.921   0.508
 5992WAT      O18217   3.621   7.032   4.389
 5992WAT     H118218   3.530   7.008   4.355
 5992WAT     H218219   3.642   6.979   4.471
 5993WAT      O18220   3.562   2.019   2.581
 5993WAT     H118221   3.474   2.063   2.561
 5993WAT     H218222   3.558   1.976   2.671
 5994WAT      O18223   1.400   7.333   4.590
 5994WAT     H118224   1.403   7.236   4.614
 5994WAT     H218225   1.440   7.386   4.664
 5995WAT      O18226   5.292   3.360   1.189
 5995WAT     H118227   5.252   3.279   1.232
 5995WAT     H218228   5.387   3.371   1.219
 5996WAT      O18229   3.202   9.418   3.916
 5996WAT     H118230   3.103   9.417   3.901
 5996WAT     H218231   3.243   9.486   3.855
 5997WAT      O18232   2.846   2.203   9.182
 5997WAT     H118233   2.803   2.115   9.162
 5997WAT     H218234   2.775   2.273   9.188
 5998WAT      O18235   8.012   5.914   9.076
 5998WAT     H118236   7.990   5.822   9.045
 5998WAT     H218237   8.054   5.910   9.167
 5999WAT      O18238   7.714   7.126   9.089
 5999WAT     H118239   7.755   7.039   9.115
 5999WAT     H218240   7.710   7.186   9.169
 6000WAT      O18241   6.455   9.818   7.371
 6000WAT     H118242   6.380   9.757   7.344
 6000WAT     H218243   6.531   9.807   7.307
 6001WAT      O18244   6.602   7.524   6.847
 6001WAT     H118245   6.519   7.573   6.821
 6001WAT     H218246   6.590   7.427   6.826
 6002WAT      O18247   6.676   4.489   1.719
 6002WAT     H118248   6.635   4.566   1.768
 6002WAT     H218249   6.682   4.510   1.622
 6003WAT      O18250   3.542   7.507   0.150
 6003WAT     H118251   3.559   7.416   0.188
 6003WAT     H218252   3.526   7.501   0.052
 6004WAT      O18253   9.830   1.215   8.108
 6004WAT     H118254   9.809   1.121   8.133
 6004WAT     H218255   9.755   1.275   8.137
 6005WAT      O18256   9.502   7.519   8.607
 6005WAT     H118257   9.454   7.572   8.537
 6005WAT     H218258   9.437   7.489   8.677
 6006WAT      O18259   7.862   6.874   0.593
 6006WAT     H118260   7.852   6.973   0.607
 6006WAT     H218261   7.775   6.829   0.612
 6007WAT      O18262   2.452   8.720   0.393
 6007WAT     H118263   2.364   8.710   0.347
 6007WAT     H218264   2.519   8.756   0.329
 6008WAT      O18265   7.436   3.009   0.012
 6008WAT     H118266   7.381   3.008  -0.071
 6008WAT     H218267   7.532   2.994  -0.011
 6009WAT      O18268   2.560   5.438   5.923
 6009WAT     H118269   2.463   5.455   5.935
 6009WAT     H218270   2.574   5.351   5.875
 6010WAT      O18271   8.800   6.095   9.259
 6010WAT     H118272   8.877   6.045   9.219
 6010WAT     H218273   8.751   6.036   9.323
 6011WAT      O18274   3.346   6.273   8.038
 6011WAT     H118275   3.270   6.212   8.062
 6011WAT     H218276   3.338   6.358   8.089
 6012WAT      O18277   7.776   4.803   2.757
 6012WAT     H118278   7.701   4.767   2.701
 6012WAT     H218279   7.834   4.861   2.700
 6013WAT      O18280   5.571   1.352   9.022
 6013WAT     H118281   5.563   1.319   8.928
 6013WAT     H218282   5.665   1.338   9.054
 6014WAT      O18283   6.855   0.941   1.797
 6014WAT     H118284   6.908   1.012   1.749
 6014WAT     H218285   6.912   0.900   1.868
 6015WAT      O18286   9.008   1.578   9.006
 6015WAT     H118287   9.045   1.506   9.066
 6015WAT     H218288   9.060   1.581   8.921
 6016WAT      O18289   5.750   2.274   0.068
 6016WAT     H118290   5.809   2.239   0.140
 6016WAT     H218291   5.774   2.369   0.049
 6017WAT      O18292   7.698   1.608   4.904
 6017WAT     H118293   7.711   1.510   4.886
 6017WAT     H218294   7.734   1.630   4.995
 6018WAT      O18295   5.128   0.575   1.557
 6018WAT     H118296   5.126   0.480   1.588
 6018WAT     H218297   5.223   0.604   1.545
 6019WAT      O18298   1.331   3.926   5.227
 6019WAT     H118299   1.363   3.984   5.152
 6019WAT     H218300   1.388   3.940   5.307
 6020WAT      O18301   8.661   2.413   3.081
 6020WAT     H118302   8.687   2.321   3.112
 6020WAT     H218303   8.744   2.468   3.070
 6021WAT      O18304   5.617   0.198   9.760
 6021WAT     H118305   5.700   0.216   9.812
 6021WAT     H218306   5.607   0.268   9.689
 6022WAT      O18307   8.320   8.712   6.334
 6022WAT     H118308   8.381   8.634   6.321
 6022WAT     H218309   8.229   8.679   6.360
 6023WAT      O18310   8.402   8.537   1.119
 6023WAT     H118311   8.396   8.627   1.077
 6023WAT     H218312   8.321   8.522   1.176
 6024WAT      O18313   7.300   3.853   6.437
 6024WAT     H118314   7.253   3.766   6.419
 6024WAT     H218315   7.263   3.924   6.377
 6025WAT      O18316   6.260   3.332   6.834
 6025WAT     H118317   6.289   3.236   6.844
 6025WAT     H218318   6.216   3.361   6.919
 6026WAT      O18319   3.556   2.830   4.317
 6026WAT     H118320   3.547   2.930   4.316
 6026WAT     H218321   3.647   2.805   4.281
 6027WAT      O18322   9.482   2.125   4.204
 6027WAT     H118323   9.507   2.079   4.119
 6027WAT     H218324   9.468   2.057   4.276
 6028WAT      O18325   7.117   4.380   3.251
 6028WAT     H118326   7.198   4.404   3.306
 6028WAT     H218327   7.049   4.336   3.310
 6029WAT      O18328   1.606   1.713   0.596
 6029WAT     H118329   1.569   1.705   0.503
 6029WAT     H218330   1.702   1.687   0.597
 6030WAT      O18331   5.262   8.535   5.878
 6030WAT     H118332   5.227   8.507   5.788
 6030WAT     H218333   5.362   8.537   5.876
 6031WAT      O18334   0.016   0.075   1.192
 6031WAT     H118335   0.115   0.075   1.173
 6031WAT     H218336  -0.014  -0.018   1.213
 6032WAT      O18337   4.553   2.209   7.065
 6032WAT     H118338   4.580   2.160   7.148
 6032WAT     H218339   4.512   2.146   7.000
 6033WAT      O18340   0.667   7.211   7.292
 6033WAT     H118341   0.639   7.115   7.300
 6033WAT     H218342   0.602   7.260   7.235
 6034WAT      O18343   4.513   8.725   1.957
 6034WAT     H118344   4.508   8.723   1.857
 6034WAT     H218345   4.534   8.818   1.987
 6035WAT      O18346   2.426   0.526   6.137
 6035WAT     H118347   2.345   0.576   6.167
 6035WAT     H218348   2.434   0.440   6.188
 6036WAT      O18349   3.343   8.205   4.630
 6036WAT     H118350   3.319   8.114   4.595
 6036WAT     H218351   3.265   8.267   4.617
 6037WAT      O18352   3.586   8.915   1.037
 6037WAT     H118353   3.551   8.921   1.131
 6037WAT     H218354   3.685   8.928   1.037
 6038WAT      O18355   0.523   0.174   9.548
 6038WAT     H118356   0.476   0.088   9.571
 6038WAT     H218357   0.490   0.207   9.460
 6039WAT      O18358   8.131   8.778   5.130
 6039WAT     H118359   8.100   8.833   5.208
 6039WAT     H218360   8.108   8.826   5.045
 6040WAT      O18361   5.561   0.300   8.732
 6040WAT     H118362   5.520   0.377   8.781
 6040WAT     H218363   5.489   0.239   8.701
 6041WAT      O18364   9.099   2.477   1.704
 6041WAT     H118365   9.001   2.474   1.685
 6041WAT     H218366   9.147   2.508   1.622
 6042WAT      O18367   3.432   9.508   4.446
 6042WAT     H118368   3.339   9.472   4.445
 6042WAT     H218369   3.449   9.554   4.533
 6043WAT      O18370   9.541   2.804   9.093
 6043WAT     H118371   9.519   2.859   9.173
 6043WAT     H218372   9.638   2.778   9.095
 6044WAT      O18373   2.211   7.189   8.081
 6044WAT     H118374   2.111   7.182   8.086
 6044WAT     H218375   2.252   7.135   8.155
 6045WAT      O18376   7.847   6.891   2.599
 6045WAT     H118377   7.889   6.946   2.527
 6045WAT     H218378   7.779   6.946   2.648
 6046WAT      O18379   1.607   0.206   3.452
 6046WAT     H118380   1.542   0.164   3.515
 6046WAT     H218381   1.581   0.186   3.358
 6047WAT      O18382   1.854   3.928   3.492
 6047WAT     H118383   1.772   3.934   3.549
 6047WAT     H218384   1.932   3.901   3.548
 6048WAT      O18385   2.936   1.285   5.670
 6048WAT     H118386   2.897   1.374   5.648
 6048WAT     H218387   2.912   1.220   5.598
 6049WAT      O18388   5.360   6.982   7.433
 6049WAT     H118389   5.371   7.025   7.343
 6049WAT     H218390   5.416   7.030   7.500
 6050WAT      O18391   6.508   5.194   0.935
 6050WAT     H118392   6.416   5.233   0.922
 6050WAT     H218393   6.515   5.156   1.027
 6051WAT      O18394   6.108   6.805   6.551
 6051WAT     H118395   6.120   6.729   6.615
 6051WAT     H218396   6.012   6.835   6.552
 6052WAT      O18397   2.937   8.174   6.308
 6052WAT     H118398   2.843   8.170   6.274
 6052WAT     H218399   2.959   8.268   6.332
 6053WAT      O18400   0.082   7.185   5.807
 6053WAT     H118401   0.049   7.115   5.870
 6053WAT     H218402   0.082   7.274   5.853
 6054WAT      O18403   6.267   9.564   4.094
 6054WAT     H118404   6.344   9.561   4.030
 6054WAT     H218405   6.301   9.581   4.187
 6055WAT      O18406   4.150   9.584   6.474
 6055WAT     H118407   4.179   9.535   6.556
 6055WAT     H218408   4.179   9.679   6.479
 6056WAT      O18409   3.362   5.065   2.477
 6056WAT     H118410   3.268   5.099   2.471
 6056WAT     H218411   3.406   5.071   2.388
 6057WAT      O18412   6.680   6.498   4.147
 6057WAT     H118413   6.754   6.434   4.169
 6057WAT     H218414   6.640   6.533   4.231
 6058WAT      O18415   9.800   3.293   5.659
 6058WAT     H118416   9.739   3.237   5.603
 6058WAT     H218417   9.810   3.251   5.749
 6059WAT      O18418   2.358   9.259   2.823
 6059WAT     H118419   2.443   9.306   2.849
 6059WAT     H218420   2.375   9.160   2.821
 6060WAT      O18421   2.651   0.123   9.106
 6060WAT     H118422   2.630   0.103   9.011
 6060WAT     H218423   2.670   0.221   9.116
 6061WAT      O18424   6.558   6.446   2.916
 6061WAT     H118425   6.599   6.424   2.828
 6061WAT     H218426   6.626   6.434   2.988
 6062WAT      O18427   3.345   3.907   0.899
 6062WAT     H118428   3.298   3.985   0.940
 6062WAT     H218429   3.326   3.825   0.952
 6063WAT      O18430   9.331   8.122   4.163
 6063WAT     H118431   9.412   8.085   4.116
 6063WAT     H218432   9.358   8.159   4.252
 6064WAT      O18433   5.915   8.854   9.853
 6064WAT     H118434   5.919   8.952   9.873
 6064WAT     H218435   5.945   8.838   9.759
 6065WAT      O18436   3.842   9.219   6.238
 6065WAT     H118437   3.922   9.195   6.294
 6065WAT     H218438   3.801   9.136   6.201
 6066WAT      O18439   1.397   8.887   3.662
 6066WAT     H118440   1.315   8.838   3.692
 6066WAT     H218441   1.478   8.840   3.695
 6067WAT      O18442   0.992   5.820   3.220
 6067WAT     H118443   1.066   5.799   3.156
 6067WAT     H218444   0.963   5.915   3.208
 6068WAT      O18445   8.617   8.258   3.330
 6068WAT     H118446   8.603   8.162   3.306
 6068WAT     H218447   8.549   8.287   3.397
 6069WAT      O18448   0.447   7.423   6.217
 6069WAT     H118449   0.425   7.448   6.311
 6069WAT     H218450   0.523   7.358   6.216
 6070WAT      O18451   2.348   4.656   3.315
 6070WAT     H118452   2.369   4.638   3.219
 6070WAT     H218453   2.430   4.687   3.363
 6071WAT      O18454   5.208   9.569   9.726
 6071WAT     H118455   5.158   9.654   9.740
 6071WAT     H218456   5.271   9.553   9.801
 6072WAT      O18457   9.492   2.413   7.019
 6072WAT     H118458   9.576   2.463   6.999
 6072WAT     H218459   9.418   2.449   6.964
 6073WAT      O18460   8.632   9.708   8.108
 6073WAT     H118461   8.726   9.743   8.104
 6073WAT     H218462   8.571   9.771   8.060
 6074WAT      O18463   7.571   9.521   5.734
 6074WAT     H118464   7.509   9.555   5.804
 6074WAT     H218465   7.645   9.586   5.721
 6075WAT      O18466   8.807   4.891   7.458
 6075WAT     H118467   8.747   4.939   7.522
 6075WAT     H218468   8.752   4.854   7.383
 6076WAT      O18469   8.675   0.250   6.187
 6076WAT     H118470   8.723   0.314   6.127
 6076WAT     H218471   8.581   0.281   6.200
 6077WAT      O18472   2.304   5.168   8.406
 6077WAT     H118473   2.362   5.124   8.474
 6077WAT     H218474   2.360   5.199   8.329
 6078WAT      O18475   4.057   1.376   9.501
 6078WAT     H118476   4.098   1.466   9.483
 6078WAT     H218477   4.041   1.329   9.414
 6079WAT      O18478   8.419   8.248   3.612
 6079WAT     H118479   8.339   8.282   3.561
 6079WAT     H218480   8.404   8.152   3.636
 6080WAT      O18481   6.376   9.515   2.836
 6080WAT     H118482   6.420   9.520   2.926
 6080WAT     H218483   6.447   9.510   2.766
 6081WAT      O18484   3.900   8.592   3.096
 6081WAT     H118485   3.843   8.596   3.178
 6081WAT     H218486   3.844   8.610   3.015
 6082WAT      O18487   4.977   6.098   7.926
 6082WAT     H118488   5.031   6.105   7.842
 6082WAT     H218489   4.916   6.177   7.934
 6083WAT      O18490   4.439   2.457   5.496
 6083WAT     H118491   4.437   2.362   5.463
 6083WAT     H218492   4.534   2.486   5.508
 6084WAT      O18493   3.081   2.578   1.217
 6084WAT     H118494   3.033   2.603   1.133
 6084WAT     H218495   3.019   2.587   1.295
 6085WAT      O18496   5.283   2.894   3.447
 6085WAT     H118497   5.367   2.845   3.470
 6085WAT     H218498   5.274   2.976   3.503
 6086WAT      O18499   8.274   2.634   6.670
 6086WAT     H118500   8.241   2.728   6.662
 6086WAT     H218501   8.374   2.635   6.678
 6087WAT      O18502   4.560   0.416   4.935
 6087WAT     H118503   4.631   0.348   4.957
 6087WAT     H218504   4.599   0.487   4.876
 6088WAT      O18505   9.456   3.753   1.836
 6088WAT     H118506   9.500   3.715   1.755
 6088WAT     H218507   9.439   3.850   1.823
 6089WAT      O18508   6.163   1.964   0.242
 6089WAT     H118509   6.127   1.934   0.154
 6089WAT     H218510   6.122   1.909   0.315
 6090WAT      O18511   1.888   8.208   9.648
 6090WAT     H118512   1.872   8.293   9.698
 6090WAT     H218513   1.940   8.228   9.565
 6091WAT      O18514   2.150   2.482   8.876
 6091WAT     H118515   2.228   2.426   8.904
 6091WAT     H218516   2.150   2.568   8.928
 6092WAT      O18517   2.405   4.899   9.715
 6092WAT     H118518   2.363   4.865   9.631
 6092WAT     H218519   2.414   4.824   9.780
 6093WAT      O18520   6.489   5.014   2.314
 6093WAT     H118521   6.442   4.941   2.363
 6093WAT     H218522   6.575   4.980   2.276
 6094WAT      O18523   0.383   8.811   1.329
 6094WAT     H118524   0.404   8.719   1.360
 6094WAT     H218525   0.309   8.808   1.260
 6095WAT      O18526   6.746   9.439   7.676
 6095WAT     H118527   6.844   9.451   7.689
 6095WAT     H218528   6.705   9.527   7.651
 6096WAT      O18529   7.169   3.583   9.455
 6096WAT     H118530   7.227   3.664   9.462
 6096WAT     H218531   7.074   3.608   9.472
 6097WAT      O18532   5.671   2.965   0.242
 6097WAT     H118533   5.676   3.059   0.274
 6097WAT     H218534   5.608   2.959   0.165
 6098WAT      O18535   0.421   0.437   3.460
 6098WAT     H118536   0.425   0.472   3.553
 6098WAT     H218537   0.328   0.407   3.439
 6099WAT      O18538   2.257   4.476   4.727
 6099WAT     H118539   2.163   4.444   4.715
 6099WAT     H218540   2.311   4.450   4.646
 6100WAT      O18541   5.086   9.071   7.377
 6100WAT     H118542   5.178   9.109   7.388
 6100WAT     H218543   5.068   9.055   7.280
 6101WAT      O18544   0.599   7.886   7.642
 6101WAT     H118545   0.657   7.865   7.721
 6101WAT     H218546   0.514   7.929   7.674
 6102WAT      O18547   2.640   8.565   2.510
 6102WAT     H118548   2.608   8.539   2.418
 6102WAT     H218549   2.714   8.504   2.538
 6103WAT      O18550   4.479   4.649   4.536
 6103WAT     H118551   4.538   4.670   4.614
 6103WAT     H218552   4.389   4.620   4.570
 6104WAT      O18553   3.208   4.432   5.897
 6104WAT     H118554   3.135   4.459   5.834
 6104WAT     H218555   3.250   4.347   5.866
 6105WAT      O18556   3.703   0.541   8.719
 6105WAT     H118557   3.661   0.559   8.630
 6105WAT     H218558   3.798   0.513   8.705
 6106WAT      O18559   3.475   1.648   7.690
 6106WAT     H118560   3.540   1.714   7.652
 6106WAT     H218561   3.391   1.696   7.716
 6107WAT      O18562   2.264   3.715   3.175
 6107WAT     H118563   2.280   3.622   3.208
 6107WAT     H218564   2.206   3.764   3.241
 6108WAT      O18565   7.032   2.241   5.759
 6108WAT     H118566   7.099   2.244   5.685
 6108WAT     H218567   7.077   2.208   5.843
 6109WAT      O18568   2.946   7.720   7.423
 6109WAT     H118569   2.915   7.759   7.510
 6109WAT     H218570   2.867   7.695   7.368
 6110WAT      O18571   4.232   0.488   2.475
 6110WAT     H118572   4.330   0.504   2.469
 6110WAT     H218573   4.187   0.570   2.509
 6111WAT      O18574   5.422   6.633   0.324
 6111WAT     H118575   5.492   6.608   0.391
 6111WAT     H218576   5.385   6.550   0.282
 6112WAT      O18577   3.712   0.024   7.888
 6112WAT     H118578   3.667  -0.028   7.961
 6112WAT     H218579   3.648   0.090   7.850
 6113WAT      O18580   9.743   7.330   3.623
 6113WAT     H118581   9.796   7.326   3.708
 6113WAT     H218582   9.707   7.238   3.602
 6114WAT      O18583   1.401   5.612   6.942
 6114WAT     H118584   1.448   5.559   7.012
 6114WAT     H218585   1.352   5.551   6.880
 6115WAT      O18586   2.271   0.745   9.212
 6115WAT     H118587   2.180   0.773   9.242
 6115WAT     H218588   2.263   0.686   9.132
 6116WAT      O18589   2.114   7.045   1.067
 6116WAT     H118590   2.208   7.038   1.034
 6116WAT     H218591   2.080   7.138   1.056
 6117WAT      O18592   4.765   4.033   0.961
 6117WAT     H118593   4.821   4.010   1.041
 6117WAT     H218594   4.704   4.109   0.984
 6118WAT      O18595   4.662   7.062   9.567
 6118WAT     H118596   4.588   6.996   9.551
 6118WAT     H218597   4.624   7.149   9.597
 6119WAT      O18598   4.096   6.732   4.345
 6119WAT     H118599   4.042   6.662   4.391
 6119WAT     H218600   4.160   6.688   4.282
 6120WAT      O18601   3.725   1.480   2.896
 6120WAT     H118602   3.785   1.402   2.910
 6120WAT     H218603   3.643   1.451   2.845
 6121WAT      O18604   4.117   3.748   7.409
 6121WAT     H118605   4.211   3.778   7.397
 6121WAT     H218606   4.105   3.712   7.502
 6122WAT      O18607   7.657   5.017   9.097
 6122WAT     H118608   7.604   5.035   9.014
 6122WAT     H218609   7.753   5.008   9.073
 6123WAT      O18610   2.041   6.864   6.129
 6123WAT     H118611   2.077   6.934   6.191
 6123WAT     H218612   1.941   6.869   6.126
 6124WAT      O18613   6.082   2.538   7.975
 6124WAT     H118614   6.132   2.510   7.893
 6124WAT     H218615   6.074   2.637   7.977
 6125WAT      O18616   1.041   2.167   1.729
 6125WAT     H118617   0.969   2.219   1.777
 6125WAT     H218618   1.120   2.157   1.789
 6126WAT      O18619   3.912   7.895   2.970
 6126WAT     H118620   4.010   7.878   2.982
 6126WAT     H218621   3.889   7.885   2.873
 6127WAT      O18622   8.742   5.666   6.220
 6127WAT     H118623   8.804   5.674   6.298
 6127WAT     H218624   8.690   5.750   6.209
 6128WAT      O18625   1.515   8.074   4.356
 6128WAT     H118626   1.538   7.979   4.378
 6128WAT     H218627   1.582   8.110   4.291
 6129WAT      O18628   3.687   0.442   8.172
 6129WAT     H118629   3.739   0.368   8.131
 6129WAT     H218630   3.636   0.407   8.251
 6130WAT      O18631   5.762   6.019   6.238
 6130WAT     H118632   5.818   6.099   6.216
 6130WAT     H218633   5.822   5.940   6.254
 6131WAT      O18634   9.666   1.895   6.156
 6131WAT     H118635   9.738   1.845   6.109
 6131WAT     H218636   9.671   1.877   6.254
 6132WAT      O18637   3.228   2.684   1.578
 6132WAT     H118638   3.302   2.711   1.638
 6132WAT     H218639   3.160   2.757   1.573
 6133WAT      O18640   1.069   9.346   5.779
 6133WAT     H118641   1.046   9.261   5.825
 6133WAT     H218642   1.081   9.329   5.681
 6134WAT      O18643   6.989   3.441   7.364
 6134WAT     H118644   6.913   3.456   7.301
 6134WAT     H218645   6.983   3.349   7.402
 6135WAT      O18646   8.036   9.730   8.630
 6135WAT     H118647   8.116   9.769   8.584
 6135WAT     H218648   8.004   9.650   8.580
 6136WAT      O18649   8.723   5.276   8.138
 6136WAT     H118650   8.726   5.373   8.114
 6136WAT     H218651   8.675   5.265   8.225
 6137WAT      O18652   3.747   5.263   1.758
 6137WAT     H118653   3.714   5.177   1.718
 6137WAT     H218654   3.843   5.276   1.733
 6138WAT      O18655   2.044   2.964   8.997
 6138WAT     H118656   2.016   2.989   9.090
 6138WAT     H218657   1.963   2.949   8.941
 6139WAT      O18658   2.798   2.318   5.158
 6139WAT     H118659   2.852   2.262   5.095
 6139WAT     H218660   2.773   2.263   5.238
 6140WAT      O18661   2.857   0.791   7.337
 6140WAT     H118662   2.919   0.719   7.305
 6140WAT     H218663   2.895   0.880   7.311
 6141WAT      O18664   6.924   6.348   5.929
 6141WAT     H118665   6.864   6.416   5.884
 6141WAT     H218666   6.926   6.264   5.874
 6142WAT      O18667   1.643   8.819   3.779
 6142WAT     H118668   1.638   8.914   3.810
 6142WAT     H218669   1.706   8.768   3.837
 6143WAT      O18670   7.696   6.277   9.062
 6143WAT     H118671   7.733   6.186   9.080
 6143WAT     H218672   7.597   6.276   9.079
 6144WAT      O18673   6.866   6.817   2.527
 6144WAT     H118674   6.843   6.841   2.622
 6144WAT     H218675   6.858   6.718   2.515
 6145WAT      O18676   6.076   5.858   8.541
 6145WAT     H118677   6.048   5.784   8.480
 6145WAT     H218678   6.014   5.935   8.531
 6146WAT      O18679   6.748   3.294   2.005
 6146WAT     H118680   6.815   3.326   1.939
 6146WAT     H218681   6.758   3.344   2.091
 6147WAT      O18682   2.415   6.736   8.221
 6147WAT     H118683   2.409   6.651   8.274
 6147WAT     H218684   2.448   6.810   8.280
 6148WAT      O18685   6.156   1.140   1.128
 6148WAT     H118686   6.251   1.115   1.115
 6148WAT     H218687   6.137   1.226   1.080
 6149WAT      O18688   7.919   6.292   6.160
 6149WAT     H118689   7.977   6.372   6.177
 6149WAT     H218690   7.883   6.296   6.067
 6150WAT      O18691   1.078   5.503   0.615
 6150WAT     H118692   1.143   5.443   0.567
 6150WAT     H218693   1.121   5.592   0.632
 6151WAT      O18694   4.506   7.650   5.023
 6151WAT     H118695   4.411   7.643   4.991
 6151WAT     H218696   4.559   7.703   4.958
 6152WAT      O18697   5.683   0.672   3.119
 6152WAT     H118698   5.702   0.663   3.217
 6152WAT     H218699   5.726   0.755   3.083
 6153WAT      O18700   3.430   3.103   6.908
 6153WAT     H118701   3.442   3.070   7.001
 6153WAT     H218702   3.332   3.108   6.887
 6154WAT      O18703   5.217   6.266   0.699
 6154WAT     H118704   5.185   6.358   0.723
 6154WAT     H218705   5.289   6.273   0.630
 6155WAT      O18706   1.786   4.348   7.816
 6155WAT     H118707   1.763   4.302   7.730
 6155WAT     H218708   1.878   4.320   7.845
 6156WAT      O18709   6.371   4.649   2.699
 6156WAT     H118710   6.423   4.575   2.657
 6156WAT     H218711   6.312   4.611   2.771
 6157WAT      O18712   8.776   7.158   7.832
 6157WAT     H118713   8.761   7.135   7.928
 6157WAT     H218714   8.740   7.086   7.773
 6158WAT      O18715   0.431   8.998   6.855
 6158WAT     H118716   0.393   9.003   6.948
 6158WAT     H218717   0.397   9.074   6.801
 6159WAT      O18718   0.831   4.800   9.538
 6159WAT     H118719   0.749   4.744   9.532
 6159WAT     H218720   0.811   4.894   9.510
 6160WAT      O18721   8.488   8.551   7.069
 6160WAT     H118722   8.438   8.471   7.102
 6160WAT     H218723   8.585   8.528   7.059
 6161WAT      O18724   3.689   8.683   5.007
 6161WAT     H118725   3.713   8.588   5.027
 6161WAT     H218726   3.649   8.689   4.915
 6162WAT      O18727   2.645   3.910   1.591
 6162WAT     H118728   2.603   3.853   1.521
 6162WAT     H218729   2.721   3.861   1.633
 6163WAT      O18730   2.210   6.904   9.429
 6163WAT     H118731   2.214   6.813   9.472
 6163WAT     H218732   2.303   6.942   9.427
 6164WAT      O18733   5.516   9.349   8.762
 6164WAT     H118734   5.590   9.296   8.804
 6164WAT     H218735   5.521   9.341   8.663
 6165WAT      O18736   8.406   6.900   4.199
 6165WAT     H118737   8.489   6.951   4.177
 6165WAT     H218738   8.365   6.939   4.282
 6166WAT      O18739   6.826   1.485   0.659
 6166WAT     H118740   6.796   1.579   0.641
 6166WAT     H218741   6.849   1.440   0.572
 6167WAT      O18742   0.763   3.798   5.783
 6167WAT     H118743   0.827   3.844   5.844
 6167WAT     H218744   0.774   3.699   5.793
 6168WAT      O18745   5.742   8.051   7.651
 6168WAT     H118746   5.763   8.102   7.568
 6168WAT     H218747   5.751   8.111   7.731
 6169WAT      O18748   0.359   2.618   9.568
 6169WAT     H118749   0.343   2.715   9.548
 6169WAT     H218750   0.330   2.563   9.490
 6170WAT      O18751   3.606   7.154   8.132
 6170WAT     H118752   3.560   7.242   8.119
 6170WAT     H218753   3.700   7.169   8.161
 6171WAT      O18754   7.484   0.482   3.581
 6171WAT     H118755   7.558   0.499   3.516
 6171WAT     H218756   7.495   0.541   3.661
 6172WAT      O18757   9.350   3.428   6.236
 6172WAT     H118758   9.440   3.385   6.230
 6172WAT     H218759   9.280   3.362   6.209
 6173WAT      O18760   9.133   6.409   8.827
 6173WAT     H118761   9.224   6.433   8.792
 6173WAT     H218762   9.121   6.450   8.918
 6174WAT      O18763   7.335   9.462   1.361
 6174WAT     H118764   7.380   9.441   1.448
 6174WAT     H218765   7.403   9.494   1.295
 6175WAT      O18766   7.894   5.765   0.193
 6175WAT     H118767   7.900   5.733   0.288
 6175WAT     H218768   7.870   5.862   0.192
 6176WAT      O18769   1.327   3.711   0.428
 6176WAT     H118770   1.313   3.760   0.342
 6176WAT     H218771   1.280   3.760   0.501
 6177WAT      O18772   0.687   6.402   1.330
 6177WAT     H118773   0.691   6.493   1.371
 6177WAT     H218774   0.778   6.377   1.297
 6178WAT      O18775   3.609   1.129   4.195
 6178WAT     H118776   3.547   1.171   4.261
 6178WAT     H218777   3.595   1.171   4.105
 6179WAT      O18778   1.244   5.158   2.414
 6179WAT     H118779   1.302   5.217   2.358
 6179WAT     H218780   1.297   5.077   2.441
 6180WAT      O18781   5.067   2.939   7.808
 6180WAT     H118782   5.015   3.012   7.765
 6180WAT     H218783   5.074   2.861   7.745
 6181WAT      O18784   5.914   2.080   4.479
 6181WAT     H118785   5.925   2.050   4.384
 6181WAT     H218786   5.831   2.038   4.517
 6182WAT      O18787   9.583   2.285   7.485
 6182WAT     H118788   9.673   2.287   7.529
 6182WAT     H218789   9.512   2.280   7.555
 6183WAT      O18790   5.290   7.108   5.339
 6183WAT     H118791   5.318   7.081   5.247
 6183WAT     H218792   5.233   7.190   5.333
 6184WAT      O18793   0.347   3.184   4.833
 6184WAT     H118794   0.364   3.272   4.877
 6184WAT     H218795   0.392   3.181   4.744
 6185WAT      O18796   9.281   0.235   9.699
 6185WAT     H118797   9.294   0.186   9.612
 6185WAT     H218798   9.307   0.175   9.775
 6186WAT      O18799   4.860   5.726   7.273
 6186WAT     H118800   4.849   5.765   7.181
 6186WAT     H218801   4.935   5.661   7.272
 6187WAT      O18802   5.733   5.899   4.391
 6187WAT     H118803   5.823   5.942   4.399
 6187WAT     H218804   5.695   5.882   4.482
 6188WAT      O18805   7.904   8.010   3.805
 6188WAT     H118806   7.862   8.097   3.829
 6188WAT     H218807   7.867   7.938   3.864
 6189WAT      O18808   3.180   3.898   1.758
 6189WAT     H118809   3.276   3.882   1.782
 6189WAT     H218810   3.142   3.969   1.818
 6190WAT      O18811   0.349   2.965   1.270
 6190WAT     H118812   0.334   2.979   1.173
 6190WAT     H218813   0.278   2.904   1.306
 6191WAT      O18814   2.611   5.729   8.359
 6191WAT     H118815   2.548   5.753   8.433
 6191WAT     H218816   2.650   5.812   8.321
 6192WAT      O18817   2.663   0.018   6.653
 6192WAT     H118818   2.625   0.017   6.745
 6192WAT     H218819   2.753   0.063   6.654
 6193WAT      O18820   3.549   5.890   9.290
 6193WAT     H118821   3.573   5.843   9.205
 6193WAT     H218822   3.455   5.923   9.285
 6194WAT      O18823   0.448   6.815   2.909
 6194WAT     H118824   0.408   6.750   2.974
 6194WAT     H218825   0.382   6.834   2.836
 6195WAT      O18826   1.021   9.042   2.286
 6195WAT     H118827   1.120   9.034   2.297
 6195WAT     H218828   0.987   8.966   2.231
 6196WAT      O18829   1.468   2.193   7.920
 6196WAT     H118830   1.465   2.093   7.911
 6196WAT     H218831   1.549   2.219   7.972
 6197WAT      O18832   0.701   2.971   9.837
 6197WAT     H118833   0.795   2.948   9.864
 6197WAT     H218834   0.704   3.030   9.756
 6198WAT      O18835   8.793   5.992   7.006
 6198WAT     H118836   8.819   5.933   6.930
 6198WAT     H218837   8.844   6.078   7.002
 6199WAT      O18838   8.909   2.007   7.519
 6199WAT     H118839   8.989   1.970   7.566
 6199WAT     H218840   8.928   2.015   7.421
 6200WAT      O18841   5.461   2.874   6.010
 6200WAT     H118842   5.532   2.832   5.954
 6200WAT     H218843   5.408   2.938   5.955
 6201WAT      O18844   1.707   9.029   0.408
 6201WAT     H118845   1.712   9.068   0.317
 6201WAT     H218846   1.751   8.939   0.408
 6202WAT      O18847   6.149   5.237   5.506
 6202WAT     H118848   6.096   5.152   5.497
 6202WAT     H218849   6.168   5.253   5.603
 6203WAT      O18850   8.099   6.294   3.522
 6203WAT     H118851   8.067   6.377   3.567
 6203WAT     H218852   8.186   6.266   3.561
 6204WAT      O18853   4.453   8.589   5.808
 6204WAT     H118854   4.529   8.641   5.848
 6204WAT     H218855   4.478   8.493   5.801
 6205WAT      O18856   0.334   4.471   7.565
 6205WAT     H118857   0.349   4.570   7.568
 6205WAT     H218858   0.239   4.452   7.543
 6206WAT      O18859   2.652   6.979   6.111
 6206WAT     H118860   2.696   6.893   6.085
 6206WAT     H218861   2.711   7.055   6.086
 6207WAT      O18862   5.511   1.656   2.161
 6207WAT     H118863   5.512   1.559   2.187
 6207WAT     H218864   5.466   1.666   2.072
 6208WAT      O18865   1.558   7.338   8.262
 6208WAT     H118866   1.554   7.320   8.360
 6208WAT     H218867   1.485   7.401   8.236
 6209WAT      O18868   2.623   3.683   3.760
 6209WAT     H118869   2.641   3.750   3.832
 6209WAT     H218870   2.527   3.657   3.762
 6210WAT      O18871   8.434   8.476   6.296
 6210WAT     H118872   8.478   8.522   6.219
 6210WAT     H218873   8.500   8.415   6.340
 6211WAT      O18874   7.763   5.483   1.736
 6211WAT     H118875   7.832   5.415   1.761
 6211WAT     H218876   7.676   5.459   1.777
 6212WAT      O18877   9.034   1.704   8.067
 6212WAT     H118878   8.987   1.783   8.030
 6212WAT     H218879   9.009   1.622   8.015
 6213WAT      O18880   1.014   2.072   6.219
 6213WAT     H118881   0.958   2.128   6.159
 6213WAT     H218882   0.980   2.080   6.313
 6214WAT      O18883   5.325   7.707   6.992
 6214WAT     H118884   5.279   7.786   7.034
 6214WAT     H218885   5.401   7.739   6.935
 6215WAT      O18886   1.755   5.237   1.591
 6215WAT     H118887   1.701   5.210   1.511
 6215WAT     H218888   1.849   5.203   1.581
 6216WAT      O18889   8.445   6.311   4.814
 6216WAT     H118890   8.386   6.350   4.742
 6216WAT     H218891   8.475   6.220   4.787
 6217WAT      O18892   4.812   8.988   6.097
 6217WAT     H118893   4.801   8.923   6.021
 6217WAT     H218894   4.877   9.059   6.070
 6218WAT      O18895   1.199   4.226   3.301
 6218WAT     H118896   1.144   4.168   3.241
 6218WAT     H218897   1.226   4.309   3.253
 6219WAT      O18898   7.823   2.103   5.558
 6219WAT     H118899   7.784   2.023   5.513
 6219WAT     H218900   7.808   2.184   5.502
 6220WAT      O18901   3.071   0.970   0.564
 6220WAT     H118902   2.985   0.969   0.615
 6220WAT     H218903   3.145   0.998   0.626
 6221WAT      O18904   4.126   5.143   8.896
 6221WAT     H118905   4.061   5.151   8.821
 6221WAT     H218906   4.195   5.074   8.872
 6222WAT      O18907   1.451   8.698   9.554
 6222WAT     H118908   1.370   8.657   9.597
 6222WAT     H218909   1.532   8.672   9.606
 6223WAT      O18910   2.085   3.969   9.762
 6223WAT     H118911   2.108   4.065   9.778
 6223WAT     H218912   2.068   3.924   9.849
 6224WAT      O18913   8.142   0.704   3.585
 6224WAT     H118914   8.150   0.795   3.545
 6224WAT     H218915   8.162   0.634   3.515
 6225WAT      O18916   4.613   8.131   5.641
 6225WAT     H118917   4.671   8.085   5.709
 6225WAT     H218918   4.530   8.077   5.626
 6226WAT      O18919   1.809   4.027   4.656
 6226WAT     H118920   1.827   3.929   4.643
 6226WAT     H218921   1.893   4.072   4.686
 6227WAT      O18922   6.750   9.143   4.729
 6227WAT     H118923   6.835   9.183   4.696
 6227WAT     H218924   6.680   9.214   4.737
 6228WAT      O18925   4.588   5.803   2.187
 6228WAT     H118926   4.488   5.802   2.183
 6228WAT     H218927   4.623   5.714   2.158
 6229WAT      O18928   4.246   0.518   0.599
 6229WAT     H118929   4.180   0.593   0.594
 6229WAT     H218930   4.300   0.516   0.515
 6230WAT      O18931   8.395   4.800   7.210
 6230WAT     H118932   8.413   4.770   7.116
 6230WAT     H218933   8.352   4.890   7.208
 6231WAT      O18934   9.228   4.534   3.641
 6231WAT     H118935   9.165   4.467   3.603
 6231WAT     H218936   9.308   4.542   3.583
 6232WAT      O18937   7.744   6.870   6.951
 6232WAT     H118938   7.790   6.939   7.005
 6232WAT     H218939   7.810   6.824   6.892
 6233WAT      O18940   3.604   5.958   4.991
 6233WAT     H118941   3.581   5.921   4.901
 6233WAT     H218942   3.526   5.948   5.052
 6234WAT      O18943   6.821   9.478   3.169
 6234WAT     H118944   6.778   9.568   3.157
 6234WAT     H218945   6.760   9.407   3.137
 6235WAT      O18946   7.527   7.479   6.879
 6235WAT     H118947   7.436   7.521   6.888
 6235WAT     H218948   7.579   7.528   6.809
 6236WAT      O18949   6.422   4.286   2.083
 6236WAT     H118950   6.411   4.385   2.075
 6236WAT     H218951   6.502   4.257   2.031
 6237WAT      O18952   7.035   5.297   8.102
 6237WAT     H118953   7.050   5.216   8.158
 6237WAT     H218954   7.019   5.376   8.162
 6238WAT      O18955   6.943   2.394   3.366
 6238WAT     H118956   6.908   2.481   3.402
 6238WAT     H218957   6.928   2.322   3.434
 6239WAT      O18958   4.222   2.583   4.509
 6239WAT     H118959   4.179   2.558   4.422
 6239WAT     H218960   4.322   2.573   4.501
 6240WAT      O18961   7.535   0.792   7.917
 6240WAT     H118962   7.632   0.772   7.901
 6240WAT     H218963   7.495   0.834   7.836
 6241WAT      O18964   1.822   1.887   3.732
 6241WAT     H118965   1.890   1.898   3.805
 6241WAT     H218966   1.828   1.964   3.669
 6242WAT      O18967   3.797   9.725   4.282
 6242WAT     H118968   3.881   9.777   4.267
 6242WAT     H218969   3.819   9.628   4.295
 6243WAT      O18970   3.335   6.844   7.089
 6243WAT     H118971   3.302   6.937   7.103
 6243WAT     H218972   3.261   6.787   7.053
 6244WAT      O18973   8.763   5.089   8.466
 6244WAT     H118974   8.783   5.024   8.393
 6244WAT     H218975   8.695   5.155   8.434
 6245WAT      O18976   7.855   0.623   4.958
 6245WAT     H118977   7.868   0.658   5.051
 6245WAT     H218978   7.759   0.633   4.932
 6246WAT      O18979   3.929   9.332   2.152
 6246WAT     H118980   3.997   9.330   2.225
 6246WAT     H218981   3.900   9.426   2.137
 6247WAT      O18982   0.991   4.053   1.435
 6247WAT     H118983   0.893   4.038   1.419
 6247WAT     H218984   1.038   3.965   1.438
 6248WAT      O18985   4.680   8.991   4.539
 6248WAT     H118986   4.745   8.927   4.498
 6248WAT     H218987   4.666   8.968   4.635
 6249WAT      O18988   7.039   5.704   1.446
 6249WAT     H118989   6.996   5.616   1.466
 6249WAT     H218990   6.993   5.776   1.498
 6250WAT      O18991   8.707   7.676   2.723
 6250WAT     H118992   8.621   7.716   2.755
 6250WAT     H218993   8.688   7.592   2.673
 6251WAT      O18994   1.969   7.675   8.526
 6251WAT     H118995   1.961   7.774   8.537
 6251WAT     H218996   1.943   7.650   8.433
 6252WAT      O18997   2.000   7.961   1.539
 6252WAT     H118998   2.026   7.902   1.615
 6252WAT     H218999   1.906   7.941   1.512
 6253WAT      O19000   7.333   7.226   4.431
 6253WAT     H119001   7.260   7.193   4.492
 6253WAT     H219002   7.409   7.161   4.432
 6254WAT      O19003   2.922   2.563   3.461
 6254WAT     H119004   3.001   2.620   3.435
 6254WAT     H219005   2.954   2.474   3.493
 6255WAT      O19006   3.203   7.121   7.886
 6255WAT     H119007   3.301   7.104   7.876
 6255WAT     H219008   3.188   7.211   7.926
 6256WAT      O19009   5.773   6.569   8.393
 6256WAT     H119010   5.860   6.519   8.397
 6256WAT     H219011   5.788   6.658   8.350
 6257WAT      O19012   1.534   0.513   4.569
 6257WAT     H119013   1.475   0.593   4.556
 6257WAT     H219014   1.479   0.434   4.594
 6258WAT      O19015   9.173   1.114   9.471
 6258WAT     H119016   9.170   1.022   9.510
 6258WAT     H219017   9.149   1.181   9.542
 6259WAT      O19018   6.130   2.886   8.193
 6259WAT     H119019   6.167   2.965   8.145
 6259WAT     H219020   6.203   2.820   8.209
 6260WAT      O19021   4.507   1.489   7.280
 6260WAT     H119022   4.484   1.452   7.190
 6260WAT     H219023   4.571   1.428   7.326
 6261WAT      O19024   0.481   0.727   5.953
 6261WAT     H119025   0.387   0.710   5.983
 6261WAT     H219026   0.512   0.651   5.895
 6262WAT      O19027   0.880   2.927   9.399
 6262WAT     H119028   0.790   2.934   9.442
 6262WAT     H219029   0.870   2.894   9.305
 6263WAT      O19030   6.313   5.098   9.062
 6263WAT     H119031   6.386   5.153   9.101
 6263WAT     H219032   6.232   5.155   9.048
 6264WAT      O19033   0.840   1.690   8.549
 6264WAT     H119034   0.802   1.600   8.571
 6264WAT     H219035   0.874   1.690   8.455
 6265WAT      O19036   1.673   2.166   6.427
 6265WAT     H119037   1.648   2.112   6.507
 6265WAT     H219038   1.634   2.125   6.345
 6266WAT      O19039   0.679   9.358   2.375
 6266WAT     H119040   0.630   9.292   2.431
 6266WAT     H219041   0.762   9.315   2.338
 6267WAT      O19042   3.458   9.000   0.590
 6267WAT     H119043   3.402   8.982   0.672
 6267WAT     H219044   3.515   9.080   0.605
 6268WAT      O19045   9.361   3.672   0.622
 6268WAT     H119046   9.355   3.575   0.598
 6268WAT     H219047   9.281   3.720   0.586
 6269WAT      O19048   4.346   0.824   9.172
 6269WAT     H119049   4.318   0.895   9.108
 6269WAT     H219050   4.331   0.856   9.266
 6270WAT      O19051   7.133   7.743   4.686
 6270WAT     H119052   7.142   7.767   4.782
 6270WAT     H219053   7.215   7.774   4.637
 6271WAT      O19054   7.771   1.063   7.819
 6271WAT     H119055   7.735   1.091   7.730
 6271WAT     H219056   7.858   1.017   7.807
 6272WAT      O19057   5.880   0.309   9.891
 6272WAT     H119058   5.915   0.367   9.965
 6272WAT     H219059   5.865   0.364   9.809
 6273WAT      O19060   1.139   5.942   8.018
 6273WAT     H119061   1.039   5.946   8.029
 6273WAT     H219062   1.178   6.031   8.042
 6274WAT      O19063   6.175   7.320   2.218
 6274WAT     H119064   6.221   7.231   2.226
 6274WAT     H219065   6.229   7.380   2.159
 6275WAT      O19066   3.282   8.369   5.148
 6275WAT     H119067   3.237   8.414   5.071
 6275WAT     H219068   3.338   8.436   5.197
 6276WAT      O19069   2.725   7.437   9.331
 6276WAT     H119070   2.752   7.494   9.253
 6276WAT     H219071   2.630   7.407   9.318
 6277WAT      O19072   7.670   4.816   3.022
 6277WAT     H119073   7.746   4.854   3.076
 6277WAT     H219074   7.697   4.811   2.925
 6278WAT      O19075   6.712   4.814   8.754
 6278WAT     H119076   6.634   4.811   8.816
 6278WAT     H219077   6.794   4.842   8.804
 6279WAT      O19078   2.958   3.331   2.054
 6279WAT     H119079   2.969   3.406   2.119
 6279WAT     H219080   3.048   3.297   2.028
 6280WAT      O19081   6.412   2.641   7.996
 6280WAT     H119082   6.335   2.692   7.958
 6280WAT     H219083   6.388   2.610   8.088
 6281WAT      O19084   3.994   1.665   8.815
 6281WAT     H119085   4.027   1.612   8.893
 6281WAT     H219086   4.037   1.631   8.731
 6282WAT      O19087   5.408   3.605   0.089
 6282WAT     H119088   5.434   3.518   0.046
 6282WAT     H219089   5.420   3.679   0.023
 6283WAT      O19090   9.461   0.376   1.833
 6283WAT     H119091   9.365   0.390   1.860
 6283WAT     H219092   9.470   0.392   1.735
 6284WAT      O19093   4.204   1.132   6.406
 6284WAT     H119094   4.184   1.085   6.492
 6284WAT     H219095   4.289   1.185   6.416
 6285WAT      O19096   1.968   4.076   7.588
 6285WAT     H119097   1.972   4.053   7.491
 6285WAT     H219098   1.899   4.147   7.603
 6286WAT      O19099   8.238   6.109   8.465
 6286WAT     H119100   8.168   6.121   8.395
 6286WAT     H219101   8.195   6.093   8.554
 6287WAT      O19102   7.707   8.606   7.678
 6287WAT     H119103   7.673   8.519   7.642
 6287WAT     H219104   7.737   8.664   7.603
 6288WAT      O19105   7.245   9.316   7.061
 6288WAT     H119106   7.213   9.222   7.059
 6288WAT     H219107   7.249   9.352   6.967
 6289WAT      O19108   2.296   2.561   2.359
 6289WAT     H119109   2.368   2.576   2.426
 6289WAT     H219110   2.312   2.474   2.312
 6290WAT      O19111   0.911   7.696   1.907
 6290WAT     H119112   0.924   7.785   1.866
 6290WAT     H219113   0.996   7.667   1.952
 6291WAT      O19114   6.520   5.969   8.849
 6291WAT     H119115   6.607   6.017   8.849
 6291WAT     H219116   6.501   5.934   8.757
 6292WAT      O19117   9.072   6.047   8.204
 6292WAT     H119118   9.098   5.975   8.268
 6292WAT     H219119   9.025   6.120   8.254
 6293WAT      O19120   6.956   6.921   6.295
 6293WAT     H119121   6.908   6.845   6.338
 6293WAT     H219122   7.011   6.969   6.363
 6294WAT      O19123   0.954   4.556   9.801
 6294WAT     H119124   0.952   4.457   9.813
 6294WAT     H219125   1.001   4.578   9.715
 6295WAT      O19126   7.042   4.095   7.520
 6295WAT     H119127   7.041   3.996   7.505
 6295WAT     H219128   6.949   4.128   7.531
 6296WAT      O19129   4.730   4.116   2.247
 6296WAT     H119130   4.770   4.025   2.241
 6296WAT     H219131   4.632   4.111   2.227
 6297WAT      O19132   1.332   1.337   2.136
 6297WAT     H119133   1.430   1.354   2.132
 6297WAT     H219134   1.307   1.267   2.069
 6298WAT      O19135   3.466   9.601   1.717
 6298WAT     H119136   3.391   9.543   1.687
 6298WAT     H219137   3.456   9.692   1.678
 6299WAT      O19138   6.236   2.068   4.963
 6299WAT     H119139   6.325   2.096   4.928
 6299WAT     H219140   6.243   2.042   5.059
 6300WAT      O19141   1.393   0.069   8.517
 6300WAT     H119142   1.419   0.062   8.420
 6300WAT     H219143   1.318   0.006   8.535
 6301WAT      O19144   7.840   2.087   1.817
 6301WAT     H119145   7.928   2.091   1.769
 6301WAT     H219146   7.856   2.077   1.915
 6302WAT      O19147   3.620   9.266   8.513
 6302WAT     H119148   3.568   9.351   8.512
 6302WAT     H219149   3.567   9.194   8.468
 6303WAT      O19150   6.790   6.722   6.874
 6303WAT     H119151   6.709   6.677   6.913
 6303WAT     H219152   6.861   6.653   6.855
 6304WAT      O19153   5.151   2.517   3.816
 6304WAT     H119154   5.100   2.462   3.882
 6304WAT     H219155   5.233   2.468   3.788
 6305WAT      O19156   3.704   2.625   3.896
 6305WAT     H119157   3.618   2.662   3.931
 6305WAT     H219158   3.762   2.596   3.972
 6306WAT      O19159   0.382   2.090   4.569
 6306WAT     H119160   0.382   2.162   4.638
 6306WAT     H219161   0.348   2.127   4.482
 6307WAT      O19162   8.375   6.168   7.153
 6307WAT     H119163   8.423   6.118   7.225
 6307WAT     H219164   8.408   6.263   7.151
 6308WAT      O19165   3.284   4.414   5.588
 6308WAT     H119166   3.311   4.504   5.620
 6308WAT     H219167   3.186   4.401   5.603
 6309WAT      O19168   6.810   6.132   2.428
 6309WAT     H119169   6.730   6.123   2.488
 6309WAT     H219170   6.820   6.228   2.401
 6310WAT      O19171   4.096   8.837   5.381
 6310WAT     H119172   4.016   8.861   5.327
 6310WAT     H219173   4.079   8.858   5.477
 6311WAT      O19174   7.925   0.225   3.303
 6311WAT     H119175   7.995   0.173   3.254
 6311WAT     H219176   7.960   0.250   3.394
 6312WAT      O19177   0.359   4.742   7.575
 6312WAT     H119178   0.408   4.777   7.495
 6312WAT     H219179   0.322   4.819   7.627
 6313WAT      O19180   3.787   5.626   1.588
 6313WAT     H119181   3.861   5.591   1.530
 6313WAT     H219182   3.818   5.629   1.683
 6314WAT      O19183   9.460   6.645   0.530
 6314WAT     H119184   9.514   6.707   0.586
 6314WAT     H219185   9.511   6.560   0.515
 6315WAT      O19186   9.266   9.599   8.987
 6315WAT     H119187   9.233   9.559   8.901
 6315WAT     H219188   9.364   9.616   8.979
 6316WAT      O19189   7.450   9.148   8.100
 6316WAT     H119190   7.421   9.126   8.007
 6316WAT     H219191   7.518   9.221   8.097
 6317WAT      O19192   7.610   7.898   2.642
 6317WAT     H119193   7.599   7.891   2.543
 6317WAT     H219194   7.527   7.938   2.682
 6318WAT      O19195   3.099   5.348   1.009
 6318WAT     H119196   3.010   5.312   0.982
 6318WAT     H219197   3.115   5.329   1.106
 6319WAT      O19198   7.948   9.705   3.083
 6319WAT     H119199   7.977   9.614   3.113
 6319WAT     H219200   8.008   9.738   3.011
 6320WAT      O19201   3.211   0.755   5.531
 6320WAT     H119202   3.220   0.752   5.631
 6320WAT     H219203   3.274   0.690   5.490
 6321WAT      O19204   7.217   9.298   4.162
 6321WAT     H119205   7.308   9.264   4.136
 6321WAT     H219206   7.224   9.351   4.246
 6322WAT      O19207   0.501   8.809   4.779
 6322WAT     H119208   0.416   8.847   4.816
 6322WAT     H219209   0.576   8.827   4.843
 6323WAT      O19210   0.574   2.535   9.747
 6323WAT     H119211   0.565   2.559   9.844
 6323WAT     H219212   0.486   2.549   9.701
 6324WAT      O19213   1.240   2.913   7.005
 6324WAT     H119214   1.251   2.931   7.103
 6324WAT     H219215   1.252   2.998   6.954
 6325WAT      O19216   4.821   3.601   3.461
 6325WAT     H119217   4.771   3.638   3.383
 6325WAT     H219218   4.838   3.674   3.527
 6326WAT      O19219   7.821   1.589   5.745
 6326WAT     H119220   7.728   1.617   5.724
 6326WAT     H219221   7.838   1.498   5.709
 6327WAT      O19222   6.256   6.732   5.571
 6327WAT     H119223   6.185   6.729   5.500
 6327WAT     H219224   6.242   6.656   5.634
 6328WAT      O19225   6.909   0.004   7.461
 6328WAT     H119226   6.843   0.043   7.398
 6328WAT     H219227   6.937  -0.086   7.428
 6329WAT      O19228   1.962   7.377   2.659
 6329WAT     H119229   1.941   7.474   2.671
 6329WAT     H219230   1.878   7.328   2.632
 6330WAT      O19231   1.529   5.187   3.385
 6330WAT     H119232   1.497   5.123   3.315
 6330WAT     H219233   1.544   5.138   3.470
 6331WAT      O19234   7.673   9.544   6.824
 6331WAT     H119235   7.577   9.533   6.851
 6331WAT     H219236   7.709   9.456   6.793
 6332WAT      O19237   9.185   3.016   2.728
 6332WAT     H119238   9.193   2.998   2.630
 6332WAT     H219239   9.098   2.982   2.762
 6333WAT      O19240   0.407   3.184   2.387
 6333WAT     H119241   0.489   3.229   2.351
 6333WAT     H219242   0.329   3.205   2.329
 6334WAT      O19243   6.612   4.354   5.899
 6334WAT     H119244   6.522   4.347   5.855
 6334WAT     H219245   6.608   4.313   5.990
 6335WAT      O19246   8.081   6.695   5.222
 6335WAT     H119247   8.135   6.694   5.307
 6335WAT     H219248   8.005   6.759   5.232
 6336WAT      O19249   4.767   1.892   0.428
 6336WAT     H119250   4.795   1.838   0.350
 6336WAT     H219251   4.670   1.918   0.419
 6337WAT      O19252   8.718   7.252   7.099
 6337WAT     H119253   8.728   7.170   7.043
 6337WAT     H219254   8.659   7.318   7.051
 6338WAT      O19255   1.552   4.144   8.808
 6338WAT     H119256   1.618   4.094   8.750
 6338WAT     H219257   1.569   4.122   8.904
 6339WAT      O19258   8.610   4.272   0.353
 6339WAT     H119259   8.627   4.338   0.427
 6339WAT     H219260   8.544   4.312   0.288
 6340WAT      O19261   0.469   4.526   2.151
 6340WAT     H119262   0.446   4.580   2.070
 6340WAT     H219263   0.410   4.445   2.156
 6341WAT      O19264   7.696   8.586   2.360
 6341WAT     H119265   7.725   8.594   2.455
 6341WAT     H219266   7.681   8.489   2.338
 6342WAT      O19267   7.822   7.284   1.298
 6342WAT     H119268   7.768   7.307   1.378
 6342WAT     H219269   7.875   7.201   1.315
 6343WAT      O19270   0.488   2.249   4.794
 6343WAT     H119271   0.403   2.298   4.815
 6343WAT     H219272   0.534   2.225   4.880
 6344WAT      O19273   6.961   1.219   9.709
 6344WAT     H119274   7.059   1.219   9.689
 6344WAT     H219275   6.939   1.139   9.766
 6345WAT      O19276   7.334   4.494   8.555
 6345WAT     H119277   7.363   4.510   8.649
 6345WAT     H219278   7.388   4.551   8.493
 6346WAT      O19279   1.072   4.917   5.601
 6346WAT     H119280   1.108   5.010   5.607
 6346WAT     H219281   1.141   4.853   5.633
 6347WAT      O19282   2.275   3.428   2.141
 6347WAT     H119283   2.355   3.378   2.175
 6347WAT     H219284   2.299   3.524   2.126
 6348WAT      O19285   4.572   3.789   7.496
 6348WAT     H119286   4.522   3.728   7.557
 6348WAT     H219287   4.597   3.740   7.412
 6349WAT      O19288   3.427   7.975   2.748
 6349WAT     H119289   3.430   7.909   2.673
 6349WAT     H219290   3.344   8.031   2.739
 6350WAT      O19291   6.570   7.445   0.873
 6350WAT     H119292   6.482   7.492   0.884
 6350WAT     H219293   6.588   7.430   0.776
 6351WAT      O19294   0.932   6.610   6.320
 6351WAT     H119295   0.983   6.576   6.241
 6351WAT     H219296   0.982   6.685   6.363
 6352WAT      O19297   8.623   0.374   5.222
 6352WAT     H119298   8.673   0.371   5.308
 6352WAT     H219299   8.584   0.283   5.202
 6353WAT      O19300   9.088   5.302   1.572
 6353WAT     H119301   8.994   5.272   1.558
 6353WAT     H219302   9.115   5.289   1.667
 6354WAT      O19303   6.826   3.381   7.871
 6354WAT     H119304   6.729   3.358   7.858
 6354WAT     H219305   6.856   3.349   7.961
 6355WAT      O19306   0.261   3.115   6.346
 6355WAT     H119307   0.310   3.199   6.371
 6355WAT     H219308   0.320   3.058   6.288
 6356WAT      O19309   5.073   5.975   2.617
 6356WAT     H119310   5.039   6.040   2.549
 6356WAT     H219311   5.164   6.004   2.648
 6357WAT      O19312   2.150   5.122   7.777
 6357WAT     H119313   2.135   5.122   7.678
 6357WAT     H219314   2.213   5.196   7.802
 6358WAT      O19315   4.269   8.440   2.385
 6358WAT     H119316   4.192   8.428   2.448
 6358WAT     H219317   4.234   8.472   2.297
 6359WAT      O19318   7.584   1.023   8.028
 6359WAT     H119319   7.545   0.931   8.019
 6359WAT     H219320   7.658   1.034   7.962
 6360WAT      O19321   3.393   2.202   1.406
 6360WAT     H119322   3.357   2.112   1.430
 6360WAT     H219323   3.369   2.224   1.312
 6361WAT      O19324   1.405   3.862   1.769
 6361WAT     H119325   1.484   3.900   1.721
 6361WAT     H219326   1.321   3.895   1.724
 6362WAT      O19327   9.441   9.770   7.273
 6362WAT     H119328   9.420   9.753   7.177
 6362WAT     H219329   9.475   9.864   7.283
 6363WAT      O19330   3.568   0.071   5.456
 6363WAT     H119331   3.627   0.149   5.433
 6363WAT     H219332   3.506   0.053   5.379
 6364WAT      O19333   8.940   0.211   8.025
 6364WAT     H119334   8.859   0.253   7.985
 6364WAT     H219335   8.945   0.115   7.997
 6365WAT      O19336   8.244   9.451   6.678
 6365WAT     H119337   8.232   9.516   6.753
 6365WAT     H219338   8.342   9.441   6.658
 6366WAT      O19339   1.591   9.195   5.208
 6366WAT     H119340   1.502   9.236   5.187
 6366WAT     H219341   1.661   9.239   5.152
 6367WAT      O19342   7.535   5.173   2.242
 6367WAT     H119343   7.479   5.182   2.160
 6367WAT     H219344   7.475   5.165   2.322
 6368WAT      O19345   9.313   7.220   4.889
 6368WAT     H119346   9.278   7.256   4.976
 6368WAT     H219347   9.254   7.145   4.858
 6369WAT      O19348   3.583   7.256   0.200
 6369WAT     H119349   3.638   7.236   0.281
 6369WAT     H219350   3.642   7.255   0.119
 6370WAT      O19351   4.912   5.586   6.109
 6370WAT     H119352   4.933   5.587   6.011
 6370WAT     H219353   4.975   5.524   6.156
 6371WAT      O19354   6.810   8.556   8.194
 6371WAT     H119355   6.728   8.565   8.250
 6371WAT     H219356   6.862   8.641   8.196
 6372WAT      O19357   2.202   7.808   5.688
 6372WAT     H119358   2.147   7.836   5.609
 6372WAT     H219359   2.269   7.740   5.659
 6373WAT      O19360   3.105   7.580   7.665
 6373WAT     H119361   3.012   7.544   7.655
 6373WAT     H219362   3.126   7.640   7.588
 6374WAT      O19363   4.009   6.753   5.376
 6374WAT     H119364   3.948   6.715   5.306
 6374WAT     H219365   4.103   6.756   5.341
 6375WAT      O19366   6.022   1.780   5.459
 6375WAT     H119367   6.109   1.733   5.470
 6375WAT     H219368   6.022   1.864   5.514
 6376WAT      O19369   0.740   9.772   8.640
 6376WAT     H119370   0.746   9.772   8.540
 6376WAT     H219371   0.678   9.698   8.669
 6377WAT      O19372   8.541   1.188   6.830
 6377WAT     H119373   8.625   1.180   6.883
 6377WAT     H219374   8.489   1.268   6.862
 6378WAT      O19375   4.863   3.101   2.146
 6378WAT     H119376   4.769   3.094   2.177
 6378WAT     H219377   4.893   3.197   2.150
 6379WAT      O19378   4.170   6.062   7.023
 6379WAT     H119379   4.195   6.109   7.107
 6379WAT     H219380   4.223   5.977   7.015
 6380WAT      O19381   7.816   2.494   4.234
 6380WAT     H119382   7.754   2.466   4.160
 6380WAT     H219383   7.792   2.586   4.264
 6381WAT      O19384   5.874   9.519   4.582
 6381WAT     H119385   5.948   9.527   4.650
 6381WAT     H219386   5.913   9.495   4.493
 6382WAT      O19387   9.504   1.780   0.540
 6382WAT     H119388   9.482   1.689   0.504
 6382WAT     H219389   9.602   1.797   0.532
 6383WAT      O19390   9.824   0.295   2.542
 6383WAT     H119391   9.811   0.267   2.637
 6383WAT     H219392   9.764   0.373   2.521
 6384WAT      O19393   4.644   1.228   6.126
 6384WAT     H119394   4.727   1.283   6.111
 6384WAT     H219395   4.621   1.181   6.041
 6385WAT      O19396   6.710   7.407   5.484
 6385WAT     H119397   6.740   7.369   5.572
 6385WAT     H219398   6.650   7.485   5.500
 6386WAT      O19399   3.154   1.522   2.020
 6386WAT     H119400   3.208   1.449   1.977
 6386WAT     H219401   3.212   1.602   2.035
 6387WAT      O19402   3.027   2.794   6.854
 6387WAT     H119403   3.059   2.859   6.922
 6387WAT     H219404   2.948   2.744   6.889
 6388WAT      O19405   3.453   1.976   4.192
 6388WAT     H119406   3.410   2.062   4.166
 6388WAT     H219407   3.518   1.948   4.121
 6389WAT      O19408   3.674   3.981   5.166
 6389WAT     H119409   3.668   4.068   5.214
 6389WAT     H219410   3.607   3.917   5.204
 6390WAT      O19411   0.050   7.866   0.864
 6390WAT     H119412  -0.017   7.843   0.793
 6390WAT     H219413   0.111   7.788   0.879
 6391WAT      O19414   8.700   0.297   6.857
 6391WAT     H119415   8.605   0.267   6.866
 6391WAT     H219416   8.734   0.326   6.947
 6392WAT      O19417   0.627   9.380   7.607
 6392WAT     H119418   0.621   9.301   7.668
 6392WAT     H219419   0.612   9.350   7.513
 6393WAT      O19420   9.326   3.899   5.340
 6393WAT     H119421   9.266   3.845   5.400
 6393WAT     H219422   9.379   3.963   5.395
 6394WAT      O19423   0.912   7.972   8.700
 6394WAT     H119424   0.915   8.071   8.717
 6394WAT     H219425   0.822   7.937   8.726
 6395WAT      O19426   4.952   6.463   9.564
 6395WAT     H119427   5.036   6.499   9.605
 6395WAT     H219428   4.875   6.522   9.587
 6396WAT      O19429   5.468   0.084   7.127
 6396WAT     H119430   5.392   0.126   7.076
 6396WAT     H219431   5.555   0.115   7.088
 6397WAT      O19432   6.548   0.511   9.246
 6397WAT     H119433   6.530   0.601   9.286
 6397WAT     H219434   6.472   0.486   9.186
 6398WAT      O19435   5.631   8.106   2.074
 6398WAT     H119436   5.676   8.019   2.096
 6398WAT     H219437   5.539   8.106   2.112
 6399WAT      O19438   4.518   7.272   0.047
 6399WAT     H119439   4.424   7.239   0.036
 6399WAT     H219440   4.580   7.193   0.047
 6400WAT      O19441   0.193   6.001   7.006
 6400WAT     H119442   0.226   6.059   7.080
 6400WAT     H219443   0.163   6.059   6.930
 6401WAT      O19444   7.770   5.021   1.716
 6401WAT     H119445   7.832   5.068   1.653
 6401WAT     H219446   7.734   4.939   1.672
 6402WAT      O19447   1.206   0.077   2.770
 6402WAT     H119448   1.223  -0.013   2.730
 6402WAT     H219449   1.112   0.105   2.749
 6403WAT      O19450   6.366   5.755   8.032
 6403WAT     H119451   6.285   5.760   7.973
 6403WAT     H219452   6.392   5.659   8.045
 6404WAT      O19453   0.095   1.107   6.326
 6404WAT     H119454   0.156   1.042   6.280
 6404WAT     H219455   0.007   1.107   6.279
 6405WAT      O19456   1.541   2.915   1.539
 6405WAT     H119457   1.544   2.947   1.633
 6405WAT     H219458   1.530   2.993   1.477
 6406WAT      O19459   2.894   8.200   9.804
 6406WAT     H119460   2.868   8.178   9.899
 6406WAT     H219461   2.910   8.115   9.754
 6407WAT      O19462   9.043   5.729   6.844
 6407WAT     H119463   8.944   5.737   6.834
 6407WAT     H219464   9.086   5.816   6.820
 6408WAT      O19465   8.924   3.265   0.082
 6408WAT     H119466   8.860   3.189   0.092
 6408WAT     H219467   8.876   3.345   0.045
 6409WAT      O19468   0.503   3.652   2.187
 6409WAT     H119469   0.492   3.561   2.145
 6409WAT     H219470   0.447   3.657   2.270
 6410WAT      O19471   3.809   7.994   5.284
 6410WAT     H119472   3.736   7.950   5.231
 6410WAT     H219473   3.898   7.959   5.256
 6411WAT      O19474   4.824   8.467   9.669
 6411WAT     H119475   4.922   8.460   9.687
 6411WAT     H219476   4.776   8.497   9.751
 6412WAT      O19477   0.661   3.091   5.466
 6412WAT     H119478   0.634   3.117   5.559
 6412WAT     H219479   0.753   3.126   5.447
 6413WAT      O19480   8.326   8.600   3.421
 6413WAT     H119481   8.409   8.640   3.382
 6413WAT     H219482   8.332   8.602   3.521
 6414WAT      O19483   3.024   4.327   5.245
 6414WAT     H119484   2.952   4.396   5.253
 6414WAT     H219485   3.056   4.322   5.151
 6415WAT      O19486   0.469   7.714   2.709
 6415WAT     H119487   0.556   7.666   2.696
 6415WAT     H219488   0.426   7.680   2.793
 6416WAT      O19489   0.315   8.846   3.456
 6416WAT     H119490   0.374   8.914   3.500
 6416WAT     H219491   0.358   8.756   3.461
 6417WAT      O19492   3.127   9.778   2.076
 6417WAT     H119493   3.029   9.775   2.053
 6417WAT     H219494   3.169   9.690   2.054
 6418WAT      O19495   1.495   6.011   7.042
 6418WAT     H119496   1.583   6.029   7.087
 6418WAT     H219497   1.478   6.081   6.973
 6419WAT      O19498   4.989   1.313   9.076
 6419WAT     H119499   5.022   1.374   9.148
 6419WAT     H219500   5.063   1.253   9.047
 6420WAT      O19501   4.644   0.753   2.119
 6420WAT     H119502   4.653   0.757   2.019
 6420WAT     H219503   4.704   0.822   2.160
 6421WAT      O19504   6.355   1.815   4.206
 6421WAT     H119505   6.255   1.814   4.205
 6421WAT     H219506   6.387   1.857   4.291
 6422WAT      O19507   4.643   2.246   4.516
 6422WAT     H119508   4.735   2.285   4.529
 6422WAT     H219509   4.635   2.212   4.422
 6423WAT      O19510   1.989   8.469   4.112
 6423WAT     H119511   2.051   8.485   4.035
 6423WAT     H219512   1.999   8.541   4.180
 6424WAT      O19513   3.853   8.585   3.480
 6424WAT     H119514   3.913   8.536   3.543
 6424WAT     H219515   3.902   8.661   3.439
 6425WAT      O19516   3.956   7.656   3.393
 6425WAT     H119517   3.867   7.664   3.348
 6425WAT     H219518   3.944   7.625   3.487
 6426WAT      O19519   4.136   9.762   1.132
 6426WAT     H119520   4.038   9.761   1.148
 6426WAT     H219521   4.185   9.746   1.218
 6427WAT      O19522   7.308   7.836   1.212
 6427WAT     H119523   7.325   7.738   1.203
 6427WAT     H219524   7.396   7.884   1.225
 6428WAT      O19525   9.663   1.308   3.742
 6428WAT     H119526   9.590   1.315   3.674
 6428WAT     H219527   9.733   1.376   3.723
 6429WAT      O19528   4.075   9.121   6.778
 6429WAT     H119529   4.136   9.042   6.772
 6429WAT     H219530   3.985   9.097   6.741
 6430WAT      O19531   1.118   3.050   9.004
 6430WAT     H119532   1.156   3.143   9.000
 6430WAT     H219533   1.047   3.046   9.074
 6431WAT      O19534   0.521   8.874   3.087
 6431WAT     H119535   0.603   8.909   3.042
 6431WAT     H219536   0.535   8.778   3.110
 6432WAT      O19537   3.401   4.169   8.669
 6432WAT     H119538   3.417   4.109   8.591
 6432WAT     H219539   3.379   4.261   8.637
 6433WAT      O19540   5.893   3.609   2.857
 6433WAT     H119541   5.827   3.545   2.896
 6433WAT     H219542   5.845   3.691   2.825
 6434WAT      O19543   7.777   4.748   8.761
 6434WAT     H119544   7.757   4.666   8.708
 6434WAT     H219545   7.854   4.797   8.719
 6435WAT      O19546   9.022   0.085   2.672
 6435WAT     H119547   9.069   0.000   2.698
 6435WAT     H219548   8.981   0.074   2.582
 6436WAT      O19549   6.536   4.859   3.708
 6436WAT     H119550   6.586   4.789   3.759
 6436WAT     H219551   6.438   4.836   3.706
 6437WAT      O19552   2.566   8.039   4.796
 6437WAT     H119553   2.531   8.130   4.821
 6437WAT     H219554   2.537   8.017   4.703
 6438WAT      O19555   7.373   5.683   7.656
 6438WAT     H119556   7.338   5.611   7.596
 6438WAT     H219557   7.300   5.716   7.715
 6439WAT      O19558   0.223   3.570   3.589
 6439WAT     H119559   0.269   3.636   3.530
 6439WAT     H219560   0.266   3.480   3.578
 6440WAT      O19561   6.798   6.955   1.931
 6440WAT     H119562   6.758   6.937   2.021
 6440WAT     H219563   6.842   6.872   1.898
 6441WAT      O19564   9.427   4.248   1.238
 6441WAT     H119565   9.384   4.168   1.279
 6441WAT     H219566   9.522   4.255   1.267
 6442WAT      O19567   5.858   1.034   8.244
 6442WAT     H119568   5.917   1.062   8.320
 6442WAT     H219569   5.783   1.099   8.235
 6443WAT      O19570   9.193   0.857   3.936
 6443WAT     H119571   9.105   0.872   3.892
 6443WAT     H219572   9.266   0.857   3.868
 6444WAT      O19573   6.451   0.698   5.963
 6444WAT     H119574   6.505   0.642   6.025
 6444WAT     H219575   6.363   0.653   5.945
 6445WAT      O19576   1.714   5.500   5.641
 6445WAT     H119577   1.696   5.554   5.559
 6445WAT     H219578   1.806   5.461   5.636
 6446WAT      O19579   0.538   8.326   7.309
 6446WAT     H119580   0.464   8.262   7.289
 6446WAT     H219581   0.585   8.351   7.224
 6447WAT      O19582   2.038   1.570   4.047
 6447WAT     H119583   2.025   1.477   4.012
 6447WAT     H219584   2.032   1.569   4.147
 6448WAT      O19585   4.813   9.197   5.054
 6448WAT     H119586   4.839   9.160   5.143
 6448WAT     H219587   4.715   9.213   5.052
 6449WAT      O19588   5.087   9.804   9.458
 6449WAT     H119589   5.071   9.775   9.552
 6449WAT     H219590   5.119   9.899   9.457
 6450WAT      O19591   4.362   7.705   9.191
 6450WAT     H119592   4.403   7.677   9.104
 6450WAT     H219593   4.427   7.688   9.266
 6451WAT      O19594   2.141   2.951   3.071
 6451WAT     H119595   2.174   2.868   3.026
 6451WAT     H219596   2.044   2.941   3.094
 6452WAT      O19597   7.495   2.252   2.308
 6452WAT     H119598   7.409   2.290   2.275
 6452WAT     H219599   7.482   2.156   2.332
 6453WAT      O19600   7.719   2.699   6.246
 6453WAT     H119601   7.699   2.790   6.281
 6453WAT     H219602   7.817   2.682   6.251
 6454WAT      O19603   0.799   9.641   7.056
 6454WAT     H119604   0.880   9.635   6.997
 6454WAT     H219605   0.783   9.737   7.080
 6455WAT      O19606   1.585   2.821   4.388
 6455WAT     H119607   1.539   2.835   4.300
 6455WAT     H219608   1.661   2.885   4.396
 6456WAT      O19609   6.711   1.819   5.085
 6456WAT     H119610   6.630   1.798   5.030
 6456WAT     H219611   6.727   1.745   5.150
 6457WAT      O19612   1.563   9.405   9.511
 6457WAT     H119613   1.568   9.499   9.547
 6457WAT     H219614   1.572   9.407   9.412
 6458WAT      O19615   4.431   3.008   3.537
 6458WAT     H119616   4.449   2.960   3.451
 6458WAT     H219617   4.440   2.944   3.614
 6459WAT      O19618   4.453   2.614   1.732
 6459WAT     H119619   4.478   2.555   1.809
 6459WAT     H219620   4.357   2.639   1.738
 6460WAT      O19621   0.764   3.882   4.515
 6460WAT     H119622   0.831   3.829   4.567
 6460WAT     H219623   0.758   3.847   4.422
 6461WAT      O19624   0.320   2.853   6.923
 6461WAT     H119625   0.313   2.788   6.998
 6461WAT     H219626   0.415   2.863   6.896
 6462WAT      O19627   2.054   3.960   2.367
 6462WAT     H119628   2.111   4.002   2.438
 6462WAT     H219629   1.958   3.973   2.389
 6463WAT      O19630   3.066   5.691   9.281
 6463WAT     H119631   3.001   5.630   9.328
 6463WAT     H219632   3.153   5.690   9.329
 6464WAT      O19633   7.311   8.055   8.442
 6464WAT     H119634   7.264   8.143   8.445
 6464WAT     H219635   7.364   8.049   8.357
 6465WAT      O19636   6.194   8.157   3.246
 6465WAT     H119637   6.239   8.219   3.182
 6465WAT     H219638   6.196   8.196   3.338
 6466WAT      O19639   2.774   3.406   7.375
 6466WAT     H119640   2.802   3.315   7.343
 6466WAT     H219641   2.786   3.472   7.301
 6467WAT      O19642   7.199   5.736   9.548
 6467WAT     H119643   7.106   5.732   9.583
 6467WAT     H219644   7.210   5.669   9.474
 6468WAT      O19645   4.441   7.712   1.278
 6468WAT     H119646   4.493   7.630   1.302
 6468WAT     H219647   4.349   7.706   1.317
 6469WAT      O19648   8.546   3.256   8.555
 6469WAT     H119649   8.645   3.248   8.561
 6469WAT     H219650   8.517   3.345   8.589
 6470WAT      O19651   3.388   4.425   8.552
 6470WAT     H119652   3.324   4.501   8.551
 6470WAT     H219653   3.387   4.379   8.464
 6471WAT      O19654   9.808   9.235   0.749
 6471WAT     H119655   9.836   9.323   0.788
 6471WAT     H219656   9.736   9.195   0.805
 6472WAT      O19657   4.786   7.260   2.039
 6472WAT     H119658   4.703   7.238   2.090
 6472WAT     H219659   4.761   7.281   1.944
 6473WAT      O19660   5.482   3.470   0.747
 6473WAT     H119661   5.569   3.518   0.760
 6473WAT     H219662   5.433   3.467   0.834
 6474WAT      O19663   1.037   6.742   4.099
 6474WAT     H119664   1.044   6.746   4.199
 6474WAT     H219665   1.127   6.757   4.058
 6475WAT      O19666   2.739   5.425   9.473
 6475WAT     H119667   2.826   5.458   9.436
 6475WAT     H219668   2.665   5.487   9.444
 6476WAT      O19669   2.084   6.051   3.923
 6476WAT     H119670   2.088   6.141   3.880
 6476WAT     H219671   2.071   5.981   3.852
 6477WAT      O19672   2.874   0.880   8.836
 6477WAT     H119673   2.882   0.960   8.896
 6477WAT     H219674   2.865   0.798   8.891
 6478WAT      O19675   0.699   5.661   9.340
 6478WAT     H119676   0.789   5.621   9.355
 6478WAT     H219677   0.632   5.588   9.330
 6479WAT      O19678   6.581   0.965   6.008
 6479WAT     H119679   6.536   0.919   5.931
 6479WAT     H219680   6.519   0.968   6.086
 6480WAT      O19681   2.199   3.699   8.475
 6480WAT     H119682   2.140   3.626   8.509
 6480WAT     H219683   2.287   3.661   8.448
 6481WAT      O19684   4.981   4.937   8.463
 6481WAT     H119685   4.947   4.848   8.429
 6481WAT     H219686   5.076   4.949   8.436
 6482WAT      O19687   3.518   6.302   7.804
 6482WAT     H119688   3.611   6.296   7.842
 6482WAT     H219689   3.452   6.272   7.873
 6483WAT      O19690   1.271   7.861   4.423
 6483WAT     H119691   1.188   7.862   4.480
 6483WAT     H219692   1.326   7.781   4.446
 6484WAT      O19693   4.947   6.114   7.147
 6484WAT     H119694   5.010   6.075   7.080
 6484WAT     H219695   4.934   6.211   7.127
 6485WAT      O19696   0.813   1.304   0.517
 6485WAT     H119697   0.757   1.320   0.435
 6485WAT     H219698   0.788   1.216   0.557
 6486WAT      O19699   0.454   9.776   9.705
 6486WAT     H119700   0.533   9.774   9.766
 6486WAT     H219701   0.378   9.821   9.751
 6487WAT      O19702   3.905   5.870   8.962
 6487WAT     H119703   3.963   5.790   8.947
 6487WAT     H219704   3.952   5.933   9.024
 6488WAT      O19705   2.395   4.396   5.650
 6488WAT     H119706   2.325   4.464   5.674
 6488WAT     H219707   2.457   4.384   5.727
 6489WAT      O19708   8.357   5.704   3.072
 6489WAT     H119709   8.379   5.606   3.077
 6489WAT     H219710   8.363   5.735   2.978
 6490WAT      O19711   2.216   8.890   3.328
 6490WAT     H119712   2.271   8.905   3.246
 6490WAT     H219713   2.148   8.962   3.337
 6491WAT      O19714   1.881   8.114   7.217
 6491WAT     H119715   1.964   8.114   7.272
 6491WAT     H219716   1.825   8.194   7.242
 6492WAT      O19717   7.666   6.217   4.461
 6492WAT     H119718   7.613   6.160   4.399
 6492WAT     H219719   7.609   6.292   4.495
 6493WAT      O19720   9.039   1.153   6.738
 6493WAT     H119721   8.961   1.107   6.780
 6493WAT     H219722   9.122   1.135   6.792
 6494WAT      O19723   3.590   0.736   3.528
 6494WAT     H119724   3.638   0.721   3.614
 6494WAT     H219725   3.517   0.804   3.543
 6495WAT      O19726   1.072   3.390   5.210
 6495WAT     H119727   1.133   3.385   5.131
 6495WAT     H219728   0.999   3.322   5.201
 6496WAT      O19729   3.482   9.187   5.283
 6496WAT     H119730   3.426   9.202   5.365
 6496WAT     H219731   3.576   9.215   5.301
 6497WAT      O19732   3.293   6.941   9.273
 6497WAT     H119733   3.349   6.920   9.194
 6497WAT     H219734   3.306   6.871   9.343
 6498WAT      O19735   6.094   5.238   4.396
 6498WAT     H119736   6.183   5.271   4.428
 6498WAT     H219737   6.029   5.313   4.396
 6499WAT      O19738   2.562   8.348   3.531
 6499WAT     H119739   2.630   8.419   3.512
 6499WAT     H219740   2.580   8.307   3.620
 6500WAT      O19741   7.661   2.754   0.503
 6500WAT     H119742   7.665   2.852   0.481
 6500WAT     H219743   7.598   2.708   0.441
 6501WAT      O19744   1.047   9.356   7.379
 6501WAT     H119745   1.002   9.316   7.458
 6501WAT     H219746   1.127   9.301   7.353
 6502WAT      O19747   5.348   4.664   8.139
 6502WAT     H119748   5.370   4.636   8.233
 6502WAT     H219749   5.427   4.710   8.099
 6503WAT      O19750   5.986   6.183   5.737
 6503WAT     H119751   6.083   6.188   5.762
 6503WAT     H219752   5.969   6.096   5.690
 6504WAT      O19753   7.135   9.759   3.909
 6504WAT     H119754   7.196   9.818   3.962
 6504WAT     H219755   7.183   9.724   3.829
 6505WAT      O19756   7.982   7.610   4.615
 6505WAT     H119757   7.905   7.583   4.674
 6505WAT     H219758   8.065   7.565   4.647
 6506WAT      O19759   3.923   6.218   1.298
 6506WAT     H119760   3.953   6.286   1.231
 6506WAT     H219761   3.857   6.259   1.361
 6507WAT      O19762   1.967   3.264   3.836
 6507WAT     H119763   2.021   3.183   3.854
 6507WAT     H219764   1.954   3.275   3.738
 6508WAT      O19765   0.350   7.080   6.403
 6508WAT     H119766   0.408   7.019   6.350
 6508WAT     H219767   0.257   7.078   6.367
 6509WAT      O19768   6.430   5.986   1.617
 6509WAT     H119769   6.428   6.081   1.647
 6509WAT     H219770   6.338   5.956   1.595
 6510WAT      O19771   3.974   0.180   3.865
 6510WAT     H119772   3.972   0.238   3.783
 6510WAT     H219773   3.925   0.095   3.847
 6511WAT      O19774   0.963   7.131   1.119
 6511WAT     H119775   1.060   7.122   1.141
 6511WAT     H219776   0.919   7.193   1.184
 6512WAT      O19777   6.546   6.819   5.883
 6512WAT     H119778   6.603   6.745   5.846
 6512WAT     H219779   6.581   6.846   5.973
 6513WAT      O19780   7.699   5.811   8.628
 6513WAT     H119781   7.711   5.875   8.704
 6513WAT     H219782   7.609   5.824   8.587
 6514WAT      O19783   8.710   1.163   9.572
 6514WAT     H119784   8.633   1.130   9.627
 6514WAT     H219785   8.792   1.171   9.629
 6515WAT      O19786   7.418   6.628   0.450
 6515WAT     H119787   7.470   6.547   0.425
 6515WAT     H219788   7.437   6.701   0.384
 6516WAT      O19789   0.454   8.109   3.016
 6516WAT     H119790   0.449   8.199   3.060
 6516WAT     H219791   0.386   8.104   2.943
 6517WAT      O19792   1.070   1.546   9.285
 6517WAT     H119793   1.095   1.568   9.191
 6517WAT     H219794   1.072   1.447   9.297
 6518WAT      O19795   1.351   0.754   9.879
 6518WAT     H119796   1.293   0.693   9.934
 6518WAT     H219797   1.313   0.846   9.880
 6519WAT      O19798   2.755   8.617   3.025
 6519WAT     H119799   2.812   8.687   3.067
 6519WAT     H219800   2.668   8.610   3.074
 6520WAT      O19801   7.404   7.520   3.943
 6520WAT     H119802   7.475   7.588   3.963
 6520WAT     H219803   7.425   7.475   3.856
 6521WAT      O19804   0.266   6.272   5.969
 6521WAT     H119805   0.228   6.295   5.879
 6521WAT     H219806   0.363   6.252   5.959
 6522WAT      O19807   2.514   2.899   3.623
 6522WAT     H119808   2.598   2.846   3.612
 6522WAT     H219809   2.536   2.992   3.652
 6523WAT      O19810   6.812   6.714   3.864
 6523WAT     H119811   6.855   6.745   3.949
 6523WAT     H219812   6.720   6.680   3.884
 6524WAT      O19813   9.857   8.085   5.829
 6524WAT     H119814   9.875   8.013   5.895
 6524WAT     H219815   9.811   8.047   5.749
 6525WAT      O19816   7.581   1.771   9.673
 6525WAT     H119817   7.506   1.794   9.609
 6525WAT     H219818   7.666   1.809   9.638
 6526WAT      O19819   8.945   7.057   2.984
 6526WAT     H119820   8.944   7.053   3.084
 6526WAT     H219821   8.865   7.108   2.952
 6527WAT      O19822   5.481   1.344   9.713
 6527WAT     H119823   5.435   1.258   9.689
 6527WAT     H219824   5.534   1.331   9.797
 6528WAT      O19825   5.252   3.002   5.846
 6528WAT     H119826   5.251   3.102   5.841
 6528WAT     H219827   5.281   2.965   5.757
 6529WAT      O19828   8.386   5.324   2.785
 6529WAT     H119829   8.382   5.330   2.685
 6529WAT     H219830   8.319   5.257   2.817
 6530WAT      O19831   3.450   7.034   9.794
 6530WAT     H119832   3.499   7.105   9.743
 6530WAT     H219833   3.403   7.075   9.872
 6531WAT      O19834   0.771   4.339   4.823
 6531WAT     H119835   0.823   4.360   4.906
 6531WAT     H219836   0.704   4.411   4.806
 6532WAT      O19837   3.195   7.045   1.345
 6532WAT     H119838   3.255   7.057   1.424
 6532WAT     H219839   3.250   7.024   1.264
 6533WAT      O19840   0.279   0.438   2.383
 6533WAT     H119841   0.302   0.494   2.303
 6533WAT     H219842   0.325   0.476   2.463
 6534WAT      O19843   1.825   3.723   8.777
 6534WAT     H119844   1.918   3.715   8.813
 6534WAT     H219845   1.759   3.721   8.852
 6535WAT      O19846   7.859   3.892   7.599
 6535WAT     H119847   7.901   3.944   7.524
 6535WAT     H219848   7.850   3.952   7.679
 6536WAT      O19849   5.509   6.919   8.085
 6536WAT     H119850   5.541   6.903   8.178
 6536WAT     H219851   5.419   6.964   8.087
 6537WAT      O19852   4.933   8.741   3.038
 6537WAT     H119853   4.844   8.768   3.001
 6537WAT     H219854   4.952   8.646   3.011
 6538WAT      O19855   2.373   0.213   7.973
 6538WAT     H119856   2.436   0.177   8.042
 6538WAT     H219857   2.356   0.143   7.904
 6539WAT      O19858   4.182   7.090   1.892
 6539WAT     H119859   4.205   7.173   1.842
 6539WAT     H219860   4.112   7.111   1.961
 6540WAT      O19861   6.122   5.936   7.280
 6540WAT     H119862   6.144   5.839   7.287
 6540WAT     H219863   6.183   5.979   7.214
 6541WAT      O19864   7.637   3.207   5.009
 6541WAT     H119865   7.692   3.267   4.950
 6541WAT     H219866   7.544   3.245   5.017
 6542WAT      O19867   0.080   7.820   6.559
 6542WAT     H119868   0.112   7.886   6.627
 6542WAT     H219869   0.153   7.804   6.492
 6543WAT      O19870   4.543   0.569   2.814
 6543WAT     H119871   4.550   0.506   2.737
 6543WAT     H219872   4.604   0.540   2.887
 6544WAT      O19873   3.032   4.981   5.599
 6544WAT     H119874   3.115   4.991   5.655
 6544WAT     H219875   2.972   5.059   5.614
 6545WAT      O19876   0.172   6.964   9.105
 6545WAT     H119877   0.077   6.984   9.080
 6545WAT     H219878   0.219   7.049   9.130
 6546WAT      O19879   7.348   0.408   3.033
 6546WAT     H119880   7.286   0.458   3.095
 6546WAT     H219881   7.361   0.315   3.067
 6547WAT      O19882   9.633   5.695   4.841
 6547WAT     H119883   9.655   5.747   4.924
 6547WAT     H219884   9.609   5.601   4.866
 6548WAT      O19885   5.033   3.326   8.533
 6548WAT     H119886   5.056   3.374   8.617
 6548WAT     H219887   5.055   3.229   8.542
 6549WAT      O19888   5.669   3.551   5.806
 6549WAT     H119889   5.694   3.540   5.710
 6549WAT     H219890   5.739   3.604   5.853
 6550WAT      O19891   0.671   9.780   9.874
 6550WAT     H119892   0.661   9.731   9.961
 6550WAT     H219893   0.768   9.801   9.859
 6551WAT      O19894   3.258   6.070   4.297
 6551WAT     H119895   3.327   6.097   4.364
 6551WAT     H219896   3.186   6.018   4.342
 6552WAT      O19897   4.817   2.131   6.084
 6552WAT     H119898   4.733   2.156   6.131
 6552WAT     H219899   4.895   2.147   6.144
 6553WAT      O19900   2.701   1.909   1.799
 6553WAT     H119901   2.629   1.876   1.738
 6553WAT     H219902   2.662   1.932   1.888
 6554WAT      O19903   4.473   9.041   1.902
 6554WAT     H119904   4.480   8.986   1.818
 6554WAT     H219905   4.383   9.084   1.907
 6555WAT      O19906   6.863   5.179   0.509
 6555WAT     H119907   6.820   5.149   0.594
 6555WAT     H219908   6.889   5.275   0.516
 6556WAT      O19909   2.094   7.257   1.658
 6556WAT     H119910   2.137   7.173   1.692
 6556WAT     H219911   2.035   7.236   1.581
 6557WAT      O19912   4.527   1.459   6.200
 6557WAT     H119913   4.582   1.489   6.278
 6557WAT     H219914   4.552   1.366   6.175
 6558WAT      O19915   4.052   7.911   4.204
 6558WAT     H119916   3.986   7.925   4.129
 6558WAT     H219917   4.119   7.985   4.203
 6559WAT      O19918   4.284   9.138   7.367
 6559WAT     H119919   4.343   9.106   7.293
 6559WAT     H219920   4.202   9.179   7.328
 6560WAT      O19921   0.053   8.993   3.885
 6560WAT     H119922   0.039   9.074   3.942
 6560WAT     H219923   0.130   9.009   3.823
 6561WAT      O19924   9.048   1.916   3.911
 6561WAT     H119925   9.011   1.829   3.878
 6561WAT     H219926   8.978   1.963   3.965
 6562WAT      O19927   0.500   5.033   0.753
 6562WAT     H119928   0.454   4.971   0.817
 6562WAT     H219929   0.525   5.117   0.800
 6563WAT      O19930   8.778   2.935   0.086
 6563WAT     H119931   8.857   2.928   0.025
 6563WAT     H219932   8.725   3.016   0.061
 6564WAT      O19933   9.622   0.968   8.985
 6564WAT     H119934   9.652   1.046   9.040
 6564WAT     H219935   9.527   0.982   8.956
 6565WAT      O19936   5.580   7.311   5.159
 6565WAT     H119937   5.521   7.284   5.082
 6565WAT     H219938   5.637   7.389   5.131
 6566WAT      O19939   4.071   6.351   4.643
 6566WAT     H119940   4.150   6.368   4.584
 6566WAT     H219941   3.987   6.368   4.592
 6567WAT      O19942   7.692   0.234   9.415
 6567WAT     H119943   7.702   0.229   9.514
 6567WAT     H219944   7.667   0.144   9.379
 6568WAT      O19945   1.079   0.963   7.488
 6568WAT     H119946   1.055   0.993   7.395
 6568WAT     H219947   1.058   0.866   7.498
 6569WAT      O19948   7.492   8.262   5.243
 6569WAT     H119949   7.548   8.263   5.160
 6569WAT     H219950   7.551   8.250   5.323
 6570WAT      O19951   0.900   0.403   3.362
 6570WAT     H119952   0.889   0.428   3.458
 6570WAT     H219953   0.997   0.409   3.338
 6571WAT      O19954   7.082   8.001   0.647
 6571WAT     H119955   7.144   7.953   0.710
 6571WAT     H219956   7.133   8.032   0.567
 6572WAT      O19957   8.414   9.059   4.554
 6572WAT     H119958   8.491   9.084   4.612
 6572WAT     H219959   8.355   9.139   4.540
 6573WAT      O19960   5.265   3.230   6.239
 6573WAT     H119961   5.208   3.312   6.251
 6573WAT     H219962   5.361   3.256   6.234
 6574WAT      O19963   3.281   0.489   7.147
 6574WAT     H119964   3.360   0.473   7.206
 6574WAT     H219965   3.312   0.492   7.052
 6575WAT      O19966   0.629   1.223   2.884
 6575WAT     H119967   0.673   1.308   2.857
 6575WAT     H219968   0.649   1.204   2.981
 6576WAT      O19969   0.198   8.308   2.121
 6576WAT     H119970   0.185   8.407   2.112
 6576WAT     H219971   0.227   8.271   2.032
 6577WAT      O19972   4.212   4.102   8.490
 6577WAT     H119973   4.160   4.183   8.517
 6577WAT     H219974   4.299   4.130   8.449
 6578WAT      O19975   2.094   5.182   6.875
 6578WAT     H119976   2.101   5.089   6.839
 6578WAT     H219977   2.185   5.217   6.895
 6579WAT      O19978   8.693   7.653   7.418
 6579WAT     H119979   8.700   7.565   7.465
 6579WAT     H219980   8.654   7.721   7.480
 6580WAT      O19981   6.198   8.346   7.484
 6580WAT     H119982   6.187   8.314   7.390
 6580WAT     H219983   6.293   8.338   7.511
 6581WAT      O19984   6.266   0.758   0.414
 6581WAT     H119985   6.170   0.780   0.430
 6581WAT     H219986   6.298   0.696   0.486
 6582WAT      O19987   3.252   6.215   2.884
 6582WAT     H119988   3.216   6.196   2.976
 6582WAT     H219989   3.352   6.218   2.887
 6583WAT      O19990   1.831   3.402   5.672
 6583WAT     H119991   1.827   3.475   5.604
 6583WAT     H219992   1.839   3.314   5.627
 6584WAT      O19993   4.980   8.882   0.998
 6584WAT     H119994   5.001   8.943   0.921
 6584WAT     H219995   4.971   8.788   0.964
 6585WAT      O19996   5.908   0.366   7.248
 6585WAT     H119997   5.866   0.457   7.245
 6585WAT     H219998   5.962   0.351   7.165
 6586WAT      O19999   9.377   3.154   9.821
 6586WAT     H120000   9.387   3.099   9.739
 6586WAT     H220001   9.452   3.134   9.884
 6587WAT      O20002   2.315   6.948   1.495
 6587WAT     H120003   2.228   6.928   1.539
 6587WAT     H220004   2.316   6.907   1.404
 6588WAT      O20005   8.011   7.500   6.500
 6588WAT     H120006   8.016   7.449   6.586
 6588WAT     H220007   8.073   7.458   6.434
 6589WAT      O20008   0.045   0.634   6.326
 6589WAT     H120009   0.114   0.595   6.386
 6589WAT     H220010   0.057   0.599   6.234
 6590WAT      O20011   9.814   0.870   3.951
 6590WAT     H120012   9.825   0.868   4.050
 6590WAT     H220013   9.812   0.965   3.919
 6591WAT      O20014   3.792   1.723   2.173
 6591WAT     H120015   3.783   1.738   2.272
 6591WAT     H220016   3.710   1.676   2.139
 6592WAT      O20017   8.734   4.765   3.738
 6592WAT     H120018   8.798   4.789   3.811
 6592WAT     H220019   8.727   4.665   3.731
 6593WAT      O20020   0.349   2.362   0.163
 6593WAT     H120021   0.310   2.434   0.220
 6593WAT     H220022   0.444   2.385   0.141
 6594WAT      O20023   2.836   5.773   2.072
 6594WAT     H120024   2.895   5.808   2.145
 6594WAT     H220025   2.829   5.673   2.080
 6595WAT      O20026   9.819   1.477   6.331
 6595WAT     H120027   9.801   1.486   6.233
 6595WAT     H220028   9.918   1.479   6.347
 6596WAT      O20029   6.918   3.040   4.074
 6596WAT     H120030   6.864   2.983   4.136
 6596WAT     H220031   6.870   3.126   4.057
 6597WAT      O20032   3.356   5.531   9.085
 6597WAT     H120033   3.301   5.448   9.077
 6597WAT     H220034   3.423   5.520   9.158
 6598WAT      O20035   3.285   4.285   4.289
 6598WAT     H120036   3.189   4.258   4.278
 6598WAT     H220037   3.316   4.333   4.207
 6599WAT      O20038   0.875   5.068   9.731
 6599WAT     H120039   0.940   5.016   9.676
 6599WAT     H220040   0.922   5.106   9.811
 6600WAT      O20041   0.192   2.301   7.552
 6600WAT     H120042   0.200   2.273   7.648
 6600WAT     H220043   0.269   2.360   7.528
 6601WAT      O20044   8.027   1.729   6.697
 6601WAT     H120045   7.961   1.741   6.772
 6601WAT     H220046   8.083   1.811   6.689
 6602WAT      O20047   3.253   7.976   4.439
 6602WAT     H120048   3.171   7.921   4.456
 6602WAT     H220049   3.331   7.915   4.427
 6603WAT      O20050   8.153   9.707   9.605
 6603WAT     H120051   8.248   9.722   9.635
 6603WAT     H220052   8.145   9.730   9.508
 6604WAT      O20053   4.046   8.610   5.739
 6604WAT     H120054   4.118   8.611   5.808
 6604WAT     H220055   4.042   8.699   5.694
 6605WAT      O20056   9.225   1.570   9.658
 6605WAT     H120057   9.309   1.527   9.692
 6605WAT     H220058   9.195   1.640   9.723
 6606WAT      O20059   4.305   6.908   9.145
 6606WAT     H120060   4.253   6.993   9.150
 6606WAT     H220061   4.292   6.866   9.055
 6607WAT      O20062   6.166   9.133   0.974
 6607WAT     H120063   6.072   9.114   1.004
 6607WAT     H220064   6.163   9.191   0.892
 6608WAT      O20065   5.970   4.105   4.738
 6608WAT     H120066   5.896   4.055   4.783
 6608WAT     H220067   6.001   4.179   4.797
 6609WAT      O20068   5.938   5.837   1.234
 6609WAT     H120069   6.027   5.797   1.256
 6609WAT     H220070   5.865   5.778   1.267
 6610WAT      O20071   6.196   8.068   6.670
 6610WAT     H120072   6.181   8.146   6.729
 6610WAT     H220073   6.183   7.983   6.722
 6611WAT      O20074   3.213   0.414   4.917
 6611WAT     H120075   3.183   0.364   4.835
 6611WAT     H220076   3.135   0.460   4.958
 6612WAT      O20077   0.554   1.451   4.461
 6612WAT     H120078   0.628   1.395   4.425
 6612WAT     H220079   0.475   1.448   4.399
 6613WAT      O20080   6.532   5.241   6.274
 6613WAT     H120081   6.583   5.259   6.358
 6613WAT     H220082   6.531   5.323   6.217
 6614WAT      O20083   8.171   2.662   7.606
 6614WAT     H120084   8.182   2.752   7.648
 6614WAT     H220085   8.084   2.658   7.557
 6615WAT      O20086   8.768   0.463   9.855
 6615WAT     H120087   8.837   0.529   9.825
 6615WAT     H220088   8.748   0.400   9.780
 6616WAT      O20089   3.737   0.389   5.640
 6616WAT     H120090   3.696   0.359   5.726
 6616WAT     H220091   3.740   0.312   5.576
 6617WAT      O20092   8.212   0.520   1.178
 6617WAT     H120093   8.299   0.565   1.157
 6617WAT     H220094   8.182   0.468   1.098
 6618WAT      O20095   7.623   8.874   1.382
 6618WAT     H120096   7.524   8.857   1.380
 6618WAT     H220097   7.656   8.890   1.290
 6619WAT      O20098   1.309   9.518   7.929
 6619WAT     H120099   1.248   9.475   7.997
 6619WAT     H220100   1.272   9.503   7.838
 6620WAT      O20101   5.501   0.593   5.749
 6620WAT     H120102   5.419   0.537   5.746
 6620WAT     H220103   5.477   0.689   5.734
 6621WAT      O20104   8.280   6.412   0.897
 6621WAT     H120105   8.298   6.340   0.830
 6621WAT     H220106   8.278   6.501   0.851
 6622WAT      O20107   7.266   6.529   0.700
 6622WAT     H120108   7.327   6.466   0.749
 6622WAT     H220109   7.319   6.609   0.670
 6623WAT      O20110   3.231   3.842   5.378
 6623WAT     H120111   3.150   3.789   5.404
 6623WAT     H220112   3.204   3.937   5.361
 6624WAT      O20113   0.586   5.839   2.111
 6624WAT     H120114   0.575   5.931   2.074
 6624WAT     H220115   0.680   5.826   2.142
 6625WAT      O20116   7.433   3.986   3.173
 6625WAT     H120117   7.347   4.036   3.165
 6625WAT     H220118   7.415   3.888   3.168
 6626WAT      O20119   9.419   0.476   7.541
 6626WAT     H120120   9.482   0.541   7.499
 6626WAT     H220121   9.328   0.517   7.548
 6627WAT      O20122   1.010   9.218   4.079
 6627WAT     H120123   1.063   9.218   3.994
 6627WAT     H220124   0.952   9.299   4.082
 6628WAT      O20125   5.217   0.258   9.224
 6628WAT     H120126   5.141   0.200   9.254
 6628WAT     H220127   5.185   0.352   9.215
 6629WAT      O20128   1.039   3.822   9.417
 6629WAT     H120129   1.082   3.858   9.499
 6629WAT     H220130   0.963   3.881   9.391
 6630WAT      O20131   6.632   9.833   9.145
 6630WAT     H120132   6.707   9.872   9.093
 6630WAT     H220133   6.587   9.905   9.198
 6631WAT      O20134   4.187   7.424   9.041
 6631WAT     H120135   4.227   7.505   8.997
 6631WAT     H220136   4.115   7.453   9.104
 6632WAT      O20137   8.872   6.411   7.752
 6632WAT     H120138   8.873   6.449   7.845
 6632WAT     H220139   8.783   6.428   7.710
 6633WAT      O20140   0.292   1.065   5.949
 6633WAT     H120141   0.357   1.083   5.875
 6633WAT     H220142   0.245   1.149   5.975
 6634WAT      O20143   5.621   1.020   2.883
 6634WAT     H120144   5.648   1.116   2.875
 6634WAT     H220145   5.684   0.972   2.944
 6635WAT      O20146   1.566   7.954   0.759
 6635WAT     H120147   1.589   7.866   0.801
 6635WAT     H220148   1.583   7.949   0.661
 6636WAT      O20149   3.728   4.091   3.326
 6636WAT     H120150   3.789   4.082   3.247
 6636WAT     H220151   3.659   4.160   3.307
 6637WAT      O20152   8.077   0.993   4.939
 6637WAT     H120153   7.989   1.030   4.909
 6637WAT     H220154   8.130   1.065   4.984
 6638WAT      O20155   6.101   4.573   9.825
 6638WAT     H120156   6.129   4.533   9.913
 6638WAT     H220157   6.005   4.600   9.829
 6639WAT      O20158   3.259   3.837   5.015
 6639WAT     H120159   3.199   3.798   5.085
 6639WAT     H220160   3.302   3.920   5.050
 6640WAT      O20161   4.515   4.887   1.287
 6640WAT     H120162   4.418   4.913   1.285
 6640WAT     H220163   4.549   4.893   1.381
 6641WAT      O20164   6.267   1.172   7.313
 6641WAT     H120165   6.327   1.093   7.326
 6641WAT     H220166   6.244   1.210   7.403
 6642WAT      O20167   2.655   7.659   6.635
 6642WAT     H120168   2.563   7.622   6.639
 6642WAT     H220169   2.683   7.670   6.539
 6643WAT      O20170   0.580   9.002   5.929
 6643WAT     H120171   0.594   8.906   5.905
 6643WAT     H220172   0.618   9.018   6.020
 6644WAT      O20173   2.645   5.133   1.100
 6644WAT     H120174   2.599   5.047   1.074
 6644WAT     H220175   2.699   5.166   1.024
 6645WAT      O20176   2.093   2.424   3.950
 6645WAT     H120177   2.095   2.346   3.887
 6645WAT     H220178   2.011   2.479   3.931
 6646WAT      O20179   2.347   1.082   1.894
 6646WAT     H120180   2.371   1.011   1.960
 6646WAT     H220181   2.397   1.065   1.809
 6647WAT      O20182   9.199   7.554   5.782
 6647WAT     H120183   9.240   7.491   5.848
 6647WAT     H220184   9.190   7.645   5.823
 6648WAT      O20185   0.341   7.103   5.914
 6648WAT     H120186   0.288   7.122   5.832
 6648WAT     H220187   0.318   7.169   5.985
 6649WAT      O20188   0.385   8.032   7.764
 6649WAT     H120189   0.394   8.131   7.750
 6649WAT     H220190   0.397   8.011   7.861
 6650WAT      O20191   5.612   8.663   1.271
 6650WAT     H120192   5.707   8.678   1.246
 6650WAT     H220193   5.579   8.578   1.230
 6651WAT      O20194   6.366   6.705   9.586
 6651WAT     H120195   6.359   6.726   9.683
 6651WAT     H220196   6.347   6.608   9.571
 6652WAT      O20197   4.727   5.941   8.947
 6652WAT     H120198   4.684   6.032   8.943
 6652WAT     H220199   4.767   5.919   8.858
 6653WAT      O20200   8.602   9.697   9.037
 6653WAT     H120201   8.605   9.788   8.996
 6653WAT     H220202   8.515   9.684   9.085
 6654WAT      O20203   3.420   4.115   2.263
 6654WAT     H120204   3.505   4.092   2.311
 6654WAT     H220205   3.353   4.043   2.278
 6655WAT      O20206   4.495   1.369   7.635
 6655WAT     H120207   4.562   1.379   7.708
 6655WAT     H220208   4.541   1.354   7.548
 6656WAT      O20209   4.780   3.317   5.979
 6656WAT     H120210   4.713   3.373   6.028
 6656WAT     H220211   4.753   3.221   5.986
 6657WAT      O20212   2.910   3.347   3.261
 6657WAT     H120213   3.005   3.375   3.272
 6657WAT     H220214   2.885   3.352   3.164
 6658WAT      O20215   2.233   2.109   2.014
 6658WAT     H120216   2.262   2.204   2.007
 6658WAT     H220217   2.282   2.065   2.090
 6659WAT      O20218   8.022   1.643   6.275
 6659WAT     H120219   7.943   1.684   6.230
 6659WAT     H220220   8.000   1.549   6.303
 6660WAT      O20221   5.312   4.685   0.613
 6660WAT     H120222   5.361   4.667   0.527
 6660WAT     H220223   5.258   4.768   0.604
 6661WAT      O20224   0.369   4.787   7.949
 6661WAT     H120225   0.396   4.809   8.042
 6661WAT     H220226   0.391   4.691   7.929
 6662WAT      O20227   2.655   0.389   4.730
 6662WAT     H120228   2.575   0.422   4.680
 6662WAT     H220229   2.655   0.428   4.822
 6663WAT      O20230   9.388   5.940   8.451
 6663WAT     H120231   9.314   5.892   8.405
 6663WAT     H220232   9.459   5.875   8.478
 6664WAT      O20233   1.199   5.498   2.378
 6664WAT     H120234   1.272   5.448   2.331
 6664WAT     H220235   1.112   5.479   2.335
 6665WAT      O20236   7.357   4.766   4.316
 6665WAT     H120237   7.312   4.680   4.291
 6665WAT     H220238   7.290   4.828   4.355
 6666WAT      O20239   4.776   6.419   2.867
 6666WAT     H120240   4.856   6.454   2.819
 6666WAT     H220241   4.709   6.385   2.801
 6667WAT      O20242   0.167   9.557   3.589
 6667WAT     H120243   0.082   9.586   3.545
 6667WAT     H220244   0.243   9.612   3.553
 6668WAT      O20245   7.669   2.671   6.734
 6668WAT     H120246   7.637   2.663   6.640
 6668WAT     H220247   7.592   2.656   6.797
 6669WAT      O20248   2.421   1.878   7.807
 6669WAT     H120249   2.359   1.899   7.883
 6669WAT     H220250   2.427   1.957   7.746
 6670WAT      O20251   2.382   2.818   2.757
 6670WAT     H120252   2.366   2.908   2.716
 6670WAT     H220253   2.452   2.826   2.828
 6671WAT      O20254   1.413   6.476   4.281
 6671WAT     H120255   1.379   6.565   4.311
 6671WAT     H220256   1.400   6.467   4.182
 6672WAT      O20257   2.005   8.980   4.625
 6672WAT     H120258   1.965   8.926   4.700
 6672WAT     H220259   1.935   8.996   4.555
 6673WAT      O20260   6.447   5.631   6.907
 6673WAT     H120261   6.357   5.606   6.944
 6673WAT     H220262   6.500   5.678   6.976
 6674WAT      O20263   7.029   7.006   1.273
 6674WAT     H120264   7.046   6.989   1.370
 6674WAT     H220265   7.051   6.924   1.220
 6675WAT      O20266   1.696   8.602   3.606
 6675WAT     H120267   1.692   8.600   3.506
 6675WAT     H220268   1.697   8.698   3.637
 6676WAT      O20269   1.176   2.967   2.907
 6676WAT     H120270   1.101   2.975   2.842
 6676WAT     H220271   1.240   3.042   2.893
 6677WAT      O20272   1.726   1.857   4.877
 6677WAT     H120273   1.824   1.867   4.859
 6677WAT     H220274   1.675   1.919   4.818
 6678WAT      O20275   6.621   7.257   0.183
 6678WAT     H120276   6.524   7.251   0.159
 6678WAT     H220277   6.677   7.237   0.103
 6679WAT      O20278   2.961   6.875   6.482
 6679WAT     H120279   2.926   6.831   6.400
 6679WAT     H220280   3.005   6.962   6.457
 6680WAT      O20281   6.148   8.935   3.643
 6680WAT     H120282   6.146   8.913   3.546
 6680WAT     H220283   6.098   8.865   3.695
 6681WAT      O20284   9.006   2.455   9.210
 6681WAT     H120285   9.023   2.526   9.142
 6681WAT     H220286   9.065   2.471   9.289
 6682WAT      O20287   8.421   4.085   2.232
 6682WAT     H120288   8.499   4.023   2.241
 6682WAT     H220289   8.417   4.120   2.138
 6683WAT      O20290   7.922   8.211   2.100
 6683WAT     H120291   7.987   8.145   2.137
 6683WAT     H220292   7.850   8.229   2.167
 6684WAT      O20293   7.192   9.427   8.233
 6684WAT     H120294   7.223   9.522   8.228
 6684WAT     H220295   7.121   9.411   8.165
 6685WAT      O20296   4.152   0.699   2.951
 6685WAT     H120297   4.152   0.779   3.010
 6685WAT     H220298   4.073   0.641   2.973
 6686WAT      O20299   3.170   6.329   0.209
 6686WAT     H120300   3.131   6.417   0.235
 6686WAT     H220301   3.237   6.301   0.277
 6687WAT      O20302   1.428   8.343   4.290
 6687WAT     H120303   1.449   8.247   4.303
 6687WAT     H220304   1.472   8.397   4.362
 6688WAT      O20305   7.357   5.988   4.694
 6688WAT     H120306   7.267   5.993   4.650
 6688WAT     H220307   7.391   6.080   4.710
 6689WAT      O20308   1.366   3.475   0.556
 6689WAT     H120309   1.457   3.435   0.546
 6689WAT     H220310   1.363   3.564   0.512
 6690WAT      O20311   4.489   9.283   8.935
 6690WAT     H120312   4.558   9.277   8.863
 6690WAT     H220313   4.421   9.210   8.924
 6691WAT      O20314   7.332   4.711   9.864
 6691WAT     H120315   7.413   4.735   9.917
 6691WAT     H220316   7.315   4.613   9.873
 6692WAT      O20317   0.246   1.724   5.030
 6692WAT     H120318   0.295   1.658   4.972
 6692WAT     H220319   0.152   1.732   4.999
 6693WAT      O20320   3.630   4.257   0.999
 6693WAT     H120321   3.576   4.341   0.999
 6693WAT     H220322   3.727   4.279   1.004
 6694WAT      O20323   6.854   5.839   3.285
 6694WAT     H120324   6.799   5.856   3.367
 6694WAT     H220325   6.836   5.911   3.218
 6695WAT      O20326   7.688   3.263   2.241
 6695WAT     H120327   7.770   3.307   2.278
 6695WAT     H220328   7.616   3.331   2.228
 6696WAT      O20329   9.376   0.917   9.182
 6696WAT     H120330   9.452   0.854   9.195
 6696WAT     H220331   9.357   0.927   9.085
 6697WAT      O20332   6.555   3.815   4.915
 6697WAT     H120333   6.640   3.774   4.948
 6697WAT     H220334   6.560   3.827   4.816
 6698WAT      O20335   2.188   4.529   6.405
 6698WAT     H120336   2.187   4.560   6.500
 6698WAT     H220337   2.260   4.577   6.355
 6699WAT      O20338   7.992   2.299   7.213
 6699WAT     H120339   7.966   2.242   7.135
 6699WAT     H220340   8.014   2.391   7.180
 6700WAT      O20341   7.864   4.316   2.991
 6700WAT     H120342   7.855   4.406   2.949
 6700WAT     H220343   7.910   4.254   2.928
 6701WAT      O20344   3.777   6.550   5.460
 6701WAT     H120345   3.798   6.467   5.408
 6701WAT     H220346   3.765   6.627   5.398
 6702WAT      O20347   3.136   4.231   8.522
 6702WAT     H120348   3.111   4.305   8.460
 6702WAT     H220349   3.214   4.181   8.485
 6703WAT      O20350   1.590   0.704   7.108
 6703WAT     H120351   1.600   0.761   7.190
 6703WAT     H220352   1.653   0.736   7.038
 6704WAT      O20353   3.361   3.588   3.382
 6704WAT     H120354   3.339   3.588   3.284
 6704WAT     H220355   3.278   3.575   3.435
 6705WAT      O20356   5.315   2.533   7.799
 6705WAT     H120357   5.327   2.518   7.897
 6705WAT     H220358   5.228   2.492   7.769
 6706WAT      O20359   3.577   4.991   7.181
 6706WAT     H120360   3.512   5.061   7.150
 6706WAT     H220361   3.538   4.942   7.259
 6707WAT      O20362   0.606   1.190   2.298
 6707WAT     H120363   0.511   1.217   2.312
 6707WAT     H220364   0.620   1.164   2.202
 6708WAT      O20365   7.420   9.417   4.358
 6708WAT     H120366   7.388   9.389   4.449
 6708WAT     H220367   7.402   9.515   4.346
 6709WAT      O20368   9.656   5.212   8.367
 6709WAT     H120369   9.566   5.182   8.399
 6709WAT     H220370   9.708   5.248   8.444
 6710WAT      O20371   1.427   1.219   5.722
 6710WAT     H120372   1.414   1.243   5.818
 6710WAT     H220373   1.510   1.164   5.712
 6711WAT      O20374   3.714   3.231   9.862
 6711WAT     H120375   3.775   3.292   9.812
 6711WAT     H220376   3.750   3.137   9.859
 6712WAT      O20377   4.681   4.709   7.680
 6712WAT     H120378   4.701   4.624   7.632
 6712WAT     H220379   4.594   4.700   7.728
 6713WAT      O20380   2.884   0.605   7.859
 6713WAT     H120381   2.812   0.661   7.899
 6713WAT     H220382   2.919   0.649   7.776
 6714WAT      O20383   7.862   3.880   2.553
 6714WAT     H120384   7.836   3.933   2.472
 6714WAT     H220385   7.799   3.901   2.628
 6715WAT      O20386   2.089   7.306   6.863
 6715WAT     H120387   2.056   7.327   6.771
 6715WAT     H220388   2.176   7.257   6.858
 6716WAT      O20389   8.268   9.710   8.902
 6716WAT     H120390   8.325   9.738   8.979
 6716WAT     H220391   8.186   9.768   8.899
 6717WAT      O20392   3.874   5.560   8.746
 6717WAT     H120393   3.817   5.638   8.722
 6717WAT     H220394   3.933   5.585   8.823
 6718WAT      O20395   6.298   0.115   0.418
 6718WAT     H120396   6.331   0.022   0.433
 6718WAT     H220397   6.375   0.178   0.413
 6719WAT      O20398   2.112   1.058   2.151
 6719WAT     H120399   2.069   1.011   2.228
 6719WAT     H220400   2.064   1.037   2.067
 6720WAT      O20401   9.827   0.010   3.562
 6720WAT     H120402   9.824  -0.082   3.522
 6720WAT     H220403   9.853   0.004   3.658
 6721WAT      O20404   9.852   7.643   6.345
 6721WAT     H120405   9.933   7.668   6.399
 6721WAT     H220406   9.770   7.656   6.400
 6722WAT      O20407   0.514   9.757   1.410
 6722WAT     H120408   0.475   9.681   1.460
 6722WAT     H220409   0.589   9.797   1.463
 6723WAT      O20410   2.405   6.268   3.484
 6723WAT     H120411   2.435   6.202   3.415
 6723WAT     H220412   2.478   6.335   3.499
 6724WAT      O20413   9.597   5.749   3.095
 6724WAT     H120414   9.572   5.821   3.030
 6724WAT     H220415   9.693   5.725   3.082
 6725WAT      O20416   9.636   4.523   0.907
 6725WAT     H120417   9.565   4.580   0.947
 6725WAT     H220418   9.672   4.461   0.976
 6726WAT      O20419   6.864   3.294   8.581
 6726WAT     H120420   6.841   3.234   8.505
 6726WAT     H220421   6.840   3.250   8.668
 6727WAT      O20422   8.931   8.319   2.757
 6727WAT     H120423   8.913   8.227   2.722
 6727WAT     H220424   8.915   8.320   2.856
 6728WAT      O20425   6.984   8.218   3.212
 6728WAT     H120426   6.964   8.246   3.118
 6728WAT     H220427   6.937   8.279   3.275
 6729WAT      O20428   7.936   5.303   9.072
 6729WAT     H120429   7.902   5.209   9.078
 6729WAT     H220430   8.010   5.315   9.138
 6730WAT      O20431   9.002   7.284   4.948
 6730WAT     H120432   9.003   7.194   4.906
 6730WAT     H220433   9.086   7.297   5.001
 6731WAT      O20434   3.437   7.788   4.518
 6731WAT     H120435   3.395   7.704   4.483
 6731WAT     H220436   3.533   7.770   4.542
 6732WAT      O20437   6.293   9.833   8.283
 6732WAT     H120438   6.264   9.841   8.378
 6732WAT     H220439   6.272   9.918   8.234
 6733WAT      O20440   5.401   0.701   3.084
 6733WAT     H120441   5.501   0.700   3.090
 6733WAT     H220442   5.370   0.795   3.066
 6734WAT      O20443   1.469   1.136   9.739
 6734WAT     H120444   1.550   1.161   9.792
 6734WAT     H220445   1.391   1.126   9.801
 6735WAT      O20446   2.206   0.599   4.094
 6735WAT     H120447   2.221   0.574   4.190
 6735WAT     H220448   2.255   0.683   4.073
 6736WAT      O20449   1.793   3.587   8.549
 6736WAT     H120450   1.785   3.627   8.640
 6736WAT     H220451   1.715   3.527   8.532
 6737WAT      O20452   5.389   1.989   0.998
 6737WAT     H120453   5.371   2.020   0.905
 6737WAT     H220454   5.487   1.978   1.012
 6738WAT      O20455   2.379   8.915   9.574
 6738WAT     H120456   2.386   8.934   9.672
 6738WAT     H220457   2.285   8.889   9.551
 6739WAT      O20458   2.894   2.703   6.612
 6739WAT     H120459   2.825   2.661   6.671
 6739WAT     H220460   2.962   2.749   6.668
 6740WAT      O20461   4.590   8.910   0.520
 6740WAT     H120462   4.646   8.973   0.575
 6740WAT     H220463   4.648   8.865   0.452
 6741WAT      O20464   0.945   4.693   2.790
 6741WAT     H120465   0.889   4.614   2.813
 6741WAT     H220466   0.932   4.764   2.859
 6742WAT      O20467   2.816   0.659   8.990
 6742WAT     H120468   2.746   0.594   8.959
 6742WAT     H220469   2.778   0.715   9.064
 6743WAT      O20470   8.498   0.791   6.690
 6743WAT     H120471   8.468   0.774   6.784
 6743WAT     H220472   8.532   0.705   6.651
 6744WAT      O20473   0.075   4.572   7.655
 6744WAT     H120474   0.055   4.670   7.652
 6744WAT     H220475   0.080   4.542   7.750
 6745WAT      O20476   3.154   5.679   5.051
 6745WAT     H120477   3.175   5.706   4.957
 6745WAT     H220478   3.203   5.595   5.073
 6746WAT      O20479   3.780   7.156   5.656
 6746WAT     H120480   3.750   7.087   5.722
 6746WAT     H220481   3.707   7.222   5.642
 6747WAT      O20482   7.048   4.161   2.205
 6747WAT     H120483   7.059   4.065   2.178
 6747WAT     H220484   6.955   4.176   2.238
 6748WAT      O20485   8.313   5.797   6.067
 6748WAT     H120486   8.232   5.831   6.019
 6748WAT     H220487   8.294   5.791   6.165
 6749WAT      O20488   4.898   0.641   9.608
 6749WAT     H120489   4.846   0.723   9.583
 6749WAT     H220490   4.894   0.628   9.707
 6750WAT      O20491   1.788   8.523   4.524
 6750WAT     H120492   1.826   8.542   4.615
 6750WAT     H220493   1.855   8.547   4.454
 6751WAT      O20494   0.861   3.648   3.051
 6751WAT     H120495   0.909   3.595   2.982
 6751WAT     H220496   0.836   3.737   3.014
 6752WAT      O20497   0.507   5.699   1.832
 6752WAT     H120498   0.578   5.750   1.881
 6752WAT     H220499   0.501   5.606   1.868
 6753WAT      O20500   3.453   1.915   9.076
 6753WAT     H120501   3.370   1.971   9.073
 6753WAT     H220502   3.479   1.889   8.983
 6754WAT      O20503   2.097   0.955   2.705
 6754WAT     H120504   2.183   0.909   2.729
 6754WAT     H220505   2.020   0.897   2.731
 6755WAT      O20506   8.992   5.243   8.052
 6755WAT     H120507   9.027   5.318   7.996
 6755WAT     H220508   8.923   5.278   8.115
 6756WAT      O20509   0.292   2.442   0.919
 6756WAT     H120510   0.357   2.482   0.984
 6756WAT     H220511   0.281   2.345   0.939
 6757WAT      O20512   6.238   5.112   7.406
 6757WAT     H120513   6.334   5.084   7.413
 6757WAT     H220514   6.232   5.211   7.405
 6758WAT      O20515   8.682   2.021   9.664
 6758WAT     H120516   8.602   2.022   9.604
 6758WAT     H220517   8.672   2.089   9.736
 6759WAT      O20518   5.129   9.467   5.503
 6759WAT     H120519   5.123   9.394   5.434
 6759WAT     H220520   5.194   9.440   5.575
 6760WAT      O20521   4.364   1.061   0.548
 6760WAT     H120522   4.333   1.058   0.643
 6760WAT     H220523   4.431   0.988   0.533
 6761WAT      O20524   9.076   8.816   6.852
 6761WAT     H120525   9.037   8.863   6.772
 6761WAT     H220526   9.089   8.882   6.926
 6762WAT      O20527   1.352   8.373   0.007
 6762WAT     H120528   1.444   8.349   0.038
 6762WAT     H220529   1.287   8.358   0.081
 6763WAT      O20530   3.848   7.244   6.312
 6763WAT     H120531   3.941   7.213   6.297
 6763WAT     H220532   3.841   7.285   6.403
 6764WAT      O20533   3.933   7.133   5.413
 6764WAT     H120534   4.023   7.091   5.426
 6764WAT     H220535   3.900   7.169   5.500
 6765WAT      O20536   1.738   8.848   8.497
 6765WAT     H120537   1.707   8.935   8.534
 6765WAT     H220538   1.791   8.864   8.413
 6766WAT      O20539   7.823   1.037   7.373
 6766WAT     H120540   7.912   1.001   7.399
 6766WAT     H220541   7.801   1.008   7.279
 6767WAT      O20542   4.013   5.219   2.618
 6767WAT     H120543   3.947   5.145   2.605
 6767WAT     H220544   4.069   5.200   2.698
 6768WAT      O20545   6.798   5.154   7.945
 6768WAT     H120546   6.808   5.145   7.846
 6768WAT     H220547   6.877   5.202   7.982
 6769WAT      O20548   3.514   9.529   6.072
 6769WAT     H120549   3.585   9.505   6.138
 6769WAT     H220550   3.438   9.574   6.120
 6770WAT      O20551   6.203   2.998   5.361
 6770WAT     H120552   6.273   2.932   5.333
 6770WAT     H220553   6.132   2.950   5.413
 6771WAT      O20554   3.644   3.358   9.500
 6771WAT     H120555   3.631   3.405   9.412
 6771WAT     H220556   3.649   3.425   9.573
 6772WAT      O20557   6.221   4.532   6.950
 6772WAT     H120558   6.235   4.453   6.891
 6772WAT     H220559   6.123   4.545   6.967
 6773WAT      O20560   5.061   2.781   3.799
 6773WAT     H120561   5.097   2.688   3.783
 6773WAT     H220562   5.023   2.787   3.891
 6774WAT      O20563   4.112   5.924   4.515
 6774WAT     H120564   4.210   5.944   4.524
 6774WAT     H220565   4.080   5.877   4.598
 6775WAT      O20566   8.391   0.465   8.403
 6775WAT     H120567   8.331   0.402   8.452
 6775WAT     H220568   8.468   0.413   8.364
 6776WAT      O20569   6.920   5.654   0.188
 6776WAT     H120570   6.834   5.691   0.155
 6776WAT     H220571   6.923   5.662   0.288
 6777WAT      O20572   1.933   9.299   2.217
 6777WAT     H120573   1.992   9.376   2.194
 6777WAT     H220574   1.884   9.317   2.302
 6778WAT      O20575   7.932   7.103   9.340
 6778WAT     H120576   8.032   7.112   9.340
 6778WAT     H220577   7.905   7.029   9.278
 6779WAT      O20578   9.561   4.461   3.278
 6779WAT     H120579   9.580   4.525   3.203
 6779WAT     H220580   9.615   4.378   3.265
 6780WAT      O20581   3.075   9.158   1.160
 6780WAT     H120582   3.086   9.066   1.124
 6780WAT     H220583   3.149   9.177   1.225
 6781WAT      O20584   7.003   7.450   4.966
 6781WAT     H120585   6.912   7.421   4.936
 6781WAT     H220586   7.006   7.454   5.065
 6782WAT      O20587   3.072   1.928   4.208
 6782WAT     H120588   2.988   1.876   4.225
 6782WAT     H220589   3.129   1.879   4.142
 6783WAT      O20590   4.726   3.403   2.998
 6783WAT     H120591   4.791   3.396   3.074
 6783WAT     H220592   4.749   3.335   2.929
 6784WAT      O20593   0.125   6.039   4.094
 6784WAT     H120594   0.151   5.943   4.108
 6784WAT     H220595   0.155   6.093   4.171
 6785WAT      O20596   1.822   2.091   3.561
 6785WAT     H120597   1.890   2.131   3.499
 6785WAT     H220598   1.777   2.164   3.613
 6786WAT      O20599   7.592   4.378   1.170
 6786WAT     H120600   7.605   4.309   1.099
 6786WAT     H220601   7.578   4.467   1.128
 6787WAT      O20602   3.806   4.663   7.321
 6787WAT     H120603   3.821   4.762   7.313
 6787WAT     H220604   3.776   4.626   7.233
 6788WAT      O20605   7.893   6.472   3.642
 6788WAT     H120606   7.858   6.490   3.550
 6788WAT     H220607   7.839   6.399   3.684
 6789WAT      O20608   3.425   1.363   0.797
 6789WAT     H120609   3.434   1.374   0.896
 6789WAT     H220610   3.357   1.291   0.779
 6790WAT      O20611   2.743   1.960   9.192
 6790WAT     H120612   2.786   1.930   9.277
 6790WAT     H220613   2.667   1.898   9.171
 6791WAT      O20614   4.739   2.402   6.828
 6791WAT     H120615   4.687   2.487   6.837
 6791WAT     H220616   4.748   2.379   6.731
 6792WAT      O20617   0.549   2.120   5.235
 6792WAT     H120618   0.463   2.084   5.200
 6792WAT     H220619   0.568   2.078   5.324
 6793WAT      O20620   8.742   3.893   9.473
 6793WAT     H120621   8.753   3.798   9.503
 6793WAT     H220622   8.645   3.916   9.472
 6794WAT      O20623   2.480   6.301   8.744
 6794WAT     H120624   2.483   6.368   8.670
 6794WAT     H220625   2.501   6.210   8.708
 6795WAT      O20626   9.621   9.063   9.437
 6795WAT     H120627   9.631   9.044   9.535
 6795WAT     H220628   9.625   8.978   9.385
 6796WAT      O20629   7.980   4.308   2.459
 6796WAT     H120630   8.059   4.268   2.505
 6796WAT     H220631   7.984   4.408   2.466
 6797WAT      O20632   8.112   6.167   7.385
 6797WAT     H120633   8.081   6.086   7.435
 6797WAT     H220634   8.201   6.195   7.421
 6798WAT      O20635   0.926   7.953   9.206
 6798WAT     H120636   0.863   8.024   9.175
 6798WAT     H220637   0.965   7.979   9.294
 6799WAT      O20638   4.522   2.113   2.749
 6799WAT     H120639   4.495   2.019   2.727
 6799WAT     H220640   4.451   2.155   2.806
 6800WAT      O20641   5.343   8.154   8.267
 6800WAT     H120642   5.343   8.247   8.303
 6800WAT     H220643   5.254   8.135   8.224
 6801WAT      O20644   7.761   0.817   1.580
 6801WAT     H120645   7.791   0.754   1.651
 6801WAT     H220646   7.824   0.895   1.577
 6802WAT      O20647   7.189   7.530   5.634
 6802WAT     H120648   7.251   7.584   5.690
 6802WAT     H220649   7.196   7.560   5.538
 6803WAT      O20650   1.992   1.904   7.297
 6803WAT     H120651   1.986   1.832   7.366
 6803WAT     H220652   2.059   1.878   7.227
 6804WAT      O20653   7.811   9.310   6.817
 6804WAT     H120654   7.790   9.224   6.863
 6804WAT     H220655   7.910   9.324   6.815
 6805WAT      O20656   7.100   6.474   0.295
 6805WAT     H120657   7.067   6.434   0.210
 6805WAT     H220658   7.155   6.407   0.345
 6806WAT      O20659   4.507   2.785   4.133
 6806WAT     H120660   4.480   2.704   4.184
 6806WAT     H220661   4.437   2.856   4.143
 6807WAT      O20662   3.970   0.052   7.976
 6807WAT     H120663   3.994  -0.018   8.044
 6807WAT     H220664   3.877   0.036   7.943
 6808WAT      O20665   8.732   7.819   0.525
 6808WAT     H120666   8.818   7.849   0.483
 6808WAT     H220667   8.753   7.756   0.600
 6809WAT      O20668   4.923   6.680   4.527
 6809WAT     H120669   4.972   6.593   4.533
 6809WAT     H220670   4.825   6.663   4.521
 6810WAT      O20671   9.147   5.919   9.727
 6810WAT     H120672   9.228   5.875   9.765
 6810WAT     H220673   9.174   5.982   9.654
 6811WAT      O20674   3.875   6.750   3.046
 6811WAT     H120675   3.897   6.653   3.030
 6811WAT     H220676   3.832   6.759   3.135
 6812WAT      O20677   5.917   2.390   1.905
 6812WAT     H120678   5.839   2.333   1.932
 6812WAT     H220679   5.938   2.374   1.809
 6813WAT      O20680   4.708   6.633   0.095
 6813WAT     H120681   4.780   6.702   0.090
 6813WAT     H220682   4.622   6.677   0.121
 6814WAT      O20683   6.820   5.073   1.433
 6814WAT     H120684   6.771   5.160   1.427
 6814WAT     H220685   6.911   5.089   1.472
 6815WAT      O20686   4.417   5.794   1.210
 6815WAT     H120687   4.442   5.835   1.122
 6815WAT     H220688   4.404   5.696   1.199
 6816WAT      O20689   4.775   2.377   9.344
 6816WAT     H120690   4.757   2.287   9.303
 6816WAT     H220691   4.727   2.384   9.431
 6817WAT      O20692   2.769   6.402   4.734
 6817WAT     H120693   2.798   6.465   4.663
 6817WAT     H220694   2.849   6.352   4.768
 6818WAT      O20695   8.465   6.614   3.614
 6818WAT     H120696   8.373   6.638   3.583
 6818WAT     H220697   8.498   6.536   3.561
 6819WAT      O20698   4.982   6.914   7.910
 6819WAT     H120699   4.949   6.974   7.983
 6819WAT     H220700   4.956   6.952   7.821
 6820WAT      O20701   8.500   6.093   4.651
 6820WAT     H120702   8.532   6.115   4.559
 6820WAT     H220703   8.557   6.019   4.688
 6821WAT      O20704   6.425   0.715   4.593
 6821WAT     H120705   6.500   0.780   4.581
 6821WAT     H220706   6.345   0.748   4.542
 6822WAT      O20707   0.250   9.349   9.599
 6822WAT     H120708   0.261   9.383   9.693
 6822WAT     H220709   0.174   9.284   9.596
 6823WAT      O20710   2.329   1.956   6.220
 6823WAT     H120711   2.279   1.890   6.276
 6823WAT     H220712   2.361   1.912   6.137
 6824WAT      O20713   3.828   4.844   5.990
 6824WAT     H120714   3.814   4.887   5.900
 6824WAT     H220715   3.923   4.859   6.019
 6825WAT      O20716   1.589   6.322   5.302
 6825WAT     H120717   1.559   6.415   5.281
 6825WAT     H220718   1.550   6.258   5.235
 6826WAT      O20719   9.275   0.672   9.695
 6826WAT     H120720   9.332   0.754   9.700
 6826WAT     H220721   9.266   0.644   9.599
 6827WAT      O20722   6.591   0.996   2.886
 6827WAT     H120723   6.676   0.944   2.886
 6827WAT     H220724   6.519   0.943   2.930
 6828WAT      O20725   5.421   9.765   9.036
 6828WAT     H120726   5.475   9.849   9.042
 6828WAT     H220727   5.470   9.698   8.979
 6829WAT      O20728   4.540   5.685   8.819
 6829WAT     H120729   4.624   5.678   8.765
 6829WAT     H220730   4.538   5.772   8.868
 6830WAT      O20731   6.700   4.660   8.399
 6830WAT     H120732   6.723   4.563   8.387
 6830WAT     H220733   6.778   4.709   8.437
 6831WAT      O20734   4.376   0.876   2.049
 6831WAT     H120735   4.282   0.889   2.081
 6831WAT     H220736   4.427   0.821   2.116
 6832WAT      O20737   9.413   1.690   4.632
 6832WAT     H120738   9.350   1.743   4.689
 6832WAT     H220739   9.360   1.636   4.566
 6833WAT      O20740   3.776   0.628   5.486
 6833WAT     H120741   3.783   0.618   5.387
 6833WAT     H220742   3.783   0.539   5.530
 6834WAT      O20743   4.579   3.357   8.935
 6834WAT     H120744   4.587   3.260   8.960
 6834WAT     H220745   4.659   3.407   8.968
 6835WAT      O20746   0.214   5.963   8.545
 6835WAT     H120747   0.133   6.021   8.533
 6835WAT     H220748   0.210   5.919   8.635
 6836WAT      O20749   6.144   0.292   5.614
 6836WAT     H120750   6.133   0.194   5.630
 6836WAT     H220751   6.172   0.307   5.520
 6837WAT      O20752   0.267   5.658   5.961
 6837WAT     H120753   0.195   5.655   5.891
 6837WAT     H220754   0.281   5.566   5.998
 6838WAT      O20755   0.352   9.166   1.893
 6838WAT     H120756   0.357   9.077   1.938
 6838WAT     H220757   0.444   9.198   1.872
 6839WAT      O20758   7.005   2.265   0.795
 6839WAT     H120759   7.066   2.304   0.726
 6839WAT     H220760   7.060   2.223   0.867
 6840WAT      O20761   7.941   2.095   1.190
 6840WAT     H120762   7.901   2.003   1.188
 6840WAT     H220763   7.948   2.130   1.097
 6841WAT      O20764   7.416   2.904   1.785
 6841WAT     H120765   7.429   2.805   1.781
 6841WAT     H220766   7.459   2.946   1.705
 6842WAT      O20767   3.223   5.917   6.423
 6842WAT     H120768   3.281   5.922   6.504
 6842WAT     H220769   3.175   5.830   6.421
 6843WAT      O20770   6.545   4.816   0.764
 6843WAT     H120771   6.560   4.758   0.845
 6843WAT     H220772   6.456   4.861   0.772
 6844WAT      O20773   9.112   3.959   3.546
 6844WAT     H120774   9.093   4.051   3.583
 6844WAT     H220775   9.122   3.965   3.447
 6845WAT      O20776   0.079   6.482   2.449
 6845WAT     H120777  -0.016   6.460   2.472
 6845WAT     H220778   0.136   6.401   2.461
 6846WAT      O20779   7.890   3.088   2.918
 6846WAT     H120780   7.821   3.128   2.857
 6846WAT     H220781   7.878   2.988   2.921
 6847WAT      O20782   0.524   1.611   0.424
 6847WAT     H120783   0.424   1.606   0.429
 6847WAT     H220784   0.561   1.518   0.432
 6848WAT      O20785   3.334   2.735   3.169
 6848WAT     H120786   3.299   2.713   3.078
 6848WAT     H220787   3.434   2.731   3.168
 6849WAT      O20788   1.089   0.740   2.190
 6849WAT     H120789   1.117   0.738   2.094
 6849WAT     H220790   1.057   0.832   2.214
 6850WAT      O20791   6.752   6.427   8.180
 6850WAT     H120792   6.747   6.349   8.243
 6850WAT     H220793   6.834   6.418   8.123
 6851WAT      O20794   8.607   6.200   1.189
 6851WAT     H120795   8.697   6.226   1.154
 6851WAT     H220796   8.618   6.130   1.260
 6852WAT      O20797   6.359   2.298   3.134
 6852WAT     H120798   6.302   2.258   3.206
 6852WAT     H220799   6.455   2.289   3.159
 6853WAT      O20800   1.760   5.977   3.471
 6853WAT     H120801   1.858   5.990   3.487
 6853WAT     H220802   1.746   5.938   3.380
 6854WAT      O20803   0.581   0.707   4.119
 6854WAT     H120804   0.511   0.778   4.122
 6854WAT     H220805   0.603   0.678   4.212
 6855WAT      O20806   3.340   8.928   1.652
 6855WAT     H120807   3.322   8.950   1.556
 6855WAT     H220808   3.430   8.965   1.678
 6856WAT      O20809   9.516   5.745   0.942
 6856WAT     H120810   9.513   5.708   0.849
 6856WAT     H220811   9.579   5.690   0.997
 6857WAT      O20812   8.184   6.091   0.042
 6857WAT     H120813   8.245   6.157  -0.001
 6857WAT     H220814   8.136   6.134   0.118
 6858WAT      O20815   8.706   8.156   6.210
 6858WAT     H120816   8.804   8.155   6.190
 6858WAT     H220817   8.691   8.122   6.303
 6859WAT      O20818   4.896   7.796   2.108
 6859WAT     H120819   4.798   7.814   2.093
 6859WAT     H220820   4.939   7.878   2.145
 6860WAT      O20821   6.619   3.755   0.229
 6860WAT     H120822   6.677   3.771   0.148
 6860WAT     H220823   6.532   3.716   0.200
 6861WAT      O20824   8.196   7.524   0.923
 6861WAT     H120825   8.296   7.527   0.922
 6861WAT     H220826   8.162   7.492   0.834
 6862WAT      O20827   9.618   3.699   2.627
 6862WAT     H120828   9.554   3.675   2.554
 6862WAT     H220829   9.693   3.754   2.589
 6863WAT      O20830   1.753   9.501   4.687
 6863WAT     H120831   1.714   9.516   4.596
 6863WAT     H220832   1.692   9.539   4.757
 6864WAT      O20833   7.662   7.330   9.288
 6864WAT     H120834   7.569   7.362   9.273
 6864WAT     H220835   7.691   7.352   9.381
 6865WAT      O20836   5.837   2.001   9.770
 6865WAT     H120837   5.803   2.090   9.738
 6865WAT     H220838   5.865   1.945   9.692
 6866WAT      O20839   0.263   5.541   0.461
 6866WAT     H120840   0.258   5.490   0.375
 6866WAT     H220841   0.328   5.617   0.452
 6867WAT      O20842   8.882   1.794   3.040
 6867WAT     H120843   8.831   1.751   2.965
 6867WAT     H220844   8.837   1.774   3.127
 6868WAT      O20845   1.103   8.251   1.853
 6868WAT     H120846   1.111   8.295   1.942
 6868WAT     H220847   1.181   8.190   1.838
 6869WAT      O20848   2.112   1.641   3.074
 6869WAT     H120849   2.153   1.729   3.051
 6869WAT     H220850   2.013   1.650   3.079
 6870WAT      O20851   8.384   3.171   0.717
 6870WAT     H120852   8.375   3.259   0.671
 6870WAT     H220853   8.428   3.106   0.655
 6871WAT      O20854   2.214   8.092   6.862
 6871WAT     H120855   2.291   8.033   6.838
 6871WAT     H220856   2.132   8.060   6.814
 6872WAT      O20857   1.109   6.277   9.015
 6872WAT     H120858   1.122   6.239   8.923
 6872WAT     H220859   1.147   6.214   9.083
 6873WAT      O20860   5.715   3.962   6.870
 6873WAT     H120861   5.715   4.056   6.837
 6873WAT     H220862   5.647   3.952   6.943
 6874WAT      O20863   8.241   4.902   4.788
 6874WAT     H120864   8.269   4.835   4.857
 6874WAT     H220865   8.322   4.931   4.737
 6875WAT      O20866   9.487   4.876   2.931
 6875WAT     H120867   9.521   4.784   2.947
 6875WAT     H220868   9.541   4.942   2.984
 6876WAT      O20869   6.018   9.833   6.409
 6876WAT     H120870   5.940   9.772   6.396
 6876WAT     H220871   6.095   9.802   6.353
 6877WAT      O20872   6.990   5.778   0.949
 6877WAT     H120873   6.986   5.866   0.902
 6877WAT     H220874   6.903   5.729   0.936
 6878WAT      O20875   8.018   2.970   9.804
 6878WAT     H120876   7.961   2.889   9.790
 6878WAT     H220877   8.073   2.958   9.887
 6879WAT      O20878   4.385   7.422   1.971
 6879WAT     H120879   4.366   7.516   1.944
 6879WAT     H220880   4.324   7.360   1.920
 6880WAT      O20881   9.585   2.779   0.008
 6880WAT     H120882   9.588   2.785   0.108
 6880WAT     H220883   9.495   2.746  -0.021
 6881WAT      O20884   6.322   6.737   8.916
 6881WAT     H120885   6.353   6.682   8.838
 6881WAT     H220886   6.373   6.823   8.919
 6882WAT      O20887   2.710   5.066   2.208
 6882WAT     H120888   2.788   5.018   2.168
 6882WAT     H220889   2.635   5.001   2.223
 6883WAT      O20890   1.986   6.611   8.326
 6883WAT     H120891   1.993   6.516   8.294
 6883WAT     H220892   1.970   6.671   8.248
 6884WAT      O20893   6.922   9.426   8.177
 6884WAT     H120894   6.842   9.386   8.132
 6884WAT     H220895   6.968   9.489   8.114
 6885WAT      O20896   7.817   3.420   7.800
 6885WAT     H120897   7.772   3.483   7.736
 6885WAT     H220898   7.869   3.473   7.867
 6886WAT      O20899   8.730   3.728   0.823
 6886WAT     H120900   8.693   3.639   0.850
 6886WAT     H220901   8.676   3.801   0.865
 6887WAT      O20902   9.772   2.467   8.117
 6887WAT     H120903   9.779   2.467   8.017
 6887WAT     H220904   9.784   2.374   8.151
 6888WAT      O20905   4.698   9.304   2.032
 6888WAT     H120906   4.788   9.291   1.989
 6888WAT     H220907   4.628   9.312   1.961
 6889WAT      O20908   6.586   5.576   5.869
 6889WAT     H120909   6.533   5.498   5.836
 6889WAT     H220910   6.651   5.604   5.798
 6890WAT      O20911   0.193   1.348   5.310
 6890WAT     H120912   0.187   1.339   5.211
 6890WAT     H220913   0.237   1.267   5.349
 6891WAT      O20914   5.563   1.223   1.124
 6891WAT     H120915   5.500   1.170   1.068
 6891WAT     H220916   5.597   1.301   1.071
 6892WAT      O20917   8.512   1.160   4.314
 6892WAT     H120918   8.429   1.197   4.273
 6892WAT     H220919   8.522   1.064   4.288
 6893WAT      O20920   1.581   1.443   2.134
 6893WAT     H120921   1.609   1.443   2.230
 6893WAT     H220922   1.618   1.362   2.089
 6894WAT      O20923   4.001   9.179   5.430
 6894WAT     H120924   3.965   9.113   5.364
 6894WAT     H220925   4.101   9.175   5.428
 6895WAT      O20926   1.237   3.991   6.390
 6895WAT     H120927   1.320   3.951   6.351
 6895WAT     H220928   1.221   3.952   6.481
 6896WAT      O20929   0.454   4.914   7.385
 6896WAT     H120930   0.549   4.923   7.413
 6896WAT     H220931   0.407   5.001   7.398
 6897WAT      O20932   8.624   7.516   1.270
 6897WAT     H120933   8.653   7.424   1.297
 6897WAT     H220934   8.556   7.550   1.336
 6898WAT      O20935   0.263   2.063   7.390
 6898WAT     H120936   0.360   2.041   7.383
 6898WAT     H220937   0.252   2.150   7.437
 6899WAT      O20938   5.319   3.335   3.074
 6899WAT     H120939   5.358   3.398   3.007
 6899WAT     H220940   5.358   3.353   3.164
 6900WAT      O20941   6.274   9.658   9.261
 6900WAT     H120942   6.221   9.574   9.269
 6900WAT     H220943   6.311   9.666   9.168
 6901WAT      O20944   8.290   9.730   3.699
 6901WAT     H120945   8.264   9.819   3.660
 6901WAT     H220946   8.223   9.661   3.671
 6902WAT      O20947   1.205   5.367   5.798
 6902WAT     H120948   1.291   5.411   5.771
 6902WAT     H220949   1.225   5.286   5.852
 6903WAT      O20950   5.882   8.007   2.929
 6903WAT     H120951   5.978   8.016   2.954
 6903WAT     H220952   5.873   7.937   2.857
 6904WAT      O20953   2.895   7.841   3.425
 6904WAT     H120954   2.956   7.790   3.487
 6904WAT     H220955   2.938   7.927   3.399
 6905WAT      O20956   3.033   9.692   0.889
 6905WAT     H120957   3.024   9.729   0.982
 6905WAT     H220958   2.942   9.689   0.846
 6906WAT      O20959   1.573   4.911   2.973
 6906WAT     H120960   1.522   4.826   2.962
 6906WAT     H220961   1.613   4.938   2.886
 6907WAT      O20962   0.438   9.298   9.403
 6907WAT     H120963   0.499   9.223   9.430
 6907WAT     H220964   0.382   9.326   9.481
 6908WAT      O20965   8.472   4.467   1.449
 6908WAT     H120966   8.481   4.490   1.352
 6908WAT     H220967   8.543   4.402   1.474
 6909WAT      O20968   1.721   1.708   1.533
 6909WAT     H120969   1.801   1.688   1.589
 6909WAT     H220970   1.658   1.630   1.534
 6910WAT      O20971   0.038   8.298   8.415
 6910WAT     H120972   0.040   8.199   8.404
 6910WAT     H220973   0.036   8.320   8.513
 6911WAT      O20974   4.393   3.859   9.678
 6911WAT     H120975   4.371   3.873   9.581
 6911WAT     H220976   4.367   3.940   9.730
 6912WAT      O20977   5.754   2.075   0.688
 6912WAT     H120978   5.694   2.013   0.636
 6912WAT     H220979   5.699   2.143   0.735
 6913WAT      O20980   2.164   3.140   3.481
 6913WAT     H120981   2.196   3.139   3.386
 6913WAT     H220982   2.064   3.149   3.482
 6914WAT      O20983   7.292   0.336   8.565
 6914WAT     H120984   7.262   0.297   8.479
 6914WAT     H220985   7.322   0.263   8.626
 6915WAT      O20986   5.804   2.039   6.052
 6915WAT     H120987   5.836   2.033   6.146
 6915WAT     H220988   5.712   2.079   6.051
 6916WAT      O20989   7.902   6.181   4.163
 6916WAT     H120990   7.992   6.137   4.161
 6916WAT     H220991   7.901   6.249   4.236
 6917WAT      O20992   1.488   2.327   7.163
 6917WAT     H120993   1.488   2.425   7.141
 6917WAT     H220994   1.426   2.280   7.101
 6918WAT      O20995   7.171   0.178   1.015
 6918WAT     H120996   7.143   0.191   0.920
 6918WAT     H220997   7.148   0.258   1.069
 6919WAT      O20998   6.846   8.626   4.063
 6919WAT     H120999   6.904   8.595   4.138
 6919WAT     H221000   6.863   8.569   3.982
 6920WAT      O21001   5.742   7.275   7.035
 6920WAT     H121002   5.721   7.251   7.129
 6920WAT     H221003   5.836   7.247   7.013
 6921WAT      O21004   0.429   9.520   3.945
 6921WAT     H121005   0.335   9.487   3.936
 6921WAT     H221006   0.476   9.511   3.858
 6922WAT      O21007   4.357   8.322   7.447
 6922WAT     H121008   4.385   8.289   7.357
 6922WAT     H221009   4.432   8.374   7.489
 6923WAT      O21010   9.674   4.700   7.470
 6923WAT     H121011   9.636   4.688   7.379
 6923WAT     H221012   9.627   4.639   7.534
 6924WAT      O21013   3.804   8.823   9.181
 6924WAT     H121014   3.843   8.787   9.266
 6924WAT     H221015   3.806   8.923   9.183
 6925WAT      O21016   3.830   6.105   2.501
 6925WAT     H121017   3.731   6.117   2.504
 6925WAT     H221018   3.864   6.089   2.594
 6926WAT      O21019   0.300   1.994   3.228
 6926WAT     H121020   0.356   2.071   3.260
 6926WAT     H221021   0.204   2.010   3.251
 6927WAT      O21022   6.342   5.852   3.651
 6927WAT     H121023   6.319   5.756   3.634
 6927WAT     H221024   6.367   5.864   3.747
 6928WAT      O21025   8.090   8.908   9.763
 6928WAT     H121026   8.105   8.874   9.855
 6928WAT     H221027   8.143   8.991   9.749
 6929WAT      O21028   4.023   9.551   1.890
 6929WAT     H121029   4.034   9.639   1.844
 6929WAT     H221030   4.111   9.503   1.892
 6930WAT      O21031   7.382   1.735   2.801
 6930WAT     H121032   7.287   1.724   2.769
 6930WAT     H221033   7.381   1.765   2.897
 6931WAT      O21034   6.188   2.950   7.265
 6931WAT     H121035   6.234   3.030   7.227
 6931WAT     H221036   6.165   2.968   7.361
 6932WAT      O21037   2.922   7.419   7.475
 6932WAT     H121038   2.992   7.490   7.461
 6932WAT     H221039   2.888   7.389   7.386
 6933WAT      O21040   2.740   1.592   9.549
 6933WAT     H121041   2.738   1.601   9.450
 6933WAT     H221042   2.727   1.682   9.591
 6934WAT      O21043   0.120   3.920   5.350
 6934WAT     H121044   0.199   3.862   5.370
 6934WAT     H221045   0.081   3.953   5.436
 6935WAT      O21046   1.598   1.976   6.607
 6935WAT     H121047   1.526   1.920   6.563
 6935WAT     H221048   1.650   1.919   6.670
 6936WAT      O21049   2.398   6.998   2.501
 6936WAT     H121050   2.440   6.922   2.451
 6936WAT     H221051   2.319   7.031   2.450
 6937WAT      O21052   3.603   6.391   4.347
 6937WAT     H121053   3.590   6.489   4.362
 6937WAT     H221054   3.565   6.366   4.258
 6938WAT      O21055   4.192   2.272   1.908
 6938WAT     H121056   4.107   2.301   1.865
 6938WAT     H221057   4.266   2.271   1.840
 6939WAT      O21058   9.443   4.145   8.368
 6939WAT     H121059   9.511   4.219   8.362
 6939WAT     H221060   9.446   4.104   8.459
 6940WAT      O21061   0.425   6.551   7.688
 6940WAT     H121062   0.347   6.581   7.633
 6940WAT     H221063   0.499   6.522   7.628
 6941WAT      O21064   5.421   3.858   9.868
 6941WAT     H121065   5.505   3.871   9.920
 6941WAT     H221066   5.410   3.933   9.803
 6942WAT      O21067   9.017   3.136   9.053
 6942WAT     H121068   9.054   3.144   9.146
 6942WAT     H221069   8.954   3.212   9.036
 6943WAT      O21070   5.299   2.795   6.359
 6943WAT     H121071   5.351   2.750   6.287
 6943WAT     H221072   5.239   2.864   6.319
 6944WAT      O21073   8.783   5.952   2.380
 6944WAT     H121074   8.874   5.910   2.380
 6944WAT     H221075   8.739   5.934   2.292
 6945WAT      O21076   7.542   0.636   9.175
 6945WAT     H121077   7.581   0.638   9.083
 6945WAT     H221078   7.519   0.729   9.203
 6946WAT      O21079   9.450   0.739   4.918
 6946WAT     H121080   9.493   0.763   4.831
 6946WAT     H221081   9.444   0.820   4.976
 6947WAT      O21082   1.633   0.222   9.051
 6947WAT     H121083   1.677   0.243   8.963
 6947WAT     H221084   1.574   0.143   9.041
 6948WAT      O21085   5.026   8.386   4.757
 6948WAT     H121086   5.048   8.468   4.810
 6948WAT     H221087   4.980   8.320   4.816
 6949WAT      O21088   9.441   0.712   2.221
 6949WAT     H121089   9.489   0.702   2.308
 6949WAT     H221090   9.508   0.726   2.147
 6950WAT      O21091   4.682   9.434   8.315
 6950WAT     H121092   4.650   9.398   8.403
 6950WAT     H221093   4.619   9.405   8.243
 6951WAT      O21094   1.195   4.670   5.704
 6951WAT     H121095   1.107   4.642   5.666
 6951WAT     H221096   1.218   4.612   5.782
 6952WAT      O21097   1.204   6.016   7.080
 6952WAT     H121098   1.293   5.974   7.098
 6952WAT     H221099   1.204   6.109   7.116
 6953WAT      O21100   4.219   7.472   7.100
 6953WAT     H121101   4.124   7.501   7.109
 6953WAT     H221102   4.223   7.373   7.090
 6954WAT      O21103   7.220   0.406   0.695
 6954WAT     H121104   7.303   0.360   0.666
 6954WAT     H221105   7.148   0.338   0.712
 6955WAT      O21106   5.106   7.576   4.624
 6955WAT     H121107   5.190   7.534   4.658
 6955WAT     H221108   5.043   7.593   4.700
 6956WAT      O21109   0.906   0.195   6.125
 6956WAT     H121110   0.868   0.257   6.056
 6956WAT     H221111   1.004   0.183   6.108
 6957WAT      O21112   4.548   3.644   0.046
 6957WAT     H121113   4.465   3.687   0.010
 6957WAT     H221114   4.563   3.557  -0.001
 6958WAT      O21115   9.119   9.518   8.228
 6958WAT     H121116   9.021   9.522   8.208
 6958WAT     H221117   9.169   9.486   8.147
 6959WAT      O21118   8.068   1.978   9.320
 6959WAT     H121119   8.023   2.014   9.237
 6959WAT     H221120   8.085   2.054   9.383
 6960WAT      O21121   2.664   7.278   8.945
 6960WAT     H121122   2.597   7.240   9.008
 6960WAT     H221123   2.632   7.367   8.912
 6961WAT      O21124   3.581   5.430   2.812
 6961WAT     H121125   3.652   5.466   2.872
 6961WAT     H221126   3.579   5.483   2.727
 6962WAT      O21127   6.179   8.606   1.779
 6962WAT     H121128   6.100   8.597   1.840
 6962WAT     H221129   6.195   8.703   1.760
 6963WAT      O21130   6.733   0.175   7.223
 6963WAT     H121131   6.830   0.196   7.237
 6963WAT     H221132   6.679   0.259   7.235
 6964WAT      O21133   5.532   4.942   5.666
 6964WAT     H121134   5.444   4.896   5.667
 6964WAT     H221135   5.564   4.951   5.572
 6965WAT      O21136   6.192   1.368   2.810
 6965WAT     H121137   6.176   1.319   2.896
 6965WAT     H221138   6.122   1.343   2.744
 6966WAT      O21139   3.297   8.546   4.071
 6966WAT     H121140   3.328   8.614   4.138
 6966WAT     H221141   3.217   8.498   4.106
 6967WAT      O21142   8.386   2.875   3.525
 6967WAT     H121143   8.479   2.883   3.562
 6967WAT     H221144   8.372   2.783   3.489
 6968WAT      O21145   5.246   2.184   5.177
 6968WAT     H121146   5.172   2.121   5.151
 6968WAT     H221147   5.224   2.275   5.142
 6969WAT      O21148   8.704   0.354   6.569
 6969WAT     H121149   8.705   0.318   6.663
 6969WAT     H221150   8.778   0.311   6.517
 6970WAT      O21151   8.742   0.099   4.788
 6970WAT     H121152   8.832   0.143   4.794
 6970WAT     H221153   8.741   0.037   4.709
 6971WAT      O21154   3.128   8.341   4.578
 6971WAT     H121155   3.058   8.300   4.635
 6971WAT     H221156   3.098   8.431   4.547
 6972WAT      O21157   7.815   4.595   7.655
 6972WAT     H121158   7.722   4.572   7.682
 6972WAT     H221159   7.840   4.544   7.573
 6973WAT      O21160   9.337   4.503   4.131
 6973WAT     H121161   9.283   4.587   4.137
 6973WAT     H221162   9.328   4.463   4.040
 6974WAT      O21163   2.211   6.372   3.301
 6974WAT     H121164   2.161   6.293   3.264
 6974WAT     H221165   2.295   6.340   3.344
 6975WAT      O21166   3.140   7.264   9.012
 6975WAT     H121167   3.119   7.329   9.085
 6975WAT     H221168   3.054   7.227   8.975
 6976WAT      O21169   5.373   2.346   0.152
 6976WAT     H121170   5.453   2.358   0.210
 6976WAT     H221171   5.295   2.393   0.193
 6977WAT      O21172   9.012   9.799   5.329
 6977WAT     H121173   9.106   9.771   5.348
 6977WAT     H221174   8.998   9.805   5.230
 6978WAT      O21175   8.692   9.051   8.811
 6978WAT     H121176   8.702   8.968   8.866
 6978WAT     H221177   8.782   9.094   8.798
 6979WAT      O21178   4.589   4.032   8.318
 6979WAT     H121179   4.666   4.030   8.381
 6979WAT     H221180   4.535   3.948   8.329
 6980WAT      O21181   9.138   6.370   7.502
 6980WAT     H121182   9.115   6.429   7.425
 6980WAT     H221183   9.146   6.425   7.585
 6981WAT      O21184   8.450   4.330   3.237
 6981WAT     H121185   8.362   4.342   3.282
 6981WAT     H221186   8.522   4.372   3.292
 6982WAT      O21187   8.375   7.487   2.059
 6982WAT     H121188   8.407   7.515   1.968
 6982WAT     H221189   8.328   7.564   2.102
 6983WAT      O21190   2.554   7.671   4.451
 6983WAT     H121191   2.629   7.681   4.385
 6983WAT     H221192   2.517   7.761   4.472
 6984WAT      O21193   8.123   2.244   1.355
 6984WAT     H121194   8.064   2.217   1.279
 6984WAT     H221195   8.088   2.327   1.398
 6985WAT      O21196   4.776   6.228   1.927
 6985WAT     H121197   4.734   6.147   1.884
 6985WAT     H221198   4.744   6.310   1.880
 6986WAT      O21199   4.398   4.442   9.589
 6986WAT     H121200   4.346   4.481   9.513
 6986WAT     H221201   4.493   4.473   9.584
 6987WAT      O21202   0.869   4.139   1.988
 6987WAT     H121203   0.827   4.222   2.025
 6987WAT     H221204   0.877   4.070   2.060
 6988WAT      O21205   9.783   0.968   4.707
 6988WAT     H121206   9.858   0.965   4.642
 6988WAT     H221207   9.791   1.050   4.764
 6989WAT      O21208   9.661   9.389   2.616
 6989WAT     H121209   9.596   9.341   2.558
 6989WAT     H221210   9.637   9.486   2.620
 6990WAT      O21211   6.903   2.972   2.169
 6990WAT     H121212   6.928   3.064   2.139
 6990WAT     H221213   6.986   2.921   2.193
 6991WAT      O21214   7.681   2.595   8.141
 6991WAT     H121215   7.597   2.558   8.180
 6991WAT     H221216   7.660   2.672   8.081
 6992WAT      O21217   4.787   0.284   4.985
 6992WAT     H121218   4.834   0.244   5.063
 6992WAT     H221219   4.847   0.283   4.905
 6993WAT      O21220   9.427   5.928   4.963
 6993WAT     H121221   9.423   6.024   4.991
 6993WAT     H221222   9.382   5.918   4.874
 6994WAT      O21223   5.902   1.257   8.672
 6994WAT     H121224   5.826   1.315   8.644
 6994WAT     H221225   5.917   1.267   8.771
 6995WAT      O21226   9.803   5.878   5.661
 6995WAT     H121227   9.895   5.917   5.655
 6995WAT     H221228   9.742   5.924   5.598
 6996WAT      O21229   1.552   7.336   1.030
 6996WAT     H121230   1.548   7.243   1.066
 6996WAT     H221231   1.641   7.376   1.052
 6997WAT      O21232   3.224   4.934   6.471
 6997WAT     H121233   3.203   4.914   6.567
 6997WAT     H221234   3.230   4.847   6.420
 6998WAT      O21235   0.808   4.698   2.058
 6998WAT     H121236   0.898   4.655   2.057
 6998WAT     H221237   0.799   4.755   2.140
 6999WAT      O21238   7.076   9.159   8.285
 6999WAT     H121239   7.114   9.100   8.214
 6999WAT     H221240   7.050   9.247   8.244
 7000WAT      O21241   1.980   3.440   5.267
 7000WAT     H121242   1.883   3.423   5.280
 7000WAT     H221243   2.016   3.488   5.347
 7001WAT      O21244   3.582   6.314   7.334
 7001WAT     H121245   3.648   6.352   7.270
 7001WAT     H221246   3.493   6.358   7.321
 7002WAT      O21247   7.228   0.305   5.007
 7002WAT     H121248   7.279   0.268   5.085
 7002WAT     H221249   7.153   0.362   5.041
 7003WAT      O21250   1.181   0.269   1.070
 7003WAT     H121251   1.187   0.248   0.972
 7003WAT     H221252   1.114   0.209   1.113
 7004WAT      O21253   1.910   0.886   0.854
 7004WAT     H121254   1.831   0.887   0.793
 7004WAT     H221255   1.964   0.803   0.837
 7005WAT      O21256   0.572   3.250   4.205
 7005WAT     H121257   0.482   3.251   4.249
 7005WAT     H221258   0.573   3.179   4.135
 7006WAT      O21259   7.612   3.765   2.326
 7006WAT     H121260   7.566   3.770   2.237
 7006WAT     H221261   7.681   3.837   2.331
 7007WAT      O21262   8.918   0.604   6.549
 7007WAT     H121263   8.935   0.632   6.643
 7007WAT     H221264   8.869   0.517   6.549
 7008WAT      O21265   6.788   7.843   7.358
 7008WAT     H121266   6.838   7.868   7.441
 7008WAT     H221267   6.757   7.748   7.365
 7009WAT      O21268   1.677   8.032   6.567
 7009WAT     H121269   1.678   8.071   6.475
 7009WAT     H221270   1.721   7.943   6.566
 7010WAT      O21271   2.446   5.744   4.511
 7010WAT     H121272   2.403   5.770   4.424
 7010WAT     H221273   2.538   5.784   4.516
 7011WAT      O21274   9.433   4.505   5.163
 7011WAT     H121275   9.417   4.427   5.102
 7011WAT     H221276   9.532   4.517   5.177
 7012WAT      O21277   9.375   0.799   8.045
 7012WAT     H121278   9.415   0.713   8.077
 7012WAT     H221279   9.439   0.845   7.983
 7013WAT      O21280   1.082   4.437   6.887
 7013WAT     H121281   1.177   4.469   6.893
 7013WAT     H221282   1.032   4.467   6.968
 7014WAT      O21283   6.277   0.660   9.463
 7014WAT     H121284   6.213   0.735   9.473
 7014WAT     H221285   6.316   0.636   9.552
 7015WAT      O21286   1.648   2.144   8.865
 7015WAT     H121287   1.744   2.139   8.839
 7015WAT     H221288   1.618   2.240   8.861
 7016WAT      O21289   0.178   6.221   7.581
 7016WAT     H121290   0.130   6.232   7.667
 7016WAT     H221291   0.269   6.182   7.597
 7017WAT      O21292   0.541   4.152   9.751
 7017WAT     H121293   0.631   4.161   9.708
 7017WAT     H221294   0.524   4.231   9.809
 7018WAT      O21295   8.194   0.772   9.752
 7018WAT     H121296   8.103   0.733   9.767
 7018WAT     H221297   8.255   0.746   9.827
 7019WAT      O21298   1.253   2.523   8.416
 7019WAT     H121299   1.224   2.443   8.363
 7019WAT     H221300   1.296   2.589   8.356
 7020WAT      O21301   8.976   7.730   1.406
 7020WAT     H121302   8.904   7.737   1.337
 7020WAT     H221303   8.986   7.818   1.453
 7021WAT      O21304   5.629   5.647   4.811
 7021WAT     H121305   5.581   5.573   4.764
 7021WAT     H221306   5.568   5.691   4.876
 7022WAT      O21307   7.190   0.600   5.257
 7022WAT     H121308   7.121   0.558   5.198
 7022WAT     H221309   7.262   0.639   5.201
 7023WAT      O21310   3.676   5.756   9.065
 7023WAT     H121311   3.622   5.716   8.991
 7023WAT     H221312   3.743   5.820   9.026
 7024WAT      O21313   3.144   2.588   5.124
 7024WAT     H121314   3.229   2.623   5.162
 7024WAT     H221315   3.143   2.488   5.132
 7025WAT      O21316   4.684   8.302   9.505
 7025WAT     H121317   4.752   8.250   9.453
 7025WAT     H221318   4.730   8.367   9.565
 7026WAT      O21319   3.932   8.541   4.024
 7026WAT     H121320   3.856   8.562   3.962
 7026WAT     H221321   3.958   8.445   4.013
 7027WAT      O21322   5.040   6.424   5.331
 7027WAT     H121323   5.061   6.332   5.296
 7027WAT     H221324   5.023   6.418   5.429
 7028WAT      O21325   4.473   2.889   4.933
 7028WAT     H121326   4.518   2.978   4.930
 7028WAT     H221327   4.387   2.896   4.983
 7029WAT      O21328   9.152   9.114   1.540
 7029WAT     H121329   9.160   9.152   1.633
 7029WAT     H221330   9.112   9.183   1.479
 7030WAT      O21331   7.987   0.836   8.798
 7030WAT     H121332   7.895   0.859   8.829
 7030WAT     H221333   7.997   0.860   8.701
 7031WAT      O21334   0.047   7.398   4.433
 7031WAT     H121335   0.041   7.320   4.494
 7031WAT     H221336   0.141   7.408   4.401
 7032WAT      O21337   7.654   6.299   9.824
 7032WAT     H121338   7.683   6.392   9.801
 7032WAT     H221339   7.735   6.243   9.840
 7033WAT      O21340   8.487   7.754   2.841
 7033WAT     H121341   8.427   7.797   2.772
 7033WAT     H221342   8.446   7.765   2.931
 7034WAT      O21343   7.307   9.476   6.823
 7034WAT     H121344   7.272   9.570   6.827
 7034WAT     H221345   7.300   9.442   6.729
 7035WAT      O21346   0.110   4.848   6.295
 7035WAT     H121347   0.057   4.885   6.219
 7035WAT     H221348   0.207   4.869   6.281
 7036WAT      O21349   7.023   0.494   8.681
 7036WAT     H121350   7.106   0.491   8.626
 7036WAT     H221351   7.039   0.449   8.769
 7037WAT      O21352   6.783   9.031   2.046
 7037WAT     H121353   6.847   8.970   1.999
 7037WAT     H221354   6.790   9.123   2.008
 7038WAT      O21355   8.292   3.360   5.993
 7038WAT     H121356   8.225   3.422   6.033
 7038WAT     H221357   8.360   3.335   6.062
 7039WAT      O21358   4.254   4.253   5.506
 7039WAT     H121359   4.322   4.326   5.502
 7039WAT     H221360   4.200   4.263   5.590
 7040WAT      O21361   7.842   3.283   4.844
 7040WAT     H121362   7.924   3.229   4.864
 7040WAT     H221363   7.852   3.328   4.755
 7041WAT      O21364   9.512   6.203   1.204
 7041WAT     H121365   9.462   6.288   1.221
 7041WAT     H221366   9.465   6.148   1.136
 7042WAT      O21367   5.475   7.701   1.766
 7042WAT     H121368   5.552   7.638   1.774
 7042WAT     H221369   5.507   7.795   1.770
 7043WAT      O21370   3.481   8.814   2.413
 7043WAT     H121371   3.483   8.731   2.357
 7043WAT     H221372   3.397   8.815   2.468
 7044WAT      O21373   0.075   5.905   1.738
 7044WAT     H121374  -0.004   5.856   1.703
 7044WAT     H221375   0.061   5.928   1.834
 7045WAT      O21376   3.057   3.114   5.428
 7045WAT     H121377   3.020   3.202   5.458
 7045WAT     H221378   2.987   3.043   5.440
 7046WAT      O21379   3.718   7.400   7.357
 7046WAT     H121380   3.724   7.456   7.275
 7046WAT     H221381   3.775   7.439   7.429
 7047WAT      O21382   7.694   4.494   7.295
 7047WAT     H121383   7.621   4.538   7.347
 7047WAT     H221384   7.660   4.409   7.255
 7048WAT      O21385   0.732   1.971   4.276
 7048WAT     H121386   0.693   2.057   4.246
 7048WAT     H221387   0.813   1.949   4.221
 7049WAT      O21388   2.209   9.205   1.356
 7049WAT     H121389   2.124   9.253   1.375
 7049WAT     H221390   2.194   9.134   1.288
 7050WAT      O21391   7.880   6.562   8.178
 7050WAT     H121392   7.874   6.639   8.115
 7050WAT     H221393   7.880   6.597   8.272
 7051WAT      O21394   4.158   4.474   5.949
 7051WAT     H121395   4.065   4.500   5.976
 7051WAT     H221396   4.210   4.450   6.031
 7052WAT      O21397   1.950   1.085   9.624
 7052WAT     H121398   1.958   1.063   9.526
 7052WAT     H221399   1.919   1.004   9.674
 7053WAT      O21400   7.414   9.686   4.341
 7053WAT     H121401   7.464   9.694   4.427
 7053WAT     H221402   7.475   9.706   4.265
 7054WAT      O21403   7.780   3.008   8.734
 7054WAT     H121404   7.837   2.929   8.711
 7054WAT     H221405   7.685   2.978   8.745
 7055WAT      O21406   3.097   9.342   5.569
 7055WAT     H121407   3.045   9.334   5.483
 7055WAT     H221408   3.061   9.278   5.636
 7056WAT      O21409   5.689   9.220   5.167
 7056WAT     H121410   5.751   9.257   5.236
 7056WAT     H221411   5.604   9.274   5.167
 7057WAT      O21412   5.774   7.502   5.068
 7057WAT     H121413   5.822   7.575   5.116
 7057WAT     H221414   5.834   7.463   4.998
 7058WAT      O21415   3.207   4.101   1.039
 7058WAT     H121416   3.226   4.179   1.099
 7058WAT     H221417   3.131   4.124   0.977
 7059WAT      O21418   6.251   2.234   1.646
 7059WAT     H121419   6.304   2.207   1.726
 7059WAT     H221420   6.312   2.247   1.568
 7060WAT      O21421   4.148   8.297   1.422
 7060WAT     H121422   4.169   8.294   1.324
 7060WAT     H221423   4.049   8.303   1.435
 7061WAT      O21424   4.718   7.463   9.107
 7061WAT     H121425   4.813   7.494   9.108
 7061WAT     H221426   4.714   7.365   9.126
 7062WAT      O21427   8.663   4.920   9.865
 7062WAT     H121428   8.760   4.945   9.871
 7062WAT     H221429   8.626   4.948   9.777
 7063WAT      O21430   9.447   7.300   8.919
 7063WAT     H121431   9.532   7.338   8.954
 7063WAT     H221432   9.464   7.247   8.836
 7064WAT      O21433   1.355   9.196   9.354
 7064WAT     H121434   1.410   9.123   9.314
 7064WAT     H221435   1.393   9.221   9.443
 7065WAT      O21436   2.814   9.757   3.330
 7065WAT     H121437   2.763   9.806   3.401
 7065WAT     H221438   2.854   9.823   3.266
 7066WAT      O21439   0.315   2.680   7.145
 7066WAT     H121440   0.355   2.592   7.119
 7066WAT     H221441   0.338   2.700   7.241
 7067WAT      O21442   3.070   4.888   1.817
 7067WAT     H121443   2.991   4.868   1.759
 7067WAT     H221444   3.123   4.805   1.830
 7068WAT      O21445   0.541   0.688   0.991
 7068WAT     H121446   0.628   0.703   1.039
 7068WAT     H221447   0.508   0.775   0.954
 7069WAT      O21448   1.653   5.552   4.321
 7069WAT     H121449   1.672   5.642   4.360
 7069WAT     H221450   1.714   5.536   4.243
 7070WAT      O21451   8.279   6.658   3.409
 7070WAT     H121452   8.272   6.563   3.382
 7070WAT     H221453   8.208   6.712   3.363
 7071WAT      O21454   8.822   2.519   0.410
 7071WAT     H121455   8.849   2.580   0.336
 7071WAT     H221456   8.815   2.425   0.375
 7072WAT      O21457   8.835   6.175   4.696
 7072WAT     H121458   8.823   6.101   4.762
 7072WAT     H221459   8.833   6.136   4.603
 7073WAT      O21460   8.635   4.783   1.277
 7073WAT     H121461   8.565   4.752   1.212
 7073WAT     H221462   8.591   4.806   1.364
 7074WAT      O21463   8.585   9.820   7.125
 7074WAT     H121464   8.583   9.747   7.193
 7074WAT     H221465   8.513   9.886   7.144
 7075WAT      O21466   4.876   0.362   2.500
 7075WAT     H121467   4.963   0.403   2.473
 7075WAT     H221468   4.809   0.376   2.427
 7076WAT      O21469   4.253   2.761   9.876
 7076WAT     H121470   4.194   2.840   9.862
 7076WAT     H221471   4.254   2.706   9.792
 7077WAT      O21472   7.849   7.441   8.722
 7077WAT     H121473   7.937   7.487   8.710
 7077WAT     H221474   7.799   7.486   8.796
 7078WAT      O21475   8.824   0.329   2.045
 7078WAT     H121476   8.888   0.366   2.113
 7078WAT     H221477   8.841   0.372   1.956
 7079WAT      O21478   1.513   2.435   7.607
 7079WAT     H121479   1.587   2.381   7.565
 7079WAT     H221480   1.526   2.438   7.706
 7080WAT      O21481   4.189   0.407   9.217
 7080WAT     H121482   4.287   0.389   9.216
 7080WAT     H221483   4.144   0.348   9.150
 7081WAT      O21484   1.810   7.071   5.861
 7081WAT     H121485   1.856   7.006   5.801
 7081WAT     H221486   1.788   7.027   5.948
 7082WAT      O21487   7.510   3.340   4.689
 7082WAT     H121488   7.432   3.386   4.731
 7082WAT     H221489   7.478   3.261   4.637
 7083WAT      O21490   6.168   9.635   8.792
 7083WAT     H121491   6.094   9.579   8.755
 7083WAT     H221492   6.238   9.647   8.722
 7084WAT      O21493   5.014   5.200   1.276
 7084WAT     H121494   5.104   5.239   1.296
 7084WAT     H221495   4.960   5.197   1.360
 7085WAT      O21496   1.384   7.474   5.315
 7085WAT     H121497   1.411   7.396   5.372
 7085WAT     H221498   1.349   7.441   5.228
 7086WAT      O21499   3.157   6.325   5.778
 7086WAT     H121500   3.154   6.336   5.878
 7086WAT     H221501   3.225   6.256   5.755
 7087WAT      O21502   5.923   3.941   4.412
 7087WAT     H121503   5.900   3.920   4.507
 7087WAT     H221504   5.953   4.037   4.405
 7088WAT      O21505   1.784   4.514   9.622
 7088WAT     H121506   1.810   4.519   9.526
 7088WAT     H221507   1.710   4.580   9.640
 7089WAT      O21508   5.940   4.327   3.166
 7089WAT     H121509   5.846   4.344   3.197
 7089WAT     H221510   5.944   4.334   3.067
 7090WAT      O21511   7.978   1.183   7.127
 7090WAT     H121512   7.928   1.097   7.122
 7090WAT     H221513   7.932   1.252   7.070
 7091WAT      O21514   6.190   7.624   8.300
 7091WAT     H121515   6.255   7.699   8.299
 7091WAT     H221516   6.102   7.656   8.336
 7092WAT      O21517   3.769   3.442   1.053
 7092WAT     H121518   3.673   3.439   1.079
 7092WAT     H221519   3.783   3.391   0.968
 7093WAT      O21520   7.863   3.896   1.684
 7093WAT     H121521   7.816   3.983   1.703
 7093WAT     H221522   7.795   3.824   1.669
 7094WAT      O21523   9.246   6.425   1.018
 7094WAT     H121524   9.245   6.399   0.921
 7094WAT     H221525   9.182   6.501   1.032
 7095WAT      O21526   8.766   3.090   3.767
 7095WAT     H121527   8.757   3.190   3.759
 7095WAT     H221528   8.858   3.063   3.741
 7096WAT      O21529   1.824   7.140   4.086
 7096WAT     H121530   1.736   7.178   4.060
 7096WAT     H221531   1.849   7.067   4.022
 7097WAT      O21532   7.079   7.609   9.090
 7097WAT     H121533   7.080   7.516   9.126
 7097WAT     H221534   7.173   7.643   9.083
 7098WAT      O21535   6.135   8.000   8.721
 7098WAT     H121536   6.208   7.969   8.660
 7098WAT     H221537   6.053   8.020   8.668
 7099WAT      O21538   4.954   0.278   4.775
 7099WAT     H121539   4.907   0.233   4.699
 7099WAT     H221540   5.040   0.317   4.742
 7100WAT      O21541   2.208   0.257   5.689
 7100WAT     H121542   2.121   0.290   5.653
 7100WAT     H221543   2.193   0.174   5.743
 7101WAT      O21544   9.166   5.730   4.851
 7101WAT     H121545   9.076   5.760   4.883
 7101WAT     H221546   9.226   5.715   4.929
 7102WAT      O21547   8.524   9.743   4.546
 7102WAT     H121548   8.590   9.783   4.483
 7102WAT     H221549   8.441   9.718   4.496
 7103WAT      O21550   1.514   7.506   3.989
 7103WAT     H121551   1.578   7.474   4.059
 7103WAT     H221552   1.488   7.429   3.930
 7104WAT      O21553   3.865   2.773   6.906
 7104WAT     H121554   3.867   2.681   6.945
 7104WAT     H221555   3.772   2.795   6.878
 7105WAT      O21556   7.044   3.839   3.307
 7105WAT     H121557   7.114   3.908   3.327
 7105WAT     H221558   7.003   3.858   3.218
 7106WAT      O21559   3.739   9.056   4.940
 7106WAT     H121560   3.741   8.979   4.877
 7106WAT     H221561   3.758   9.141   4.891
 7107WAT      O21562   8.395   9.038   5.177
 7107WAT     H121563   8.487   9.003   5.157
 7107WAT     H221564   8.349   8.975   5.240
 7108WAT      O21565   8.227   1.599   1.852
 7108WAT     H121566   8.152   1.535   1.860
 7108WAT     H221567   8.294   1.583   1.925
 7109WAT      O21568   6.420   9.410   9.117
 7109WAT     H121569   6.401   9.491   9.060
 7109WAT     H221570   6.515   9.382   9.104
 7110WAT      O21571   9.067   1.531   1.331
 7110WAT     H121572   8.993   1.470   1.304
 7110WAT     H221573   9.122   1.488   1.403
 7111WAT      O21574   6.393   9.744   6.592
 7111WAT     H121575   6.454   9.673   6.628
 7111WAT     H221576   6.376   9.728   6.495
 7112WAT      O21577   2.893   6.905   2.505
 7112WAT     H121578   2.816   6.968   2.511
 7112WAT     H221579   2.905   6.859   2.593
 7113WAT      O21580   1.932   0.492   8.234
 7113WAT     H121581   1.851   0.541   8.203
 7113WAT     H221582   1.924   0.395   8.211
 7114WAT      O21583   7.014   1.704   6.096
 7114WAT     H121584   7.012   1.706   5.996
 7114WAT     H221585   6.930   1.663   6.131
 7115WAT      O21586   6.641   9.433   9.418
 7115WAT     H121587   6.580   9.482   9.480
 7115WAT     H221588   6.655   9.486   9.335
 7116WAT      O21589   4.669   3.714   1.176
 7116WAT     H121590   4.650   3.641   1.242
 7116WAT     H221591   4.767   3.735   1.177
 7117WAT      O21592   9.682   6.796   8.847
 7117WAT     H121593   9.641   6.721   8.797
 7117WAT     H221594   9.767   6.825   8.802
 7118WAT      O21595   7.671   7.576   6.674
 7118WAT     H121596   7.761   7.585   6.717
 7118WAT     H221597   7.679   7.526   6.588
 7119WAT      O21598   0.712   3.009   3.346
 7119WAT     H121599   0.663   3.015   3.433
 7119WAT     H221600   0.647   3.005   3.271
 7120WAT      O21601   5.420   5.461   6.801
 7120WAT     H121602   5.451   5.391   6.736
 7120WAT     H221603   5.451   5.438   6.893
 7121WAT      O21604   5.701   8.346   1.507
 7121WAT     H121605   5.613   8.347   1.553
 7121WAT     H221606   5.752   8.429   1.529
 7122WAT      O21607   8.878   8.916   4.871
 7122WAT     H121608   8.858   8.960   4.784
 7122WAT     H221609   8.907   8.822   4.856
 7123WAT      O21610   2.817   4.979   5.363
 7123WAT     H121611   2.913   4.969   5.386
 7123WAT     H221612   2.792   5.076   5.367
 7124WAT      O21613   9.067   5.482   6.540
 7124WAT     H121614   9.131   5.528   6.602
 7124WAT     H221615   8.998   5.433   6.593
 7125WAT      O21616   6.894   7.085   9.507
 7125WAT     H121617   6.815   7.026   9.489
 7125WAT     H221618   6.883   7.171   9.457
 7126WAT      O21619   9.578   2.485   9.357
 7126WAT     H121620   9.618   2.415   9.416
 7126WAT     H221621   9.612   2.575   9.384
 7127WAT      O21622   6.329   3.787   6.010
 7127WAT     H121623   6.360   3.872   5.968
 7127WAT     H221624   6.230   3.780   6.003
 7128WAT      O21625   5.901   3.432   5.189
 7128WAT     H121626   5.874   3.452   5.095
 7128WAT     H221627   5.962   3.353   5.190
 7129WAT      O21628   5.203   5.760   7.964
 7129WAT     H121629   5.229   5.713   8.048
 7129WAT     H221630   5.123   5.715   7.924
 7130WAT      O21631   2.862   1.862   8.405
 7130WAT     H121632   2.930   1.841   8.335
 7130WAT     H221633   2.782   1.905   8.362
 7131WAT      O21634   3.819   1.889   8.526
 7131WAT     H121635   3.803   1.874   8.429
 7131WAT     H221636   3.850   1.983   8.540
 7132WAT      O21637   8.847   9.566   1.346
 7132WAT     H121638   8.797   9.559   1.260
 7132WAT     H221639   8.794   9.620   1.411
 7133WAT      O21640   7.105   8.595   8.828
 7133WAT     H121641   7.052   8.678   8.814
 7133WAT     H221642   7.095   8.536   8.747
 7134WAT      O21643   6.589   8.064   7.408
 7134WAT     H121644   6.624   8.157   7.419
 7134WAT     H221645   6.666   7.999   7.413
 7135WAT      O21646   7.927   0.534   9.176
 7135WAT     H121647   7.963   0.601   9.241
 7135WAT     H221648   7.870   0.581   9.109
 7136WAT      O21649   7.988   0.451   1.937
 7136WAT     H121650   8.047   0.430   1.859
 7136WAT     H221651   7.989   0.375   2.001
 7137WAT      O21652   6.036   9.668   0.003
 7137WAT     H121653   6.083   9.639   0.086
 7137WAT     H221654   6.097   9.656  -0.076
 7138WAT      O21655   3.530   7.321   3.933
 7138WAT     H121656   3.533   7.397   3.998
 7138WAT     H221657   3.468   7.250   3.967
 7139WAT      O21658   8.391   6.506   5.927
 7139WAT     H121659   8.487   6.482   5.919
 7139WAT     H221660   8.335   6.430   5.892
 7140WAT      O21661   2.562   8.099   9.823
 7140WAT     H121662   2.635   8.079   9.758
 7140WAT     H221663   2.475   8.107   9.773
 7141WAT      O21664   9.767   8.452   3.650
 7141WAT     H121665   9.800   8.430   3.558
 7141WAT     H221666   9.667   8.445   3.652
 7142WAT      O21667   2.379   1.218   5.720
 7142WAT     H121668   2.370   1.277   5.801
 7142WAT     H221669   2.437   1.264   5.652
 7143WAT      O21670   4.033   2.223   6.800
 7143WAT     H121671   4.023   2.247   6.897
 7143WAT     H221672   4.100   2.149   6.792
 7144WAT      O21673   1.743   4.956   4.514
 7144WAT     H121674   1.654   4.958   4.469
 7144WAT     H221675   1.815   4.970   4.445
 7145WAT      O21676   3.098   5.154   1.254
 7145WAT     H121677   3.002   5.159   1.282
 7145WAT     H221678   3.127   5.059   1.250
 7146WAT      O21679   5.226   8.717   1.186
 7146WAT     H121680   5.283   8.743   1.264
 7146WAT     H221681   5.130   8.716   1.214
 7147WAT      O21682   4.494   7.547   8.629
 7147WAT     H121683   4.554   7.601   8.570
 7147WAT     H221684   4.399   7.556   8.598
 7148WAT      O21685   1.093   2.533   0.799
 7148WAT     H121686   1.124   2.501   0.709
 7148WAT     H221687   1.133   2.476   0.871
 7149WAT      O21688   8.524   1.495   9.070
 7149WAT     H121689   8.437   1.505   9.021
 7149WAT     H221690   8.511   1.518   9.166
 7150WAT      O21691   9.051   3.913   9.074
 7150WAT     H121692   9.105   3.955   9.147
 7150WAT     H221693   8.966   3.877   9.112
 7151WAT      O21694   2.470   7.178   9.131
 7151WAT     H121695   2.394   7.113   9.137
 7151WAT     H221696   2.445   7.263   9.177
 7152WAT      O21697   4.576   1.817   8.939
 7152WAT     H121698   4.558   1.765   8.855
 7152WAT     H221699   4.673   1.811   8.961
 7153WAT      O21700   4.411   5.965   8.768
 7153WAT     H121701   4.346   6.034   8.737
 7153WAT     H221702   4.390   5.877   8.724
 7154WAT      O21703   0.104   0.105   5.301
 7154WAT     H121704   0.141   0.061   5.382
 7154WAT     H221705   0.111   0.042   5.223
 7155WAT      O21706   2.941   3.611   2.775
 7155WAT     H121707   2.935   3.625   2.676
 7155WAT     H221708   2.897   3.688   2.822
 7156WAT      O21709   9.512   8.537   2.905
 7156WAT     H121710   9.478   8.630   2.902
 7156WAT     H221711   9.564   8.517   2.821
 7157WAT      O21712   3.447   4.730   7.821
 7157WAT     H121713   3.363   4.716   7.874
 7157WAT     H221714   3.425   4.736   7.724
 7158WAT      O21715   4.406   3.268   5.979
 7158WAT     H121716   4.478   3.204   5.950
 7158WAT     H221717   4.413   3.352   5.925
 7159WAT      O21718   2.304   0.171   0.859
 7159WAT     H121719   2.356   0.193   0.942
 7159WAT     H221720   2.216   0.131   0.884
 7160WAT      O21721   1.446   4.286   3.831
 7160WAT     H121722   1.516   4.240   3.776
 7160WAT     H221723   1.393   4.348   3.772
 7161WAT      O21724   2.709   5.132   9.285
 7161WAT     H121725   2.721   5.201   9.214
 7161WAT     H221726   2.712   5.175   9.375
 7162WAT      O21727   6.114   3.194   0.043
 7162WAT     H121728   6.200   3.211  -0.007
 7162WAT     H221729   6.038   3.195  -0.022
 7163WAT      O21730   5.208   3.949   9.519
 7163WAT     H121731   5.132   3.885   9.520
 7163WAT     H221732   5.179   4.035   9.477
 7164WAT      O21733   9.705   4.179   4.546
 7164WAT     H121734   9.652   4.141   4.470
 7164WAT     H221735   9.661   4.156   4.632
 7165WAT      O21736   5.612   0.613   6.373
 7165WAT     H121737   5.668   0.539   6.336
 7165WAT     H221738   5.660   0.700   6.364
 7166WAT      O21739   6.493   4.824   8.904
 7166WAT     H121740   6.425   4.751   8.898
 7166WAT     H221741   6.507   4.848   9.000
 7167WAT      O21742   6.383   4.694   8.075
 7167WAT     H121743   6.391   4.758   7.999
 7167WAT     H221744   6.292   4.704   8.117
 7168WAT      O21745   0.788   8.329   8.888
 7168WAT     H121746   0.763   8.383   8.807
 7168WAT     H221747   0.763   8.234   8.873
 7169WAT      O21748   8.769   8.979   4.618
 7169WAT     H121749   8.701   8.906   4.627
 7169WAT     H221750   8.782   9.001   4.522
 7170WAT      O21751   3.584   2.805   8.852
 7170WAT     H121752   3.545   2.753   8.777
 7170WAT     H221753   3.528   2.886   8.869
 7171WAT      O21754   4.214   9.618   0.889
 7171WAT     H121755   4.190   9.690   0.954
 7171WAT     H221756   4.297   9.572   0.920
 7172WAT      O21757   1.219   2.215   2.341
 7172WAT     H121758   1.145   2.173   2.288
 7172WAT     H221759   1.293   2.150   2.353
 7173WAT      O21760   4.630   8.240   4.785
 7173WAT     H121761   4.702   8.194   4.733
 7173WAT     H221762   4.621   8.335   4.754
 7174WAT      O21763   5.529   9.605   2.445
 7174WAT     H121764   5.565   9.691   2.481
 7174WAT     H221765   5.506   9.616   2.349
 7175WAT      O21766   1.488   6.097   5.150
 7175WAT     H121767   1.561   6.031   5.166
 7175WAT     H221768   1.427   6.063   5.079
 7176WAT      O21769   8.875   0.774   1.667
 7176WAT     H121770   8.805   0.761   1.738
 7176WAT     H221771   8.954   0.821   1.707
 7177WAT      O21772   7.772   5.143   0.157
 7177WAT     H121773   7.729   5.180   0.239
 7177WAT     H221774   7.806   5.218   0.100
 7178WAT      O21775   0.243   7.326   0.465
 7178WAT     H121776   0.318   7.261   0.475
 7178WAT     H221777   0.241   7.361   0.371
 7179WAT      O21778   0.571   5.759   5.548
 7179WAT     H121779   0.635   5.808   5.489
 7179WAT     H221780   0.617   5.679   5.588
 7180WAT      O21781   3.895   8.512   6.023
 7180WAT     H121782   3.920   8.576   5.951
 7180WAT     H221783   3.879   8.422   5.984
 7181WAT      O21784   5.442   2.452   4.925
 7181WAT     H121785   5.349   2.469   4.957
 7181WAT     H221786   5.441   2.439   4.825
 7182WAT      O21787   7.289   0.052   0.652
 7182WAT     H121788   7.345   0.130   0.679
 7182WAT     H221789   7.313  -0.027   0.710
 7183WAT      O21790   1.179   8.292   3.706
 7183WAT     H121791   1.142   8.349   3.780
 7183WAT     H221792   1.153   8.197   3.722
 7184WAT      O21793   0.161   4.961   0.144
 7184WAT     H121794   0.241   4.989   0.196
 7184WAT     H221795   0.182   4.961   0.046
 7185WAT      O21796   1.216   0.213   4.022
 7185WAT     H121797   1.171   0.126   4.001
 7185WAT     H221798   1.270   0.242   3.943
 7186WAT      O21799   6.523   7.034   2.138
 7186WAT     H121800   6.563   6.980   2.213
 7186WAT     H221801   6.536   7.131   2.157
 7187WAT      O21802   0.142   2.974   2.192
 7187WAT     H121803   0.114   2.970   2.288
 7187WAT     H221804   0.129   3.066   2.157
 7188WAT      O21805   2.313   4.569   2.804
 7188WAT     H121806   2.337   4.571   2.902
 7188WAT     H221807   2.221   4.532   2.793
 7189WAT      O21808   0.523   9.786   4.185
 7189WAT     H121809   0.505   9.872   4.233
 7189WAT     H221810   0.481   9.710   4.236
 7190WAT      O21811   0.135   0.028   0.758
 7190WAT     H121812   0.119   0.102   0.823
 7190WAT     H221813   0.067  -0.044   0.771
 7191WAT      O21814   3.243   5.350   4.114
 7191WAT     H121815   3.182   5.271   4.114
 7191WAT     H221816   3.219   5.411   4.189
 7192WAT      O21817   8.921   5.327   3.027
 7192WAT     H121818   8.900   5.230   3.016
 7192WAT     H221819   8.841   5.375   3.061
 7193WAT      O21820   8.015   0.250   2.105
 7193WAT     H121821   8.094   0.223   2.160
 7193WAT     H221822   7.964   0.169   2.077
 7194WAT      O21823   3.252   5.097   1.826
 7194WAT     H121824   3.180   5.029   1.816
 7194WAT     H221825   3.341   5.051   1.823
 7195WAT      O21826   1.059   2.670   8.189
 7195WAT     H121827   1.018   2.739   8.248
 7195WAT     H221828   1.011   2.583   8.201
 7196WAT      O21829   0.618   6.327   1.588
 7196WAT     H121830   0.611   6.424   1.609
 7196WAT     H221831   0.622   6.314   1.489
 7197WAT      O21832   6.838   6.986   4.354
 7197WAT     H121833   6.894   7.068   4.367
 7197WAT     H221834   6.816   6.946   4.443
 7198WAT      O21835   5.173   5.577   8.178
 7198WAT     H121836   5.212   5.617   8.261
 7198WAT     H221837   5.074   5.587   8.180
 7199WAT      O21838   9.604   0.961   2.432
 7199WAT     H121839   9.521   0.954   2.488
 7199WAT     H221840   9.645   0.871   2.422
 7200WAT      O21841   4.231   0.072   7.874
 7200WAT     H121842   4.312   0.026   7.910
 7200WAT     H221843   4.154   0.057   7.937
 7201WAT      O21844   3.594   9.079   6.567
 7201WAT     H121845   3.599   9.068   6.667
 7201WAT     H221846   3.563   9.172   6.546
 7202WAT      O21847   7.990   0.536   4.351
 7202WAT     H121848   8.028   0.478   4.423
 7202WAT     H221849   7.921   0.486   4.300
 7203WAT      O21850   5.615   5.839   8.779
 7203WAT     H121851   5.559   5.757   8.786
 7203WAT     H221852   5.618   5.885   8.868
 7204WAT      O21853   9.460   8.336   7.184
 7204WAT     H121854   9.465   8.236   7.185
 7204WAT     H221855   9.530   8.374   7.245
 7205WAT      O21856   7.423   5.144   5.457
 7205WAT     H121857   7.420   5.045   5.472
 7205WAT     H221858   7.477   5.163   5.375
 7206WAT      O21859   3.795   1.829   1.326
 7206WAT     H121860   3.809   1.751   1.386
 7206WAT     H221861   3.835   1.911   1.368
 7207WAT      O21862   3.887   0.509   2.174
 7207WAT     H121863   3.958   0.462   2.227
 7207WAT     H221864   3.930   0.568   2.105
 7208WAT      O21865   7.694   0.814   0.014
 7208WAT     H121866   7.623   0.744   0.002
 7208WAT     H221867   7.653   0.905   0.007
 7209WAT      O21868   1.875   9.460   8.972
 7209WAT     H121869   1.895   9.547   8.928
 7209WAT     H221870   1.776   9.451   8.985
 7210WAT      O21871   4.674   8.145   8.264
 7210WAT     H121872   4.616   8.083   8.212
 7210WAT     H221873   4.618   8.212   8.312
 7211WAT      O21874   3.515   7.986   3.493
 7211WAT     H121875   3.611   7.992   3.520
 7211WAT     H221876   3.478   7.897   3.521
 7212WAT      O21877   9.153   8.949   3.611
 7212WAT     H121878   9.121   9.033   3.566
 7212WAT     H221879   9.244   8.926   3.578
 7213WAT      O21880   9.866   8.478   5.439
 7213WAT     H121881   9.872   8.510   5.533
 7213WAT     H221882   9.926   8.533   5.381
 7214WAT      O21883   6.077   8.849   2.596
 7214WAT     H121884   6.104   8.863   2.691
 7214WAT     H221885   6.138   8.783   2.553
 7215WAT      O21886   3.235   3.184   3.188
 7215WAT     H121887   3.214   3.112   3.122
 7215WAT     H221888   3.223   3.274   3.145
 7216WAT      O21889   5.273   3.004   9.653
 7216WAT     H121890   5.273   2.905   9.671
 7216WAT     H221891   5.367   3.038   9.654
 7217WAT      O21892   9.813   4.092   9.214
 7217WAT     H121893   9.798   4.029   9.138
 7217WAT     H221894   9.904   4.131   9.207
 7218WAT      O21895   1.943   3.440   4.700
 7218WAT     H121896   2.021   3.402   4.750
 7218WAT     H221897   1.878   3.480   4.765
 7219WAT      O21898   8.464   1.753   2.907
 7219WAT     H121899   8.383   1.729   2.960
 7219WAT     H221900   8.439   1.820   2.837
 7220WAT      O21901   1.969   4.005   2.962
 7220WAT     H121902   1.974   4.096   3.003
 7220WAT     H221903   1.908   3.947   3.016
 7221WAT      O21904   2.358   0.083   7.300
 7221WAT     H121905   2.321   0.006   7.353
 7221WAT     H221906   2.410   0.143   7.361
 7222WAT      O21907   4.733   3.551   7.724
 7222WAT     H121908   4.651   3.533   7.670
 7222WAT     H221909   4.809   3.571   7.663
 7223WAT      O21910   2.670   6.215   2.222
 7223WAT     H121911   2.751   6.267   2.195
 7223WAT     H221912   2.620   6.186   2.140
 7224WAT      O21913   1.521   8.673   2.138
 7224WAT     H121914   1.535   8.610   2.214
 7224WAT     H221915   1.593   8.659   2.069
 7225WAT      O21916   8.301   8.623   2.512
 7225WAT     H121917   8.239   8.587   2.582
 7225WAT     H221918   8.305   8.560   2.435
 7226WAT      O21919   0.051   2.265   0.207
 7226WAT     H121920  -0.045   2.271   0.179
 7226WAT     H221921   0.083   2.171   0.195
 7227WAT      O21922   1.765   4.790   2.724
 7227WAT     H121923   1.846   4.844   2.702
 7227WAT     H221924   1.708   4.780   2.643
 7228WAT      O21925   1.732   4.313   4.013
 7228WAT     H121926   1.669   4.353   4.080
 7228WAT     H221927   1.793   4.385   3.978
 7229WAT      O21928   3.539   5.855   0.277
 7229WAT     H121929   3.511   5.919   0.349
 7229WAT     H221930   3.612   5.796   0.312
 7230WAT      O21931   3.536   1.067   9.529
 7230WAT     H121932   3.573   1.160   9.525
 7230WAT     H221933   3.448   1.064   9.481
 7231WAT      O21934   5.182   0.438   1.934
 7231WAT     H121935   5.193   0.340   1.923
 7231WAT     H221936   5.103   0.470   1.882
 7232WAT      O21937   2.864   0.271   2.964
 7232WAT     H121938   2.888   0.362   2.995
 7232WAT     H221939   2.937   0.235   2.906
 7233WAT      O21940   4.308   0.411   2.873
 7233WAT     H121941   4.241   0.453   2.934
 7233WAT     H221942   4.397   0.455   2.886
 7234WAT      O21943   9.658   5.439   7.773
 7234WAT     H121944   9.676   5.346   7.804
 7234WAT     H221945   9.692   5.504   7.840
 7235WAT      O21946   1.234   2.969   1.594
 7235WAT     H121947   1.204   2.975   1.499
 7235WAT     H221948   1.162   3.002   1.655
 7236WAT      O21949   9.115   1.726   7.201
 7236WAT     H121950   9.130   1.790   7.125
 7236WAT     H221951   9.034   1.671   7.182
 7237WAT      O21952   0.967   0.679   7.515
 7237WAT     H121953   0.918   0.654   7.432
 7237WAT     H221954   0.901   0.704   7.586
 7238WAT      O21955   7.058   9.754   2.703
 7238WAT     H121956   7.099   9.767   2.613
 7238WAT     H221957   6.971   9.802   2.707
 7239WAT      O21958   2.112   8.811   2.124
 7239WAT     H121959   2.060   8.812   2.039
 7239WAT     H221960   2.118   8.717   2.159
 7240WAT      O21961   0.179   0.434   2.706
 7240WAT     H121962   0.158   0.531   2.714
 7240WAT     H221963   0.169   0.405   2.611
 7241WAT      O21964   0.196   0.459   8.375
 7241WAT     H121965   0.216   0.402   8.296
 7241WAT     H221966   0.107   0.432   8.414
 7242WAT      O21967   3.041   1.419   5.006
 7242WAT     H121968   2.953   1.465   4.996
 7242WAT     H221969   3.025   1.325   5.036
 7243WAT      O21970   1.624   4.601   3.884
 7243WAT     H121971   1.700   4.537   3.893
 7243WAT     H221972   1.580   4.590   3.795
 7244WAT      O21973   2.902   1.970   6.001
 7244WAT     H121974   2.877   2.062   6.033
 7244WAT     H221975   2.899   1.906   6.078
 7245WAT      O21976   4.673   0.545   0.682
 7245WAT     H121977   4.668   0.546   0.782
 7245WAT     H221978   4.732   0.619   0.650
 7246WAT      O21979   3.472   2.540   6.636
 7246WAT     H121980   3.534   2.611   6.602
 7246WAT     H221981   3.383   2.580   6.655
 7247WAT      O21982   6.293   1.220   7.606
 7247WAT     H121983   6.324   1.126   7.596
 7247WAT     H221984   6.355   1.270   7.666
 7248WAT      O21985   7.141   5.080   7.230
 7248WAT     H121986   7.099   5.026   7.158
 7248WAT     H221987   7.111   5.175   7.224
 7249WAT      O21988   8.291   0.976   8.796
 7249WAT     H121989   8.362   0.983   8.866
 7249WAT     H221990   8.202   0.959   8.839
 7250WAT      O21991   8.416   8.087   3.071
 7250WAT     H121992   8.400   8.053   2.978
 7250WAT     H221993   8.328   8.102   3.116
 7251WAT      O21994   0.757   4.583   6.484
 7251WAT     H121995   0.784   4.566   6.389
 7251WAT     H221996   0.838   4.585   6.542
 7252WAT      O21997   1.929   5.033   3.204
 7252WAT     H121998   2.024   5.061   3.221
 7252WAT     H221999   1.899   4.972   3.277
 7253WAT      O22000   9.753   5.975   7.039
 7253WAT     H122001   9.825   6.006   6.977
 7253WAT     H222002   9.665   5.982   6.994
 7254WAT      O22003   6.448   2.143   2.907
 7254WAT     H122004   6.381   2.136   2.834
 7254WAT     H222005   6.409   2.194   2.984
 7255WAT      O22006   1.457   7.928   4.921
 7255WAT     H122007   1.463   8.024   4.895
 7255WAT     H222008   1.364   7.895   4.906
 7256WAT      O22009   0.311   7.110   7.406
 7256WAT     H122010   0.352   7.028   7.444
 7256WAT     H222011   0.292   7.096   7.309
 7257WAT      O22012   7.985   8.147   3.363
 7257WAT     H122013   7.894   8.187   3.377
 7257WAT     H222014   8.029   8.131   3.451
 7258WAT      O22015   3.495   1.849   2.818
 7258WAT     H122016   3.570   1.858   2.884
 7258WAT     H222017   3.415   1.811   2.865
 7259WAT      O22018   2.884   0.799   2.681
 7259WAT     H122019   2.786   0.817   2.692
 7259WAT     H222020   2.931   0.884   2.658
 7260WAT      O22021   9.658   7.158   7.733
 7260WAT     H122022   9.679   7.110   7.818
 7260WAT     H222023   9.742   7.165   7.678
 7261WAT      O22024   7.074   6.168   1.482
 7261WAT     H122025   7.074   6.114   1.566
 7261WAT     H222026   6.985   6.212   1.471
 7262WAT      O22027   2.750   0.052   0.418
 7262WAT     H122028   2.715   0.078   0.508
 7262WAT     H222029   2.822   0.116   0.391
 7263WAT      O22030   1.103   2.244   5.479
 7263WAT     H122031   1.188   2.198   5.504
 7263WAT     H222032   1.118   2.343   5.479
 7264WAT      O22033   0.558   6.155   4.789
 7264WAT     H122034   0.636   6.118   4.840
 7264WAT     H222035   0.587   6.238   4.740
 7265WAT      O22036   9.604   5.966   6.028
 7265WAT     H122037   9.534   5.899   6.003
 7265WAT     H222038   9.579   6.055   5.990
 7266WAT      O22039   4.988   8.826   2.621
 7266WAT     H122040   5.084   8.817   2.647
 7266WAT     H222041   4.932   8.767   2.678
 7267WAT      O22042   8.914   2.789   1.275
 7267WAT     H122043   8.829   2.759   1.231
 7267WAT     H222044   8.992   2.762   1.219
 7268WAT      O22045   7.934   4.612  -0.002
 7268WAT     H122046   7.990   4.635   0.077
 7268WAT     H222047   7.840   4.595   0.027
 7269WAT      O22048   6.854   8.961   3.609
 7269WAT     H122049   6.951   8.938   3.600
 7269WAT     H222050   6.805   8.934   3.526
 7270WAT      O22051   9.677   6.439   6.829
 7270WAT     H122052   9.710   6.345   6.819
 7270WAT     H222053   9.662   6.460   6.925
 7271WAT      O22054   7.969   5.495   5.056
 7271WAT     H122055   8.001   5.472   5.148
 7271WAT     H222056   7.888   5.442   5.034
 7272WAT      O22057   5.430   8.762   4.398
 7272WAT     H122058   5.356   8.781   4.332
 7272WAT     H222059   5.483   8.846   4.412
 7273WAT      O22060   0.843   1.061   3.887
 7273WAT     H122061   0.748   1.029   3.885
 7273WAT     H222062   0.881   1.058   3.794
 7274WAT      O22063   4.525   8.026   4.961
 7274WAT     H122064   4.558   8.099   4.902
 7274WAT     H222065   4.567   7.939   4.934
 7275WAT      O22066   1.623   8.231   2.852
 7275WAT     H122067   1.692   8.287   2.897
 7275WAT     H222068   1.604   8.267   2.761
 7276WAT      O22069   8.629   3.194   0.125
 7276WAT     H122070   8.638   3.198   0.225
 7276WAT     H222071   8.543   3.237   0.098
 7277WAT      O22072   0.526   7.769   7.400
 7277WAT     H122073   0.442   7.821   7.409
 7277WAT     H222074   0.589   7.792   7.475
 7278WAT      O22075   5.796   1.741   5.004
 7278WAT     H122076   5.828   1.696   4.920
 7278WAT     H222077   5.730   1.812   4.981
 7279WAT      O22078   1.503   4.943   8.195
 7279WAT     H122079   1.408   4.970   8.209
 7279WAT     H222080   1.524   4.940   8.098
 7280WAT      O22081   2.954   5.873   9.111
 7280WAT     H122082   3.023   5.942   9.089
 7280WAT     H222083   2.993   5.808   9.177
 7281WAT      O22084   8.466   6.510   9.307
 7281WAT     H122085   8.465   6.592   9.364
 7281WAT     H222086   8.521   6.439   9.351
 7282WAT      O22087   1.824   7.816   6.573
 7282WAT     H122088   1.883   7.789   6.497
 7282WAT     H222089   1.763   7.740   6.597
 7283WAT      O22090   8.798   1.408   0.934
 7283WAT     H122091   8.820   1.474   1.006
 7283WAT     H222092   8.869   1.411   0.863
 7284WAT      O22093   3.604   1.323   7.083
 7284WAT     H122094   3.553   1.406   7.106
 7284WAT     H222095   3.546   1.264   7.025
 7285WAT      O22096   7.049   5.605   7.983
 7285WAT     H122097   7.038   5.568   7.891
 7285WAT     H222098   6.995   5.551   8.047
 7286WAT      O22099   4.241   8.108   4.135
 7286WAT     H122100   4.326   8.131   4.183
 7286WAT     H222101   4.262   8.053   4.055
 7287WAT      O22102   8.341   3.748   7.606
 7287WAT     H122103   8.241   3.751   7.606
 7287WAT     H222104   8.372   3.658   7.575
 7288WAT      O22105   5.427   3.020   0.106
 7288WAT     H122106   5.422   3.089   0.179
 7288WAT     H222107   5.360   2.948   0.123
 7289WAT      O22108   7.003   2.568   7.804
 7289WAT     H122109   7.048   2.488   7.843
 7289WAT     H222110   7.049   2.651   7.835
 7290WAT      O22111   2.597   4.434   5.095
 7290WAT     H122112   2.599   4.531   5.068
 7290WAT     H222113   2.658   4.420   5.173
 7291WAT      O22114   4.132   5.451   0.204
 7291WAT     H122115   4.195   5.487   0.136
 7291WAT     H222116   4.069   5.523   0.232
 7292WAT      O22117   1.640   0.441   9.618
 7292WAT     H122118   1.684   0.356   9.591
 7292WAT     H222119   1.689   0.480   9.696
 7293WAT      O22120   9.395   2.290   6.183
 7293WAT     H122121   9.362   2.358   6.249
 7293WAT     H222122   9.475   2.327   6.136
 7294WAT      O22123   2.250   0.515   7.491
 7294WAT     H122124   2.279   0.553   7.579
 7294WAT     H222125   2.270   0.580   7.418
 7295WAT      O22126   5.551   5.275   5.380
 7295WAT     H122127   5.519   5.282   5.286
 7295WAT     H222128   5.639   5.226   5.382
 7296WAT      O22129   9.559   4.741   5.942
 7296WAT     H122130   9.601   4.650   5.937
 7296WAT     H222131   9.597   4.800   5.871
 7297WAT      O22132   9.358   7.670   1.488
 7297WAT     H122133   9.342   7.714   1.576
 7297WAT     H222134   9.439   7.711   1.445
 7298WAT      O22135   0.880   5.877   1.489
 7298WAT     H122136   0.814   5.914   1.424
 7298WAT     H222137   0.832   5.828   1.561
 7299WAT      O22138   1.409   2.639   3.593
 7299WAT     H122139   1.363   2.586   3.522
 7299WAT     H222140   1.500   2.601   3.609
 7300WAT      O22141   8.201   1.189   5.074
 7300WAT     H122142   8.168   1.215   5.165
 7300WAT     H222143   8.301   1.196   5.072
 7301WAT      O22144   3.423   5.792   2.635
 7301WAT     H122145   3.486   5.716   2.618
 7301WAT     H222146   3.341   5.758   2.679
 7302WAT      O22147   5.659   3.580   2.025
 7302WAT     H122148   5.641   3.662   1.970
 7302WAT     H222149   5.579   3.559   2.082
 7303WAT      O22150   2.484   5.622   7.552
 7303WAT     H122151   2.508   5.704   7.604
 7303WAT     H222152   2.390   5.628   7.519
 7304WAT      O22153   6.090   1.589   7.756
 7304WAT     H122154   6.158   1.598   7.828
 7304WAT     H222155   6.002   1.565   7.796
 7305WAT      O22156   7.870   4.214   3.913
 7305WAT     H122157   7.820   4.280   3.970
 7305WAT     H222158   7.847   4.229   3.817
 7306WAT      O22159   3.921   5.625   0.217
 7306WAT     H122160   3.827   5.593   0.208
 7306WAT     H222161   3.958   5.643   0.125
 7307WAT      O22162   9.750   7.064   9.340
 7307WAT     H122163   9.818   7.121   9.386
 7307WAT     H222164   9.794   6.983   9.301
 7308WAT      O22165   8.532   3.185   3.585
 7308WAT     H122166   8.539   3.236   3.499
 7308WAT     H222167   8.457   3.222   3.640
 7309WAT      O22168   3.283   1.709   2.423
 7309WAT     H122169   3.236   1.748   2.503
 7309WAT     H222170   3.226   1.638   2.382
 7310WAT      O22171   4.406   4.940   8.974
 7310WAT     H122172   4.460   4.931   9.057
 7310WAT     H222173   4.426   5.028   8.930
 7311WAT      O22174   6.628   2.067   3.761
 7311WAT     H122175   6.676   2.152   3.782
 7311WAT     H222176   6.547   2.059   3.819
 7312WAT      O22177   8.822   3.939   6.933
 7312WAT     H122178   8.874   3.993   6.999
 7312WAT     H222179   8.874   3.857   6.909
 7313WAT      O22180   4.929   8.631   9.446
 7313WAT     H122181   4.878   8.555   9.487
 7313WAT     H222182   5.022   8.601   9.424
 7314WAT      O22183   9.132   5.981   0.248
 7314WAT     H122184   9.111   6.069   0.205
 7314WAT     H222185   9.051   5.923   0.245
 7315WAT      O22186   9.713   1.976   7.275
 7315WAT     H122187   9.734   2.074   7.271
 7315WAT     H222188   9.783   1.929   7.329
 7316WAT      O22189   3.176   6.348   5.270
 7316WAT     H122190   3.186   6.256   5.231
 7316WAT     H222191   3.082   6.380   5.256
 7317WAT      O22192   4.456   2.509   3.737
 7317WAT     H122193   4.460   2.427   3.680
 7317WAT     H222194   4.481   2.485   3.831
 7318WAT      O22195   0.678   6.835   7.640
 7318WAT     H122196   0.749   6.904   7.632
 7318WAT     H222197   0.623   6.853   7.722
 7319WAT      O22198   0.997   9.228   9.344
 7319WAT     H122199   1.078   9.260   9.296
 7319WAT     H222200   1.020   9.211   9.440
 7320WAT      O22201   0.343   3.769   2.621
 7320WAT     H122202   0.407   3.720   2.679
 7320WAT     H222203   0.252   3.770   2.664
 7321WAT      O22204   7.736   7.958   6.118
 7321WAT     H122205   7.751   7.861   6.101
 7321WAT     H222206   7.822   8.002   6.140
 7322WAT      O22207   3.213   2.252   0.831
 7322WAT     H122208   3.208   2.320   0.758
 7322WAT     H222209   3.299   2.203   0.825
 7323WAT      O22210   9.193   7.433   6.628
 7323WAT     H122211   9.112   7.486   6.605
 7323WAT     H222212   9.188   7.344   6.582
 7324WAT      O22213   9.338   7.353   6.280
 7324WAT     H122214   9.425   7.339   6.328
 7324WAT     H222215   9.279   7.273   6.295
 7325WAT      O22216   4.692   3.877   4.318
 7325WAT     H122217   4.594   3.856   4.324
 7325WAT     H222218   4.708   3.930   4.235
 7326WAT      O22219   3.140   0.758   1.252
 7326WAT     H122220   3.170   0.853   1.259
 7326WAT     H222221   3.066   0.741   1.317
 7327WAT      O22222   5.661   8.109   5.127
 7327WAT     H122223   5.601   8.035   5.098
 7327WAT     H222224   5.679   8.102   5.225
 7328WAT      O22225   0.199   5.888   0.834
 7328WAT     H122226   0.287   5.880   0.881
 7328WAT     H222227   0.214   5.924   0.742
 7329WAT      O22228   1.886   8.089   3.272
 7329WAT     H122229   1.963   8.153   3.267
 7329WAT     H222230   1.918   7.997   3.250
 7330WAT      O22231   8.077   6.359   9.137
 7330WAT     H122232   8.165   6.332   9.176
 7330WAT     H222233   8.005   6.299   9.171
 7331WAT      O22234   4.897   1.437   6.922
 7331WAT     H122235   4.971   1.373   6.945
 7331WAT     H222236   4.931   1.505   6.857
 7332WAT      O22237   6.922   2.945   1.111
 7332WAT     H122238   6.978   2.978   1.035
 7332WAT     H222239   6.891   2.852   1.091
 7333WAT      O22240   6.280   6.394   5.241
 7333WAT     H122241   6.222   6.362   5.316
 7333WAT     H222242   6.229   6.463   5.188
 7334WAT      O22243   6.017   7.986   3.688
 7334WAT     H122244   5.964   7.902   3.680
 7334WAT     H222245   6.014   8.019   3.782
 7335WAT      O22246   7.033   6.923   7.088
 7335WAT     H122247   7.091   6.888   7.161
 7335WAT     H222248   6.944   6.878   7.092
 7336WAT      O22249   5.789   2.885   1.099
 7336WAT     H122250   5.767   2.840   1.013
 7336WAT     H222251   5.877   2.851   1.133
 7337WAT      O22252   9.130   3.234   0.578
 7337WAT     H122253   9.091   3.240   0.486
 7337WAT     H222254   9.216   3.285   0.581
 7338WAT      O22255   8.177   0.024   7.623
 7338WAT     H122256   8.088   0.002   7.582
 7338WAT     H222257   8.174   0.004   7.721
 7339WAT      O22258   4.805   8.380   6.764
 7339WAT     H122259   4.741   8.306   6.785
 7339WAT     H222260   4.765   8.439   6.693
 7340WAT      O22261   1.897   1.592   7.748
 7340WAT     H122262   1.990   1.590   7.784
 7340WAT     H222263   1.873   1.685   7.722
 7341WAT      O22264   2.550   3.214   2.767
 7341WAT     H122265   2.593   3.301   2.742
 7341WAT     H222266   2.479   3.191   2.699
 7342WAT      O22267   3.486   8.797   1.365
 7342WAT     H122268   3.407   8.859   1.361
 7342WAT     H222269   3.570   8.850   1.356
 7343WAT      O22270   3.994   2.269   7.067
 7343WAT     H122271   3.948   2.265   7.156
 7343WAT     H222272   4.067   2.201   7.064
 7344WAT      O22273   2.257   6.560   9.669
 7344WAT     H122274   2.263   6.543   9.768
 7344WAT     H222275   2.324   6.504   9.621
 7345WAT      O22276   3.721   6.527   8.010
 7345WAT     H122277   3.666   6.564   7.935
 7345WAT     H222278   3.754   6.436   7.985
 7346WAT      O22279   2.323   4.416   3.421
 7346WAT     H122280   2.386   4.352   3.377
 7346WAT     H222281   2.347   4.509   3.393
 7347WAT      O22282   7.959   8.941   3.139
 7347WAT     H122283   8.022   8.870   3.172
 7347WAT     H222284   7.901   8.973   3.215
 7348WAT      O22285   7.581   2.254   7.151
 7348WAT     H122286   7.579   2.161   7.116
 7348WAT     H222287   7.487   2.285   7.169
 7349WAT      O22288   7.445   1.869   0.954
 7349WAT     H122289   7.365   1.917   0.991
 7349WAT     H222290   7.522   1.879   1.018
 7350WAT      O22291   6.622   2.576   5.491
 7350WAT     H122292   6.615   2.562   5.590
 7350WAT     H222293   6.539   2.543   5.447
 7351WAT      O22294   8.352   5.873   6.753
 7351WAT     H122295   8.302   5.789   6.729
 7351WAT     H222296   8.364   5.929   6.671
 7352WAT      O22297   2.478   6.589   3.050
 7352WAT     H122298   2.395   6.644   3.040
 7352WAT     H222299   2.520   6.608   3.139
 7353WAT      O22300   6.629   0.985   6.409
 7353WAT     H122301   6.670   0.916   6.467
 7353WAT     H222302   6.588   1.057   6.466
 7354WAT      O22303   9.622   5.234   6.128
 7354WAT     H122304   9.701   5.265   6.075
 7354WAT     H222305   9.567   5.313   6.155
 7355WAT      O22306   2.546   4.348   5.872
 7355WAT     H122307   2.539   4.442   5.908
 7355WAT     H222308   2.642   4.318   5.877
 7356WAT      O22309   4.388   9.793   6.227
 7356WAT     H122310   4.471   9.782   6.173
 7356WAT     H222311   4.316   9.734   6.189
 7357WAT      O22312   3.902   0.417   6.411
 7357WAT     H122313   3.872   0.431   6.506
 7357WAT     H222314   4.002   0.416   6.408
 7358WAT      O22315   8.041   5.928   3.785
 7358WAT     H122316   8.084   6.013   3.814
 7358WAT     H222317   7.945   5.928   3.813
 7359WAT      O22318   0.504   7.625   1.376
 7359WAT     H122319   0.575   7.635   1.306
 7359WAT     H222320   0.545   7.639   1.466
 7360WAT      O22321   6.180   7.268   1.138
 7360WAT     H122322   6.207   7.182   1.095
 7360WAT     H222323   6.261   7.325   1.152
 7361WAT      O22324   5.455   1.159   5.222
 7361WAT     H122325   5.522   1.234   5.224
 7361WAT     H222326   5.374   1.187   5.274
 7362WAT      O22327   8.210   6.231   1.085
 7362WAT     H122328   8.208   6.305   1.018
 7362WAT     H222329   8.270   6.158   1.051
 7363WAT      O22330   0.528   7.601   8.782
 7363WAT     H122331   0.509   7.650   8.867
 7363WAT     H222332   0.537   7.667   8.707
 7364WAT      O22333   0.053   2.605   7.097
 7364WAT     H122334   0.051   2.510   7.130
 7364WAT     H222335   0.147   2.640   7.104
 7365WAT      O22336   4.237   8.368   3.343
 7365WAT     H122337   4.277   8.281   3.316
 7365WAT     H222338   4.224   8.425   3.262
 7366WAT      O22339   6.001   2.274   1.632
 7366WAT     H122340   6.098   2.251   1.635
 7366WAT     H222341   5.979   2.316   1.544
 7367WAT      O22342   8.447   6.922   3.505
 7367WAT     H122343   8.477   6.826   3.502
 7367WAT     H222344   8.497   6.970   3.577
 7368WAT      O22345   7.116   3.403   2.043
 7368WAT     H122346   7.097   3.500   2.033
 7368WAT     H222347   7.073   3.368   2.126
 7369WAT      O22348   8.576   3.241   9.108
 7369WAT     H122349   8.603   3.153   9.148
 7369WAT     H222350   8.615   3.250   9.017
 7370WAT      O22351   8.524   6.968   7.182
 7370WAT     H122352   8.561   6.877   7.199
 7370WAT     H222353   8.503   7.012   7.269
 7371WAT      O22354   3.311   7.127   7.212
 7371WAT     H122355   3.376   7.127   7.136
 7371WAT     H222356   3.361   7.117   7.298
 7372WAT      O22357   4.153   0.637   6.004
 7372WAT     H122358   4.213   0.696   6.058
 7372WAT     H222359   4.058   0.667   6.015
 7373WAT      O22360   7.592   2.112   7.401
 7373WAT     H122361   7.629   2.136   7.312
 7373WAT     H222362   7.561   2.195   7.448
 7374WAT      O22363   6.348   8.440   3.753
 7374WAT     H122364   6.393   8.525   3.781
 7374WAT     H222365   6.338   8.380   3.832
 7375WAT      O22366   6.171   2.459   2.712
 7375WAT     H122367   6.162   2.545   2.662
 7375WAT     H222368   6.260   2.419   2.694
 7376WAT      O22369   2.571   8.559   1.141
 7376WAT     H122370   2.490   8.515   1.103
 7376WAT     H222371   2.637   8.575   1.067
 7377WAT      O22372   9.495   8.467   2.046
 7377WAT     H122373   9.466   8.481   2.141
 7377WAT     H222374   9.454   8.538   1.988
 7378WAT      O22375   1.637   1.147   3.121
 7378WAT     H122376   1.696   1.101   3.055
 7378WAT     H222377   1.694   1.201   3.183
 7379WAT      O22378   2.155   0.129   4.128
 7379WAT     H122379   2.252   0.153   4.116
 7379WAT     H222380   2.148   0.051   4.190
 7380WAT      O22381   1.547   0.187   1.579
 7380WAT     H122382   1.527   0.154   1.487
 7380WAT     H222383   1.591   0.114   1.632
 7381WAT      O22384   0.426   6.847   5.907
 7381WAT     H122385   0.371   6.772   5.944
 7381WAT     H222386   0.376   6.933   5.917
 7382WAT      O22387   0.810   3.334   0.960
 7382WAT     H122388   0.906   3.350   0.938
 7382WAT     H222389   0.776   3.258   0.904
 7383WAT      O22390   7.535   1.302   6.268
 7383WAT     H122391   7.513   1.237   6.340
 7383WAT     H222392   7.518   1.395   6.299
 7384WAT      O22393   8.708   8.851   2.050
 7384WAT     H122394   8.758   8.837   2.136
 7384WAT     H222395   8.744   8.789   1.980
 7385WAT      O22396   2.017   5.601   6.098
 7385WAT     H122397   2.109   5.635   6.117
 7385WAT     H222398   1.992   5.531   6.165
 7386WAT      O22399   8.778   9.251   1.594
 7386WAT     H122400   8.860   9.204   1.627
 7386WAT     H222401   8.734   9.195   1.523
 7387WAT      O22402   0.196   1.079   5.007
 7387WAT     H122403   0.277   1.134   5.027
 7387WAT     H222404   0.207   1.034   4.919
 7388WAT      O22405   9.542   6.423   2.890
 7388WAT     H122406   9.543   6.326   2.865
 7388WAT     H222407   9.579   6.434   2.982
 7389WAT      O22408   6.027   1.404   0.771
 7389WAT     H122409   6.126   1.390   0.768
 7389WAT     H222410   5.980   1.316   0.768
 7390WAT      O22411   4.226   6.660   3.930
 7390WAT     H122412   4.239   6.752   3.893
 7390WAT     H222413   4.244   6.661   4.028
 7391WAT      O22414   1.460   2.233   4.052
 7391WAT     H122415   1.455   2.169   4.128
 7391WAT     H222416   1.524   2.198   3.983
 7392WAT      O22417   7.813   1.773   6.482
 7392WAT     H122418   7.884   1.774   6.552
 7392WAT     H222419   7.757   1.691   6.492
 7393WAT      O22420   5.078   9.738   8.239
 7393WAT     H122421   5.004   9.804   8.246
 7393WAT     H222422   5.147   9.772   8.175
 7394WAT      O22423   8.409   4.870   6.129
 7394WAT     H122424   8.350   4.946   6.157
 7394WAT     H222425   8.384   4.840   6.037
 7395WAT      O22426   1.578   0.543   6.469
 7395WAT     H122427   1.583   0.640   6.495
 7395WAT     H222428   1.625   0.488   6.538
 7396WAT      O22429   1.261   8.873   4.277
 7396WAT     H122430   1.230   8.799   4.335
 7396WAT     H222431   1.361   8.880   4.282
 7397WAT      O22432   6.754   1.652   7.700
 7397WAT     H122433   6.685   1.710   7.744
 7397WAT     H222434   6.802   1.598   7.769
 7398WAT      O22435   5.938   6.885   1.715
 7398WAT     H122436   5.976   6.803   1.757
 7398WAT     H222437   6.009   6.956   1.710
 7399WAT      O22438   5.191   8.036   9.706
 7399WAT     H122439   5.208   7.961   9.769
 7399WAT     H222440   5.155   8.000   9.620
 7400WAT      O22441   2.243   4.151   6.957
 7400WAT     H122442   2.251   4.094   7.039
 7400WAT     H222443   2.176   4.224   6.974
 7401WAT      O22444   2.543   8.577   6.858
 7401WAT     H122445   2.588   8.502   6.810
 7401WAT     H222446   2.573   8.664   6.820
 7402WAT      O22447   5.913   2.105   2.497
 7402WAT     H122448   5.937   2.010   2.517
 7402WAT     H222449   5.921   2.121   2.398
 7403WAT      O22450   4.260   8.284   6.614
 7403WAT     H122451   4.233   8.212   6.677
 7403WAT     H222452   4.282   8.244   6.525
 7404WAT      O22453   8.370   9.143   1.702
 7404WAT     H122454   8.457   9.114   1.662
 7404WAT     H222455   8.375   9.135   1.802
 7405WAT      O22456   7.376   9.085   2.478
 7405WAT     H122457   7.308   9.024   2.437
 7405WAT     H222458   7.455   9.032   2.507
 7406WAT      O22459   4.230   8.425   5.646
 7406WAT     H122460   4.193   8.508   5.602
 7406WAT     H222461   4.193   8.418   5.739
 7407WAT      O22462   0.363   1.720   4.014
 7407WAT     H122463   0.442   1.739   4.072
 7407WAT     H222464   0.279   1.746   4.061
 7408WAT      O22465   0.833   3.283   5.918
 7408WAT     H122466   0.929   3.299   5.939
 7408WAT     H222467   0.824   3.212   5.848
 7409WAT      O22468   3.111   3.828   3.099
 7409WAT     H122469   3.089   3.881   3.017
 7409WAT     H222470   3.200   3.785   3.088
 7410WAT      O22471   2.797   6.737   8.684
 7410WAT     H122472   2.718   6.682   8.712
 7410WAT     H222473   2.839   6.697   8.604
 7411WAT      O22474   9.263   0.924   0.694
 7411WAT     H122475   9.208   0.980   0.633
 7411WAT     H222476   9.204   0.857   0.741
 7412WAT      O22477   5.021   4.447   1.935
 7412WAT     H122478   4.923   4.427   1.936
 7412WAT     H222479   5.073   4.361   1.940
 7413WAT      O22480   8.624   5.802   6.554
 7413WAT     H122481   8.549   5.866   6.566
 7413WAT     H222482   8.690   5.839   6.488
 7414WAT      O22483   4.731   3.148   4.094
 7414WAT     H122484   4.763   3.132   4.001
 7414WAT     H222485   4.800   3.200   4.145
 7415WAT      O22486   0.960   7.600   7.822
 7415WAT     H122487   0.865   7.628   7.832
 7415WAT     H222488   0.985   7.598   7.725
 7416WAT      O22489   0.013   1.765   7.114
 7416WAT     H122490   0.042   1.762   7.209
 7416WAT     H222491  -0.055   1.694   7.097
 7417WAT      O22492   6.652   4.873   7.770
 7417WAT     H122493   6.701   4.828   7.845
 7417WAT     H222494   6.682   4.833   7.683
 7418WAT      O22495   0.006   4.275   3.866
 7418WAT     H122496  -0.013   4.199   3.928
 7418WAT     H222497   0.097   4.312   3.884
 7419WAT      O22498   5.552   8.499   5.092
 7419WAT     H122499   5.524   8.507   4.996
 7419WAT     H222500   5.627   8.433   5.100
 7420WAT      O22501   5.327   9.807   0.037
 7420WAT     H122502   5.238   9.768   0.060
 7420WAT     H222503   5.323   9.907   0.046
 7421WAT      O22504   0.461   1.756   5.223
 7421WAT     H122505   0.397   1.758   5.300
 7421WAT     H222506   0.415   1.720   5.142
 7422WAT      O22507   0.057   1.265   7.874
 7422WAT     H122508   0.064   1.357   7.836
 7422WAT     H222509   0.013   1.269   7.963
 7423WAT      O22510   0.572   0.925   2.549
 7423WAT     H122511   0.473   0.934   2.560
 7423WAT     H222512   0.617   0.943   2.636
 7424WAT      O22513   2.884   4.362   2.816
 7424WAT     H122514   2.850   4.452   2.843
 7424WAT     H222515   2.879   4.299   2.894
 7425WAT      O22516   9.494   9.763   4.225
 7425WAT     H122517   9.556   9.703   4.174
 7425WAT     H222518   9.541   9.849   4.246
 7426WAT      O22519   4.505   8.047   7.057
 7426WAT     H122520   4.501   8.108   6.978
 7426WAT     H222521   4.584   7.986   7.047
 7427WAT      O22522   8.881   1.967   3.572
 7427WAT     H122523   8.938   2.020   3.635
 7427WAT     H222524   8.909   1.871   3.575
 7428WAT      O22525   0.344   6.587   4.217
 7428WAT     H122526   0.329   6.616   4.122
 7428WAT     H222527   0.258   6.555   4.256
 7429WAT      O22528   3.222   5.701   2.837
 7429WAT     H122529   3.211   5.765   2.913
 7429WAT     H222530   3.201   5.609   2.868
 7430WAT      O22531   2.625   2.973   1.993
 7430WAT     H122532   2.575   3.002   1.911
 7430WAT     H222533   2.660   3.053   2.041
 7431WAT      O22534   2.465   9.519   0.951
 7431WAT     H122535   2.485   9.456   0.876
 7431WAT     H222536   2.533   9.506   1.023
 7432WAT      O22537   8.568   2.923   0.471
 7432WAT     H122538   8.568   3.019   0.439
 7432WAT     H222539   8.656   2.902   0.514
 7433WAT      O22540   4.741   6.972   7.205
 7433WAT     H122541   4.737   6.932   7.114
 7433WAT     H222542   4.649   6.998   7.234
 7434WAT      O22543   6.177   5.509   2.821
 7434WAT     H122544   6.150   5.463   2.906
 7434WAT     H222545   6.118   5.479   2.747
 7435WAT      O22546   7.116   1.485   6.322
 7435WAT     H122547   7.199   1.535   6.297
 7435WAT     H222548   7.057   1.478   6.242
 7436WAT      O22549   6.898   6.598   9.457
 7436WAT     H122550   6.982   6.606   9.403
 7436WAT     H222551   6.915   6.625   9.551
 7437WAT      O22552   0.015   8.985   1.785
 7437WAT     H122553   0.020   9.074   1.830
 7437WAT     H222554   0.046   8.993   1.691
 7438WAT      O22555   6.880   5.531   1.238
 7438WAT     H122556   6.857   5.486   1.152
 7438WAT     H222557   6.960   5.486   1.279
 7439WAT      O22558   2.480   7.501   0.222
 7439WAT     H122559   2.556   7.436   0.228
 7439WAT     H222560   2.401   7.464   0.271
 7440WAT      O22561   9.578   9.310   9.879
 7440WAT     H122562   9.675   9.308   9.906
 7440WAT     H222563   9.568   9.369   9.799
 7441WAT      O22564   1.677   2.450   2.974
 7441WAT     H122565   1.577   2.448   2.970
 7441WAT     H222566   1.712   2.526   2.920
 7442WAT      O22567   3.936   1.416   4.368
 7442WAT     H122568   3.851   1.467   4.349
 7442WAT     H222569   4.012   1.460   4.320
 7443WAT      O22570   2.963   1.765   5.830
 7443WAT     H122571   2.943   1.836   5.897
 7443WAT     H222572   3.017   1.692   5.873
 7444WAT      O22573   1.981   9.053   4.240
 7444WAT     H122574   1.928   9.052   4.325
 7444WAT     H222575   1.960   8.970   4.188
 7445WAT      O22576   1.096   6.316   8.107
 7445WAT     H122577   1.008   6.344   8.146
 7445WAT     H222578   1.097   6.337   8.009
 7446WAT      O22579   1.272   4.340   8.449
 7446WAT     H122580   1.174   4.329   8.468
 7446WAT     H222581   1.289   4.317   8.353
 7447WAT      O22582   7.289   5.808   9.253
 7447WAT     H122583   7.198   5.776   9.279
 7447WAT     H222584   7.310   5.893   9.301
 7448WAT      O22585   8.177   2.539   7.080
 7448WAT     H122586   8.198   2.626   7.035
 7448WAT     H222587   8.234   2.530   7.162
 7449WAT      O22588   3.116   0.744   3.672
 7449WAT     H122589   3.154   0.698   3.752
 7449WAT     H222590   3.031   0.790   3.697
 7450WAT      O22591   5.224   6.621   4.197
 7450WAT     H122592   5.140   6.671   4.178
 7450WAT     H222593   5.265   6.655   4.281
 7451WAT      O22594   5.627   6.279   4.064
 7451WAT     H122595   5.587   6.212   4.001
 7451WAT     H222596   5.722   6.295   4.039
 7452WAT      O22597   7.249   3.541   4.539
 7452WAT     H122598   7.321   3.597   4.499
 7452WAT     H222599   7.179   3.522   4.470
 7453WAT      O22600   1.316   0.476   9.304
 7453WAT     H122601   1.295   0.532   9.384
 7453WAT     H222602   1.332   0.536   9.225
 7454WAT      O22603   3.791   0.256   9.883
 7454WAT     H122604   3.834   0.313   9.953
 7454WAT     H222605   3.857   0.237   9.810
 7455WAT      O22606   0.626   3.022   0.202
 7455WAT     H122607   0.675   2.953   0.257
 7455WAT     H222608   0.630   2.997   0.106
 7456WAT      O22609   1.043   7.467   0.180
 7456WAT     H122610   1.090   7.514   0.105
 7456WAT     H222611   0.945   7.461   0.159
 7457WAT      O22612   3.640   0.420   0.779
 7457WAT     H122613   3.550   0.450   0.811
 7457WAT     H222614   3.629   0.370   0.693
 7458WAT      O22615   9.773   7.689   0.146
 7458WAT     H122616   9.778   7.778   0.102
 7458WAT     H222617   9.686   7.681   0.195
 7459WAT      O22618   1.844   2.600   5.672
 7459WAT     H122619   1.749   2.626   5.686
 7459WAT     H222620   1.902   2.648   5.738
 7460WAT      O22621   1.555   1.026   0.932
 7460WAT     H122622   1.457   1.018   0.914
 7460WAT     H222623   1.606   1.010   0.847
 7461WAT      O22624   6.319   9.034   7.914
 7461WAT     H122625   6.246   8.967   7.929
 7461WAT     H222626   6.284   9.126   7.932
 7462WAT      O22627   1.959   9.594   7.771
 7462WAT     H122628   1.934   9.534   7.846
 7462WAT     H222629   1.943   9.689   7.797
 7463WAT      O22630   1.300   8.498   5.402
 7463WAT     H122631   1.366   8.566   5.432
 7463WAT     H222632   1.347   8.425   5.352
 7464WAT      O22633   8.739   9.649   9.292
 7464WAT     H122634   8.817   9.711   9.305
 7464WAT     H222635   8.705   9.659   9.199
 7465WAT      O22636   4.938   0.818   7.560
 7465WAT     H122637   4.896   0.791   7.473
 7465WAT     H222638   5.030   0.780   7.566
 7466WAT      O22639   0.300   6.898   2.663
 7466WAT     H122640   0.304   6.987   2.618
 7466WAT     H222641   0.207   6.861   2.655
 7467WAT      O22642   4.471   9.500   9.101
 7467WAT     H122643   4.390   9.486   9.157
 7467WAT     H222644   4.490   9.417   9.048
 7468WAT      O22645   7.637   6.869   5.665
 7468WAT     H122646   7.697   6.846   5.742
 7468WAT     H222647   7.558   6.921   5.699
 7469WAT      O22648   7.094   3.381   2.702
 7469WAT     H122649   7.064   3.330   2.621
 7469WAT     H222650   7.023   3.376   2.772
 7470WAT      O22651   0.885   7.984   5.146
 7470WAT     H122652   0.942   8.067   5.147
 7470WAT     H222653   0.938   7.907   5.182
 7471WAT      O22654   2.089   3.800   6.158
 7471WAT     H122655   2.116   3.855   6.079
 7471WAT     H222656   2.170   3.756   6.197
 7472WAT      O22657   7.684   4.490   4.699
 7472WAT     H122658   7.695   4.397   4.664
 7472WAT     H222659   7.727   4.555   4.637
 7473WAT      O22660   4.386   4.929   5.434
 7473WAT     H122661   4.344   4.849   5.477
 7473WAT     H222662   4.320   4.974   5.374
 7474WAT      O22663   6.064   6.556   7.928
 7474WAT     H122664   6.086   6.509   8.014
 7474WAT     H222665   6.138   6.543   7.862
 7475WAT      O22666   6.081   4.222   0.148
 7475WAT     H122667   6.102   4.144   0.206
 7475WAT     H222668   6.084   4.194   0.052
 7476WAT      O22669   2.444   8.005   8.184
 7476WAT     H122670   2.519   7.940   8.199
 7476WAT     H222671   2.388   8.010   8.266
 7477WAT      O22672   4.180   7.869   6.882
 7477WAT     H122673   4.122   7.871   6.963
 7477WAT     H222674   4.208   7.775   6.864
 7478WAT      O22675   0.498   4.333   7.725
 7478WAT     H122676   0.428   4.358   7.657
 7478WAT     H222677   0.459   4.344   7.817
 7479WAT      O22678   0.147   6.184   6.180
 7479WAT     H122679   0.050   6.209   6.176
 7479WAT     H222680   0.198   6.238   6.113
 7480WAT      O22681   9.028   7.691   9.304
 7480WAT     H122682   9.024   7.664   9.400
 7480WAT     H222683   8.972   7.773   9.290
 7481WAT      O22684   7.549   6.750   5.953
 7481WAT     H122685   7.509   6.725   6.041
 7481WAT     H222686   7.486   6.724   5.879
 7482WAT      O22687   5.717   9.759   0.737
 7482WAT     H122688   5.765   9.806   0.663
 7482WAT     H222689   5.784   9.727   0.804
 7483WAT      O22690   0.548   5.034   9.415
 7483WAT     H122691   0.500   5.027   9.503
 7483WAT     H222692   0.526   5.121   9.372
 7484WAT      O22693   3.633   9.370   1.987
 7484WAT     H122694   3.659   9.430   1.912
 7484WAT     H222695   3.673   9.405   2.072
 7485WAT      O22696   2.483   0.471   6.490
 7485WAT     H122697   2.424   0.469   6.571
 7485WAT     H222698   2.527   0.382   6.479
 7486WAT      O22699   0.956   7.612   7.538
 7486WAT     H122700   1.050   7.577   7.539
 7486WAT     H222701   0.928   7.627   7.443
 7487WAT      O22702   9.374   0.469   0.627
 7487WAT     H122703   9.283   0.489   0.592
 7487WAT     H222704   9.410   0.388   0.582
 7488WAT      O22705   5.611   5.700   2.663
 7488WAT     H122706   5.515   5.726   2.656
 7488WAT     H222707   5.668   5.775   2.631
 7489WAT      O22708   3.686   1.133   2.369
 7489WAT     H122709   3.656   1.038   2.378
 7489WAT     H222710   3.786   1.137   2.361
 7490WAT      O22711   5.432   6.389   9.807
 7490WAT     H122712   5.523   6.396   9.848
 7490WAT     H222713   5.436   6.332   9.726
 7491WAT      O22714   2.559   2.085   8.579
 7491WAT     H122715   2.501   2.047   8.651
 7491WAT     H222716   2.531   2.178   8.558
 7492WAT      O22717   8.007   9.197   0.558
 7492WAT     H122718   7.950   9.119   0.585
 7492WAT     H222719   7.951   9.280   0.560
 7493WAT      O22720   7.522   8.071   6.236
 7493WAT     H122721   7.446   8.068   6.171
 7493WAT     H222722   7.602   8.026   6.196
 7494WAT      O22723   1.375   4.195   1.675
 7494WAT     H122724   1.463   4.171   1.634
 7494WAT     H222725   1.389   4.265   1.745
 7495WAT      O22726   8.280   8.893   5.374
 7495WAT     H122727   8.312   8.800   5.393
 7495WAT     H222728   8.213   8.920   5.444
 7496WAT      O22729   7.147   9.762   9.195
 7496WAT     H122730   7.070   9.825   9.209
 7496WAT     H222731   7.114   9.668   9.206
 7497WAT      O22732   5.536   1.806   4.290
 7497WAT     H122733   5.485   1.749   4.355
 7497WAT     H222734   5.630   1.815   4.322
 7498WAT      O22735   8.549   6.335   7.829
 7498WAT     H122736   8.594   6.373   7.909
 7498WAT     H222737   8.538   6.236   7.841
 7499WAT      O22738   1.754   5.305   9.381
 7499WAT     H122739   1.846   5.336   9.355
 7499WAT     H222740   1.761   5.220   9.434
 7500WAT      O22741   7.659   7.785   7.375
 7500WAT     H122742   7.642   7.690   7.402
 7500WAT     H222743   7.583   7.818   7.319
 7501WAT      O22744   1.487   5.117   1.592
 7501WAT     H122745   1.410   5.076   1.642
 7501WAT     H222746   1.558   5.143   1.657
 7502WAT      O22747   1.507   7.801   5.602
 7502WAT     H122748   1.594   7.851   5.596
 7502WAT     H222749   1.465   7.798   5.511
 7503WAT      O22750   4.252   9.432   1.947
 7503WAT     H122751   4.292   9.486   2.020
 7503WAT     H222752   4.316   9.429   1.870
 7504WAT      O22753   3.157   3.108   6.889
 7504WAT     H122754   3.127   3.041   6.956
 7504WAT     H222755   3.109   3.092   6.802
 7505WAT      O22756   1.329   1.596   5.113
 7505WAT     H122757   1.235   1.565   5.102
 7505WAT     H222758   1.362   1.635   5.028
 7506WAT      O22759   0.135   3.504   8.529
 7506WAT     H122760   0.128   3.599   8.559
 7506WAT     H222761   0.231   3.475   8.533
 7507WAT      O22762   1.614   0.540   4.919
 7507WAT     H122763   1.592   0.557   4.823
 7507WAT     H222764   1.672   0.614   4.953
 7508WAT      O22765   7.321   5.843   1.818
 7508WAT     H122766   7.399   5.807   1.766
 7508WAT     H222767   7.257   5.768   1.836
 7509WAT      O22768   9.358   1.953   5.484
 7509WAT     H122769   9.288   1.892   5.521
 7509WAT     H222770   9.316   2.037   5.451
 7510WAT      O22771   8.265   0.720   2.452
 7510WAT     H122772   8.228   0.787   2.388
 7510WAT     H222773   8.258   0.628   2.414
 7511WAT      O22774   5.727   2.235   5.044
 7511WAT     H122775   5.758   2.327   5.066
 7511WAT     H222776   5.641   2.217   5.091
 7512WAT      O22777   5.195   0.497   7.919
 7512WAT     H122778   5.280   0.548   7.907
 7512WAT     H222779   5.176   0.443   7.837
 7513WAT      O22780   5.476   2.179   3.405
 7513WAT     H122781   5.395   2.234   3.423
 7513WAT     H222782   5.549   2.237   3.370
 7514WAT      O22783   7.459   5.569   2.483
 7514WAT     H122784   7.417   5.482   2.510
 7514WAT     H222785   7.403   5.612   2.412
 7515WAT      O22786   3.111   4.418   2.387
 7515WAT     H122787   3.081   4.354   2.458
 7515WAT     H222788   3.206   4.399   2.362
 7516WAT      O22789   7.752   9.452   0.883
 7516WAT     H122790   7.715   9.472   0.973
 7516WAT     H222791   7.783   9.357   0.880
 7517WAT      O22792   1.893   1.147   5.805
 7517WAT     H122793   1.965   1.078   5.795
 7517WAT     H222794   1.929   1.237   5.781
 7518WAT      O22795   9.519   7.401   4.279
 7518WAT     H122796   9.550   7.391   4.374
 7518WAT     H222797   9.589   7.449   4.226
 7519WAT      O22798   6.294   7.052   1.987
 7519WAT     H122799   6.228   7.035   2.061
 7519WAT     H222800   6.386   7.059   2.026
 7520WAT      O22801   8.243   6.549   7.319
 7520WAT     H122802   8.144   6.541   7.314
 7520WAT     H222803   8.279   6.485   7.387
 7521WAT      O22804   9.605   9.619   1.856
 7521WAT     H122805   9.558   9.590   1.772
 7521WAT     H222806   9.537   9.635   1.928
 7522WAT      O22807   7.602   1.490   3.055
 7522WAT     H122808   7.502   1.486   3.063
 7522WAT     H222809   7.643   1.432   3.124
 7523WAT      O22810   4.042   8.057   4.736
 7523WAT     H122811   4.113   7.988   4.751
 7523WAT     H222812   3.986   8.066   4.819
 7524WAT      O22813   0.099   9.069   5.031
 7524WAT     H122814   0.002   9.058   5.056
 7524WAT     H222815   0.117   9.017   4.947
 7525WAT      O22816   2.348   4.027   0.659
 7525WAT     H122817   2.329   3.998   0.753
 7525WAT     H222818   2.309   3.961   0.595
 7526WAT      O22819   0.593   0.595   9.052
 7526WAT     H122820   0.596   0.632   8.960
 7526WAT     H222821   0.550   0.505   9.051
 7527WAT      O22822   9.199   1.344   0.336
 7527WAT     H122823   9.220   1.314   0.429
 7527WAT     H222824   9.283   1.340   0.281
 7528WAT      O22825   7.109   9.792   1.579
 7528WAT     H122826   7.141   9.754   1.492
 7528WAT     H222827   7.095   9.890   1.570
 7529WAT      O22828   1.703   8.424   0.721
 7529WAT     H122829   1.677   8.414   0.817
 7529WAT     H222830   1.793   8.466   0.714
 7530WAT      O22831   0.597   8.027   1.304
 7530WAT     H122832   0.596   8.112   1.251
 7530WAT     H222833   0.683   8.020   1.355
 7531WAT      O22834   8.166   5.860   5.772
 7531WAT     H122835   8.152   5.852   5.673
 7531WAT     H222836   8.104   5.930   5.808
 7532WAT      O22837   2.947   6.921   1.868
 7532WAT     H122838   3.042   6.891   1.869
 7532WAT     H222839   2.890   6.850   1.826
 7533WAT      O22840   7.296   2.929   8.067
 7533WAT     H122841   7.346   2.866   8.127
 7533WAT     H222842   7.296   3.021   8.108
 7534WAT      O22843   7.840   8.878   5.595
 7534WAT     H122844   7.818   8.896   5.691
 7534WAT     H222845   7.758   8.842   5.548
 7535WAT      O22846   4.328   0.077   8.895
 7535WAT     H122847   4.391   0.146   8.862
 7535WAT     H222848   4.242   0.083   8.844
 7536WAT      O22849   9.163   8.919   9.615
 7536WAT     H122850   9.180   8.982   9.691
 7536WAT     H222851   9.092   8.853   9.641
 7537WAT      O22852   6.761   7.503   8.754
 7537WAT     H122853   6.693   7.433   8.732
 7537WAT     H222854   6.753   7.579   8.690
 7538WAT      O22855   2.785   7.298   8.320
 7538WAT     H122856   2.862   7.348   8.361
 7538WAT     H222857   2.710   7.362   8.300
 7539WAT      O22858   9.253   8.896   5.286
 7539WAT     H122859   9.323   8.967   5.280
 7539WAT     H222860   9.169   8.927   5.241
 7540WAT      O22861   6.394   7.218   4.205
 7540WAT     H122862   6.451   7.139   4.229
 7540WAT     H222863   6.438   7.302   4.237
 7541WAT      O22864   3.112   6.340   9.662
 7541WAT     H122865   3.139   6.266   9.723
 7541WAT     H222866   3.029   6.315   9.613
 7542WAT      O22867   2.155   4.632   1.491
 7542WAT     H122868   2.075   4.640   1.432
 7542WAT     H222869   2.235   4.607   1.436
 7543WAT      O22870   2.662   2.925   4.276
 7543WAT     H122871   2.674   2.916   4.177
 7543WAT     H222872   2.727   2.865   4.323
 7544WAT      O22873   2.939   3.456   8.871
 7544WAT     H122874   2.869   3.392   8.840
 7544WAT     H222875   3.024   3.406   8.889
 7545WAT      O22876   4.927   7.514   9.601
 7545WAT     H122877   4.950   7.522   9.698
 7545WAT     H222878   4.863   7.586   9.576
 7546WAT      O22879   0.637   6.472   9.088
 7546WAT     H122880   0.710   6.410   9.060
 7546WAT     H222881   0.677   6.548   9.140
 7547WAT      O22882   1.574   9.325   2.239
 7547WAT     H122883   1.483   9.309   2.277
 7547WAT     H222884   1.642   9.317   2.312
 7548WAT      O22885   6.077   7.981   9.331
 7548WAT     H122886   6.174   7.963   9.347
 7548WAT     H222887   6.022   7.937   9.402
 7549WAT      O22888   4.658   7.018   8.207
 7549WAT     H122889   4.584   7.037   8.271
 7549WAT     H222890   4.622   6.974   8.125
 7550WAT      O22891   5.071   2.845   1.341
 7550WAT     H122892   5.033   2.852   1.434
 7550WAT     H222893   4.997   2.837   1.275
 7551WAT      O22894   1.204   8.107   9.204
 7551WAT     H122895   1.179   8.011   9.212
 7551WAT     H222896   1.121   8.163   9.207
 7552WAT      O22897   7.520   7.771   3.985
 7552WAT     H122898   7.612   7.805   4.001
 7552WAT     H222899   7.471   7.767   4.073
 7553WAT      O22900   0.142   5.368   5.182
 7553WAT     H122901   0.159   5.465   5.165
 7553WAT     H222902   0.182   5.314   5.108
 7554WAT      O22903   8.035   1.562   3.725
 7554WAT     H122904   8.045   1.574   3.626
 7554WAT     H222905   8.108   1.612   3.772
 7555WAT      O22906   4.274   6.117   0.966
 7555WAT     H122907   4.296   6.057   0.889
 7555WAT     H222908   4.354   6.127   1.025
 7556WAT      O22909   1.152   6.019   2.590
 7556WAT     H122910   1.237   6.071   2.595
 7556WAT     H222911   1.093   6.059   2.519
 7557WAT      O22912   6.581   3.035   6.840
 7557WAT     H122913   6.545   2.947   6.809
 7557WAT     H222914   6.664   3.057   6.789
 7558WAT      O22915   8.116   0.310   0.332
 7558WAT     H122916   8.107   0.383   0.400
 7558WAT     H222917   8.213   0.294   0.313
 7559WAT      O22918   6.621   2.825   7.934
 7559WAT     H122919   6.547   2.758   7.943
 7559WAT     H222920   6.646   2.835   7.838
 7560WAT      O22921   6.707   2.395   2.446
 7560WAT     H122922   6.627   2.448   2.417
 7560WAT     H222923   6.768   2.453   2.499
 7561WAT      O22924   6.962   1.990   7.653
 7561WAT     H122925   6.976   1.900   7.611
 7561WAT     H222926   6.866   1.999   7.681
 7562WAT      O22927   3.924   8.567   1.825
 7562WAT     H122928   3.925   8.591   1.728
 7562WAT     H222929   3.943   8.469   1.834
 7563WAT      O22930   3.573   5.860   5.749
 7563WAT     H122931   3.663   5.893   5.778
 7563WAT     H222932   3.549   5.900   5.661
 7564WAT      O22933   0.708   4.176   8.261
 7564WAT     H122934   0.802   4.141   8.263
 7564WAT     H222935   0.699   4.243   8.188
 7565WAT      O22936   0.418   2.582   4.809
 7565WAT     H122937   0.501   2.576   4.864
 7565WAT     H222938   0.346   2.525   4.850
 7566WAT      O22939   1.138   8.780   8.626
 7566WAT     H122940   1.175   8.863   8.668
 7566WAT     H222941   1.119   8.712   8.697
 7567WAT      O22942   8.029   6.545   8.952
 7567WAT     H122943   7.959   6.488   8.909
 7567WAT     H222944   8.092   6.487   9.003
 7568WAT      O22945   3.871   1.553   8.001
 7568WAT     H122946   3.849   1.632   8.058
 7568WAT     H222947   3.879   1.582   7.906
 7569WAT      O22948   7.591   8.919   2.570
 7569WAT     H122949   7.677   8.971   2.570
 7569WAT     H222950   7.576   8.881   2.662
 7570WAT      O22951   2.761   0.248   4.518
 7570WAT     H122952   2.700   0.305   4.573
 7570WAT     H222953   2.807   0.181   4.576
 7571WAT      O22954   4.739   7.086   2.397
 7571WAT     H122955   4.675   7.149   2.353
 7571WAT     H222956   4.689   7.022   2.455
 7572WAT      O22957   8.576   3.964   1.496
 7572WAT     H122958   8.559   3.903   1.574
 7572WAT     H222959   8.646   3.924   1.437
 7573WAT      O22960   6.288   1.952   8.755
 7573WAT     H122961   6.277   2.051   8.748
 7573WAT     H222962   6.372   1.931   8.805
 7574WAT      O22963   5.803   6.399   6.369
 7574WAT     H122964   5.722   6.454   6.350
 7574WAT     H222965   5.806   6.376   6.467
 7575WAT      O22966   2.375   6.903   9.722
 7575WAT     H122967   2.425   6.874   9.803
 7575WAT     H222968   2.397   6.842   9.645
 7576WAT      O22969   9.533   1.837   9.085
 7576WAT     H122970   9.581   1.865   9.168
 7576WAT     H222971   9.442   1.803   9.110
 7577WAT      O22972   6.660   5.214   4.215
 7577WAT     H122973   6.736   5.159   4.181
 7577WAT     H222974   6.588   5.218   4.145
 7578WAT      O22975   0.215   0.629   6.841
 7578WAT     H122976   0.206   0.720   6.800
 7578WAT     H222977   0.132   0.607   6.893
 7579WAT      O22978   9.411   8.432   6.247
 7579WAT     H122979   9.426   8.426   6.148
 7579WAT     H222980   9.315   8.417   6.268
 7580WAT      O22981   4.638   5.008   8.504
 7580WAT     H122982   4.671   4.958   8.424
 7580WAT     H222983   4.543   4.983   8.522
 7581WAT      O22984   0.139   6.874   5.821
 7581WAT     H122985   0.048   6.848   5.791
 7581WAT     H222986   0.193   6.906   5.743
 7582WAT      O22987   9.015   8.837   4.292
 7582WAT     H122988   9.010   8.747   4.249
 7582WAT     H222989   9.022   8.827   4.391
 7583WAT      O22990   8.131   0.230   8.327
 7583WAT     H122991   8.170   0.312   8.284
 7583WAT     H222992   8.167   0.222   8.420
 7584WAT      O22993   0.132   6.170   0.383
 7584WAT     H122994   0.086   6.082   0.393
 7584WAT     H222995   0.178   6.174   0.294
 7585WAT      O22996   7.937   0.777   6.169
 7585WAT     H122997   7.977   0.685   6.171
 7585WAT     H222998   7.891   0.790   6.081
 7586WAT      O22999   2.755   3.593   1.691
 7586WAT     H123000   2.785   3.498   1.691
 7586WAT     H223001   2.740   3.623   1.786
 7587WAT      O23002   5.826   8.626   1.710
 7587WAT     H123003   5.768   8.666   1.782
 7587WAT     H223004   5.868   8.542   1.744
 7588WAT      O23005   1.735   9.577   8.632
 7588WAT     H123006   1.635   9.569   8.632
 7588WAT     H223007   1.765   9.621   8.547
 7589WAT      O23008   6.942   1.034   0.662
 7589WAT     H123009   6.915   1.013   0.756
 7589WAT     H223010   7.039   1.058   0.660
 7590WAT      O23011   8.843   9.782   8.681
 7590WAT     H123012   8.855   9.686   8.708
 7590WAT     H223013   8.931   9.820   8.654
 7591WAT      O23014   1.024   3.131   9.298
 7591WAT     H123015   1.103   3.132   9.359
 7591WAT     H223016   0.955   3.067   9.333
 7592WAT      O23017   8.017   4.269   7.679
 7592WAT     H123018   7.975   4.310   7.598
 7592WAT     H223019   8.101   4.222   7.652
 7593WAT      O23020   0.706   6.941   6.448
 7593WAT     H123021   0.719   7.006   6.522
 7593WAT     H223022   0.782   6.949   6.384
 7594WAT      O23023   6.394   9.301   1.173
 7594WAT     H123024   6.428   9.234   1.107
 7594WAT     H223025   6.369   9.255   1.258
 7595WAT      O23026   2.782   5.608   5.944
 7595WAT     H123027   2.855   5.557   5.989
 7595WAT     H223028   2.702   5.550   5.931
 7596WAT      O23029   0.248   6.568   2.677
 7596WAT     H123030   0.334   6.516   2.673
 7596WAT     H223031   0.201   6.559   2.589
 7597WAT      O23032   5.814   5.832   7.734
 7597WAT     H123033   5.756   5.902   7.693
 7597WAT     H223034   5.905   5.836   7.694
 7598WAT      O23035   1.597   2.645   8.852
 7598WAT     H123036   1.570   2.652   8.948
 7598WAT     H223037   1.562   2.723   8.802
 7599WAT      O23038   0.360   1.590   7.816
 7599WAT     H123039   0.404   1.584   7.905
 7599WAT     H223040   0.402   1.664   7.763
 7600WAT      O23041   0.605   3.495   6.638
 7600WAT     H123042   0.691   3.445   6.646
 7600WAT     H223043   0.567   3.511   6.730
 7601WAT      O23044   9.214   1.284   1.276
 7601WAT     H123045   9.285   1.344   1.238
 7601WAT     H223046   9.127   1.301   1.229
 7602WAT      O23047   2.072   5.891   0.174
 7602WAT     H123048   2.165   5.907   0.206
 7602WAT     H223049   2.018   5.975   0.186
 7603WAT      O23050   8.403   4.357   5.474
 7603WAT     H123051   8.430   4.397   5.387
 7603WAT     H223052   8.351   4.425   5.527
 7604WAT      O23053   7.566   9.751   3.127
 7604WAT     H123054   7.477   9.745   3.173
 7604WAT     H223055   7.564   9.823   3.058
 7605WAT      O23056   8.903   3.834   3.005
 7605WAT     H123057   8.943   3.793   3.087
 7605WAT     H223058   8.891   3.932   3.019
 7606WAT      O23059   5.946   2.369   4.409
 7606WAT     H123060   5.953   2.279   4.452
 7606WAT     H223061   6.032   2.391   4.364
 7607WAT      O23062   7.219   1.151   2.075
 7607WAT     H123063   7.243   1.092   2.152
 7607WAT     H223064   7.131   1.194   2.093
 7608WAT      O23065   3.897   3.484   6.374
 7608WAT     H123066   3.956   3.551   6.419
 7608WAT     H223067   3.922   3.392   6.404
 7609WAT      O23068   5.191   3.151   1.372
 7609WAT     H123069   5.091   3.141   1.374
 7609WAT     H223070   5.232   3.086   1.436
 7610WAT      O23071   5.851   0.748   5.035
 7610WAT     H123072   5.858   0.738   5.135
 7610WAT     H223073   5.842   0.845   5.012
 7611WAT      O23074   5.908   4.891   0.012
 7611WAT     H123075   5.985   4.949  -0.015
 7611WAT     H223076   5.858   4.935   0.086
 7612WAT      O23077   3.072   1.789   8.243
 7612WAT     H123078   3.138   1.837   8.300
 7612WAT     H223079   3.120   1.728   8.180
 7613WAT      O23080   0.694   6.430   2.659
 7613WAT     H123081   0.609   6.383   2.635
 7613WAT     H223082   0.673   6.518   2.701
 7614WAT      O23083   5.793   2.519   5.365
 7614WAT     H123084   5.815   2.519   5.267
 7614WAT     H223085   5.699   2.550   5.378
 7615WAT      O23086   8.393   8.106   2.018
 7615WAT     H123087   8.393   8.070   2.112
 7615WAT     H223088   8.475   8.074   1.971
 7616WAT      O23089   3.038   6.734   4.858
 7616WAT     H123090   3.044   6.712   4.956
 7616WAT     H223091   3.113   6.690   4.809
 7617WAT      O23092   2.383   1.448   7.929
 7617WAT     H123093   2.370   1.457   7.831
 7617WAT     H223094   2.439   1.367   7.948
 7618WAT      O23095   1.913   1.065   5.097
 7618WAT     H123096   1.815   1.079   5.116
 7618WAT     H223097   1.944   0.984   5.146
 7619WAT      O23098   4.758   0.601   8.433
 7619WAT     H123099   4.759   0.644   8.343
 7619WAT     H223100   4.692   0.525   8.432
 7620WAT      O23101   2.485   7.382   5.477
 7620WAT     H123102   2.529   7.459   5.429
 7620WAT     H223103   2.449   7.415   5.564
 7621WAT      O23104   9.430   6.665   1.023
 7621WAT     H123105   9.348   6.608   1.015
 7621WAT     H223106   9.500   6.631   0.961
 7622WAT      O23107   1.286   5.735   1.665
 7622WAT     H123108   1.224   5.665   1.700
 7622WAT     H223109   1.249   5.826   1.684
 7623WAT      O23110   4.201   1.461   2.945
 7623WAT     H123111   4.281   1.466   3.004
 7623WAT     H223112   4.176   1.553   2.914
 7624WAT      O23113   1.063   3.382   0.912
 7624WAT     H123114   1.104   3.446   0.847
 7624WAT     H223115   1.112   3.386   0.998
 7625WAT      O23116   4.849   6.561   5.665
 7625WAT     H123117   4.760   6.586   5.628
 7625WAT     H223118   4.897   6.643   5.696
 7626WAT      O23119   7.605   0.608   5.320
 7626WAT     H123120   7.539   0.632   5.249
 7626WAT     H223121   7.586   0.516   5.354
 7627WAT      O23122   6.646   9.781   8.497
 7627WAT     H123123   6.609   9.759   8.407
 7627WAT     H223124   6.635   9.879   8.515
 7628WAT      O23125   7.477   4.563   5.622
 7628WAT     H123126   7.545   4.545   5.551
 7628WAT     H223127   7.407   4.492   5.619
 7629WAT      O23128   4.763   1.358   5.142
 7629WAT     H123129   4.796   1.340   5.049
 7629WAT     H223130   4.665   1.378   5.138
 7630WAT      O23131   6.890   6.879   2.899
 7630WAT     H123132   6.942   6.953   2.855
 7630WAT     H223133   6.810   6.857   2.843
 7631WAT      O23134   6.509   8.559   1.077
 7631WAT     H123135   6.475   8.469   1.105
 7631WAT     H223136   6.543   8.554   0.983
 7632WAT      O23137   5.281   0.480   5.663
 7632WAT     H123138   5.224   0.540   5.607
 7632WAT     H223139   5.226   0.405   5.700
 7633WAT      O23140   1.774   4.307   5.564
 7633WAT     H123141   1.858   4.268   5.528
 7633WAT     H223142   1.701   4.238   5.561
 7634WAT      O23143   7.730   1.004   4.363
 7634WAT     H123144   7.761   0.944   4.289
 7634WAT     H223145   7.682   0.950   4.432
 7635WAT      O23146   6.619   1.148   6.877
 7635WAT     H123147   6.533   1.124   6.831
 7635WAT     H223148   6.598   1.183   6.968
 7636WAT      O23149   3.030   9.397   7.824
 7636WAT     H123150   3.093   9.474   7.824
 7636WAT     H223151   2.942   9.425   7.862
 7637WAT      O23152   4.721   2.579   5.057
 7637WAT     H123153   4.651   2.610   4.992
 7637WAT     H223154   4.712   2.480   5.070
 7638WAT      O23155   7.498   2.915   5.375
 7638WAT     H123156   7.512   2.850   5.450
 7638WAT     H223157   7.438   2.873   5.307
 7639WAT      O23158   2.487   9.710   8.139
 7639WAT     H123159   2.537   9.794   8.117
 7639WAT     H223160   2.455   9.714   8.233
 7640WAT      O23161   6.526   5.488   9.272
 7640WAT     H123162   6.570   5.576   9.286
 7640WAT     H223163   6.427   5.498   9.275
 7641WAT      O23164   7.178   2.863   5.763
 7641WAT     H123165   7.277   2.870   5.747
 7641WAT     H223166   7.137   2.954   5.760
 7642WAT      O23167   8.313   0.955   6.554
 7642WAT     H123168   8.365   0.896   6.616
 7642WAT     H223169   8.275   1.032   6.606
 7643WAT      O23170   4.865   8.495   2.682
 7643WAT     H123171   4.915   8.480   2.767
 7643WAT     H223172   4.859   8.409   2.631
 7644WAT      O23173   8.368   7.014   1.695
 7644WAT     H123174   8.338   7.106   1.721
 7644WAT     H223175   8.435   6.981   1.760
 7645WAT      O23176   7.700   7.213   5.424
 7645WAT     H123177   7.603   7.221   5.444
 7645WAT     H223178   7.727   7.284   5.360
 7646WAT      O23179   0.017   0.291   1.349
 7646WAT     H123180  -0.002   0.205   1.301
 7646WAT     H223181   0.060   0.355   1.286
 7647WAT      O23182   3.162   9.609   6.335
 7647WAT     H123183   3.160   9.607   6.235
 7647WAT     H223184   3.139   9.701   6.367
 7648WAT      O23185   3.253   1.722   4.526
 7648WAT     H123186   3.280   1.628   4.549
 7648WAT     H223187   3.180   1.719   4.457
 7649WAT      O23188   7.551   1.776   0.330
 7649WAT     H123189   7.630   1.736   0.284
 7649WAT     H223190   7.572   1.871   0.355
 7650WAT      O23191   2.783   2.129   9.645
 7650WAT     H123192   2.722   2.208   9.653
 7650WAT     H223193   2.855   2.149   9.578
 7651WAT      O23194   5.159   6.046   3.303
 7651WAT     H123195   5.248   6.041   3.349
 7651WAT     H223196   5.145   5.963   3.249
 7652WAT      O23197   7.299   9.229   6.026
 7652WAT     H123198   7.246   9.188   5.952
 7652WAT     H223199   7.269   9.191   6.114
 7653WAT      O23200   7.885   7.416   7.458
 7653WAT     H123201   7.919   7.503   7.494
 7653WAT     H223202   7.792   7.427   7.424
 7654WAT      O23203   9.640   8.856   3.482
 7654WAT     H123204   9.679   8.894   3.566
 7654WAT     H223205   9.551   8.899   3.464
 7655WAT      O23206   2.343   1.309   8.700
 7655WAT     H123207   2.306   1.370   8.631
 7655WAT     H223208   2.396   1.236   8.655
 7656WAT      O23209   0.061   2.561   9.138
 7656WAT     H123210  -0.032   2.541   9.108
 7656WAT     H223211   0.087   2.653   9.109
 7657WAT      O23212   1.102   0.651   1.366
 7657WAT     H123213   1.044   0.714   1.417
 7657WAT     H223214   1.080   0.557   1.392
 7658WAT      O23215   5.576   9.469   9.828
 7658WAT     H123216   5.648   9.522   9.873
 7658WAT     H223217   5.562   9.506   9.735
 7659WAT      O23218   0.320   2.919   3.787
 7659WAT     H123219   0.288   3.008   3.819
 7659WAT     H223220   0.386   2.931   3.713
 7660WAT      O23221   8.807   2.634   3.026
 7660WAT     H123222   8.735   2.695   3.058
 7660WAT     H223223   8.801   2.624   2.927
 7661WAT      O23224   2.987   4.867   4.800
 7661WAT     H123225   2.948   4.780   4.770
 7661WAT     H223226   3.074   4.882   4.753
 7662WAT      O23227   3.046   7.342   0.636
 7662WAT     H123228   2.947   7.336   0.622
 7662WAT     H223229   3.074   7.438   0.635
 7663WAT      O23230   2.904   2.710   9.396
 7663WAT     H123231   2.872   2.734   9.305
 7663WAT     H223232   2.999   2.739   9.407
 7664WAT      O23233   8.361   6.327   8.895
 7664WAT     H123234   8.290   6.377   8.846
 7664WAT     H223235   8.324   6.240   8.927
 7665WAT      O23236   0.091   9.003   1.038
 7665WAT     H123237   0.083   8.971   0.944
 7665WAT     H223238  -0.000   9.006   1.080
 7666WAT      O23239   9.147   8.216   9.271
 7666WAT     H123240   9.095   8.277   9.330
 7666WAT     H223241   9.087   8.144   9.236
 7667WAT      O23242   8.583   6.913   2.472
 7667WAT     H123243   8.518   6.912   2.549
 7667WAT     H223244   8.611   7.007   2.454
 7668WAT      O23245   2.467   7.373   2.431
 7668WAT     H123246   2.454   7.368   2.530
 7668WAT     H223247   2.442   7.464   2.398
 7669WAT      O23248   6.961   9.715   9.599
 7669WAT     H123249   7.058   9.737   9.588
 7669WAT     H223250   6.948   9.616   9.598
 7670WAT      O23251   8.925   7.595   9.551
 7670WAT     H123252   8.963   7.591   9.644
 7670WAT     H223253   8.880   7.509   9.530
 7671WAT      O23254   2.567   7.779   8.273
 7671WAT     H123255   2.568   7.786   8.373
 7671WAT     H223256   2.661   7.780   8.238
 7672WAT      O23257   0.989   2.695   1.645
 7672WAT     H123258   0.971   2.793   1.659
 7672WAT     H223259   0.977   2.647   1.732
 7673WAT      O23260   9.301   0.345   0.232
 7673WAT     H123261   9.230   0.355   0.163
 7673WAT     H223262   9.335   0.251   0.232
 7674WAT      O23263   7.213   7.697   8.016
 7674WAT     H123264   7.263   7.721   7.932
 7674WAT     H223265   7.173   7.606   8.005
 7675WAT      O23266   6.095   4.409   3.833
 7675WAT     H123267   6.026   4.407   3.761
 7675WAT     H223268   6.066   4.351   3.909
 7676WAT      O23269   5.688   9.464   5.688
 7676WAT     H123270   5.659   9.555   5.719
 7676WAT     H223271   5.638   9.441   5.605
 7677WAT      O23272   9.854   1.506   6.833
 7677WAT     H123273   9.945   1.474   6.809
 7677WAT     H223274   9.810   1.545   6.752
 7678WAT      O23275   1.184   5.993   9.758
 7678WAT     H123276   1.217   6.069   9.702
 7678WAT     H223277   1.133   5.929   9.700
 7679WAT      O23278   5.644   7.688   5.707
 7679WAT     H123279   5.642   7.780   5.746
 7679WAT     H223280   5.583   7.684   5.628
 7680WAT      O23281   8.276   1.269   1.933
 7680WAT     H123282   8.197   1.325   1.906
 7680WAT     H223283   8.330   1.247   1.852
 7681WAT      O23284   1.637   4.534   3.185
 7681WAT     H123285   1.627   4.467   3.112
 7681WAT     H223286   1.670   4.621   3.147
 7682WAT      O23287   6.650   6.869   0.943
 7682WAT     H123288   6.693   6.780   0.928
 7682WAT     H223289   6.651   6.891   1.040
 7683WAT      O23290   3.766   5.361   9.046
 7683WAT     H123291   3.813   5.350   8.958
 7683WAT     H223292   3.675   5.319   9.041
 7684WAT      O23293   6.822   7.475   2.139
 7684WAT     H123294   6.815   7.388   2.089
 7684WAT     H223295   6.840   7.549   2.075
 7685WAT      O23296   8.307   6.719   0.782
 7685WAT     H123297   8.223   6.720   0.729
 7685WAT     H223298   8.386   6.715   0.721
 7686WAT      O23299   9.456   8.945   0.857
 7686WAT     H123300   9.528   8.883   0.888
 7686WAT     H223301   9.378   8.939   0.919
 7687WAT      O23302   6.952   5.503   0.729
 7687WAT     H123303   6.952   5.407   0.759
 7687WAT     H223304   7.019   5.554   0.782
 7688WAT      O23305   1.813   7.120   4.364
 7688WAT     H123306   1.759   7.190   4.411
 7688WAT     H223307   1.820   7.144   4.267
 7689WAT      O23308   6.181   7.190   0.662
 7689WAT     H123309   6.092   7.236   0.665
 7689WAT     H223310   6.236   7.218   0.741
 7690WAT      O23311   5.424   8.785   3.128
 7690WAT     H123312   5.338   8.793   3.077
 7690WAT     H223313   5.405   8.790   3.226
 7691WAT      O23314   9.784   8.464   0.042
 7691WAT     H123315   9.877   8.428   0.057
 7691WAT     H223316   9.779   8.558   0.074
 7692WAT      O23317   6.926   9.335   6.349
 7692WAT     H123318   6.993   9.275   6.392
 7692WAT     H223319   6.936   9.330   6.250
 7693WAT      O23320   8.708   5.555   8.060
 7693WAT     H123321   8.723   5.549   7.961
 7693WAT     H223322   8.786   5.601   8.103
 7694WAT      O23323   2.493   3.561   7.124
 7694WAT     H123324   2.426   3.622   7.167
 7694WAT     H223325   2.582   3.572   7.169
 7695WAT      O23326   7.619   7.093   4.704
 7695WAT     H123327   7.698   7.098   4.765
 7695WAT     H223328   7.619   7.171   4.642
 7696WAT      O23329   8.591   6.294   9.421
 7696WAT     H123330   8.660   6.254   9.361
 7696WAT     H223331   8.522   6.225   9.442
 7697WAT      O23332   4.871   9.422   1.253
 7697WAT     H123333   4.808   9.349   1.281
 7697WAT     H223334   4.853   9.504   1.308
 7698WAT      O23335   9.005   0.999   1.810
 7698WAT     H123336   8.929   1.054   1.848
 7698WAT     H223337   9.053   1.053   1.741
 7699WAT      O23338   4.919   5.479   8.397
 7699WAT     H123339   4.959   5.395   8.434
 7699WAT     H223340   4.819   5.476   8.408
 7700WAT      O23341   1.510   7.838   2.945
 7700WAT     H123342   1.564   7.882   2.873
 7700WAT     H223343   1.569   7.778   2.999
 7701WAT      O23344   9.125   5.996   6.926
 7701WAT     H123345   9.081   6.082   6.902
 7701WAT     H223346   9.095   5.966   7.016
 7702WAT      O23347   5.981   4.850   5.036
 7702WAT     H123348   5.980   4.934   4.981
 7702WAT     H223349   6.069   4.843   5.084
 7703WAT      O23350   8.208   5.327   5.853
 7703WAT     H123351   8.302   5.293   5.856
 7703WAT     H223352   8.204   5.411   5.800
 7704WAT      O23353   8.380   3.072   2.560
 7704WAT     H123354   8.320   3.025   2.496
 7704WAT     H223355   8.332   3.149   2.602
 7705WAT      O23356   9.698   2.838   8.101
 7705WAT     H123357   9.603   2.806   8.104
 7705WAT     H223358   9.724   2.859   8.007
 7706WAT      O23359   1.319   9.214   5.064
 7706WAT     H123360   1.345   9.213   4.968
 7706WAT     H223361   1.278   9.126   5.088
 7707WAT      O23362   8.530   2.740   1.426
 7707WAT     H123363   8.449   2.755   1.371
 7707WAT     H223364   8.504   2.731   1.522
 7708WAT      O23365   2.912   7.270   4.656
 7708WAT     H123366   2.958   7.295   4.741
 7708WAT     H223367   2.919   7.345   4.590
 7709WAT      O23368   1.954   8.052   1.975
 7709WAT     H123369   1.937   7.958   1.944
 7709WAT     H223370   1.868   8.094   2.003
 7710WAT      O23371   9.858   7.362   2.150
 7710WAT     H123372   9.917   7.331   2.224
 7710WAT     H223373   9.914   7.405   2.079
 7711WAT      O23374   8.695   9.519   7.913
 7711WAT     H123375   8.624   9.523   7.843
 7711WAT     H223376   8.679   9.590   7.982
 7712WAT      O23377   0.788   2.387   7.855
 7712WAT     H123378   0.799   2.482   7.823
 7712WAT     H223379   0.858   2.366   7.923
 7713WAT      O23380   8.056   0.086   1.716
 7713WAT     H123381   8.060   0.051   1.623
 7713WAT     H223382   8.127   0.155   1.729
 7714WAT      O23383   2.828   5.855   7.599
 7714WAT     H123384   2.733   5.884   7.589
 7714WAT     H223385   2.852   5.848   7.696
 7715WAT      O23386   2.162   3.098   5.670
 7715WAT     H123387   2.089   3.133   5.729
 7715WAT     H223388   2.250   3.126   5.707
 7716WAT      O23389   8.581   7.790   7.622
 7716WAT     H123390   8.588   7.714   7.687
 7716WAT     H223391   8.618   7.873   7.664
 7717WAT      O23392   3.037   2.589   9.635
 7717WAT     H123393   2.982   2.601   9.553
 7717WAT     H223394   3.122   2.641   9.628
 7718WAT      O23395   1.625   9.336   8.108
 7718WAT     H123396   1.544   9.382   8.145
 7718WAT     H223397   1.633   9.245   8.148
 7719WAT      O23398   5.842   4.315   9.002
 7719WAT     H123399   5.747   4.283   9.000
 7719WAT     H223400   5.903   4.237   9.019
 7720WAT      O23401   2.977   8.154   5.000
 7720WAT     H123402   2.927   8.068   4.990
 7720WAT     H223403   3.074   8.135   5.008
 7721WAT      O23404   5.868   9.672   2.663
 7721WAT     H123405   5.856   9.632   2.754
 7721WAT     H223406   5.796   9.740   2.647
 7722WAT      O23407   9.536   3.838   9.049
 7722WAT     H123408   9.455   3.793   9.013
 7722WAT     H223409   9.553   3.807   9.143
 7723WAT      O23410   2.067   0.512   0.513
 7723WAT     H123411   2.121   0.428   0.520
 7723WAT     H223412   2.040   0.527   0.418
 7724WAT      O23413   1.039   1.013   4.322
 7724WAT     H123414   1.021   0.985   4.417
 7724WAT     H223415   1.076   0.935   4.271
 7725WAT      O23416   8.247   6.059   0.797
 7725WAT     H123417   8.297   6.051   0.883
 7725WAT     H223418   8.186   5.980   0.786
 7726WAT      O23419   6.238   1.419   6.505
 7726WAT     H123420   6.164   1.442   6.569
 7726WAT     H223421   6.215   1.454   6.414
 7727WAT      O23422   4.657   0.034   5.406
 7727WAT     H123423   4.669   0.021   5.308
 7727WAT     H223424   4.744   0.064   5.447
 7728WAT      O23425   4.861   8.577   5.849
 7728WAT     H123426   4.897   8.542   5.763
 7728WAT     H223427   4.927   8.561   5.922
 7729WAT      O23428   0.452   2.471   8.897
 7729WAT     H123429   0.414   2.428   8.816
 7729WAT     H223430   0.462   2.569   8.881
 7730WAT      O23431   7.490   4.426   9.506
 7730WAT     H123432   7.452   4.335   9.522
 7730WAT     H223433   7.442   4.493   9.562
 7731WAT      O23434   1.368   0.400   5.267
 7731WAT     H123435   1.380   0.499   5.275
 7731WAT     H223436   1.440   0.363   5.208
 7732WAT      O23437   7.347   1.970   5.887
 7732WAT     H123438   7.269   1.971   5.825
 7732WAT     H223439   7.325   1.917   5.969
 7733WAT      O23440   6.061   4.423   4.665
 7733WAT     H123441   6.133   4.481   4.702
 7733WAT     H223442   5.973   4.471   4.672
 7734WAT      O23443   6.981   4.751   8.888
 7734WAT     H123444   7.062   4.759   8.830
 7734WAT     H223445   7.001   4.691   8.966
 7735WAT      O23446   9.379   4.342   4.969
 7735WAT     H123447   9.342   4.369   4.880
 7735WAT     H223448   9.471   4.304   4.957
 7736WAT      O23449   5.632   6.469   1.477
 7736WAT     H123450   5.723   6.443   1.511
 7736WAT     H223451   5.570   6.482   1.554
 7737WAT      O23452   7.547   6.190   0.165
 7737WAT     H123453   7.450   6.168   0.159
 7737WAT     H223454   7.574   6.242   0.084
 7738WAT      O23455   6.320   0.109   2.488
 7738WAT     H123456   6.386   0.179   2.462
 7738WAT     H223457   6.232   0.151   2.507
 7739WAT      O23458   7.274   9.404   3.625
 7739WAT     H123459   7.192   9.384   3.573
 7739WAT     H223460   7.286   9.334   3.696
 7740WAT      O23461   2.587   5.241   3.079
 7740WAT     H123462   2.501   5.292   3.070
 7740WAT     H223463   2.613   5.204   2.990
 7741WAT      O23464   1.539   4.870   2.251
 7741WAT     H123465   1.578   4.945   2.197
 7741WAT     H223466   1.443   4.859   2.228
 7742WAT      O23467   8.649   0.976   1.555
 7742WAT     H123468   8.738   0.967   1.599
 7742WAT     H223469   8.595   0.893   1.573
 7743WAT      O23470   0.324   3.195   9.422
 7743WAT     H123471   0.278   3.231   9.503
 7743WAT     H223472   0.286   3.240   9.341
 7744WAT      O23473   4.205   2.076   7.068
 7744WAT     H123474   4.283   2.060   7.008
 7744WAT     H223475   4.236   2.080   7.163
 7745WAT      O23476   4.236   0.208   3.915
 7745WAT     H123477   4.138   0.188   3.917
 7745WAT     H223478   4.282   0.163   3.991
 7746WAT      O23479   5.959   4.335   2.574
 7746WAT     H123480   5.970   4.311   2.478
 7746WAT     H223481   5.904   4.418   2.582
 7747WAT      O23482   8.254   8.620   7.869
 7747WAT     H123483   8.302   8.542   7.828
 7747WAT     H223484   8.322   8.685   7.904
 7748WAT      O23485   5.845   8.315   3.294
 7748WAT     H123486   5.905   8.336   3.216
 7748WAT     H223487   5.893   8.253   3.356
 7749WAT      O23488   0.257   4.709   3.272
 7749WAT     H123489   0.345   4.665   3.253
 7749WAT     H223490   0.186   4.638   3.281
 7750WAT      O23491   5.826   0.880   3.023
 7750WAT     H123492   5.892   0.912   2.955
 7750WAT     H223493   5.860   0.900   3.114
 7751WAT      O23494   1.095   8.627   4.886
 7751WAT     H123495   1.179   8.572   4.883
 7751WAT     H223496   1.020   8.570   4.921
 7752WAT      O23497   4.730   5.065   9.188
 7752WAT     H123498   4.683   5.145   9.226
 7752WAT     H223499   4.766   5.087   9.098
 7753WAT      O23500   2.506   1.067   7.632
 7753WAT     H123501   2.526   1.076   7.729
 7753WAT     H223502   2.407   1.068   7.617
 7754WAT      O23503   5.633   9.498   4.467
 7754WAT     H123504   5.729   9.496   4.493
 7754WAT     H223505   5.600   9.592   4.467
 7755WAT      O23506   5.483   5.171   1.475
 7755WAT     H123507   5.431   5.123   1.546
 7755WAT     H223508   5.485   5.269   1.497
 7756WAT      O23509   6.279   3.660   1.603
 7756WAT     H123510   6.253   3.678   1.697
 7756WAT     H223511   6.261   3.741   1.547
 7757WAT      O23512   5.355   3.275   5.714
 7757WAT     H123513   5.357   3.238   5.622
 7757WAT     H223514   5.321   3.369   5.712
 7758WAT      O23515   8.331   9.043   2.382
 7758WAT     H123516   8.262   9.028   2.311
 7758WAT     H223517   8.362   8.954   2.418
 7759WAT      O23518   7.373   2.965   9.242
 7759WAT     H123519   7.315   2.893   9.280
 7759WAT     H223520   7.468   2.950   9.269
 7760WAT      O23521   0.976   9.551   0.973
 7760WAT     H123522   0.892   9.588   1.011
 7760WAT     H223523   0.980   9.453   0.991
 7761WAT      O23524   9.641   7.774   9.786
 7761WAT     H123525   9.560   7.814   9.827
 7761WAT     H223526   9.623   7.678   9.763
 7762WAT      O23527   5.311   3.539   6.457
 7762WAT     H123528   5.309   3.631   6.495
 7762WAT     H223529   5.230   3.526   6.399
 7763WAT      O23530   9.512   3.651   6.725
 7763WAT     H123531   9.439   3.598   6.769
 7763WAT     H223532   9.472   3.713   6.658
 7764WAT      O23533   6.277   3.006   6.644
 7764WAT     H123534   6.181   2.985   6.665
 7764WAT     H223535   6.336   2.947   6.698
 7765WAT      O23536   3.059   9.347   7.564
 7765WAT     H123537   3.020   9.265   7.524
 7765WAT     H223538   3.034   9.352   7.661
 7766WAT      O23539   5.406   6.613   8.899
 7766WAT     H123540   5.500   6.642   8.883
 7766WAT     H223541   5.353   6.623   8.814
 7767WAT      O23542   7.931   5.861   8.526
 7767WAT     H123543   7.937   5.961   8.529
 7767WAT     H223544   7.847   5.831   8.571
 7768WAT      O23545   6.801   7.340   5.717
 7768WAT     H123546   6.764   7.309   5.804
 7768WAT     H223547   6.900   7.323   5.715
 7769WAT      O23548   4.018   3.971   5.517
 7769WAT     H123549   3.988   4.037   5.448
 7769WAT     H223550   3.945   3.905   5.533
 7770WAT      O23551   4.808   3.821   2.225
 7770WAT     H123552   4.811   3.741   2.285
 7770WAT     H223553   4.874   3.809   2.151
 7771WAT      O23554   9.784   9.548   9.458
 7771WAT     H123555   9.879   9.540   9.488
 7771WAT     H223556   9.758   9.466   9.407
 7772WAT      O23557   6.785   5.303   4.574
 7772WAT     H123558   6.794   5.377   4.507
 7772WAT     H223559   6.876   5.265   4.594
 7773WAT      O23560   7.860   4.992   0.404
 7773WAT     H123561   7.851   4.993   0.304
 7773WAT     H223562   7.957   4.989   0.429
 7774WAT      O23563   8.506   2.889   4.107
 7774WAT     H123564   8.569   2.955   4.148
 7774WAT     H223565   8.413   2.911   4.134
 7775WAT      O23566   8.485   8.064   5.754
 7775WAT     H123567   8.513   8.052   5.849
 7775WAT     H223568   8.398   8.018   5.739
 7776WAT      O23569   6.123   2.756   0.686
 7776WAT     H123570   6.079   2.843   0.709
 7776WAT     H223571   6.116   2.740   0.588
 7777WAT      O23572   6.177   6.272   2.818
 7777WAT     H123573   6.166   6.282   2.917
 7777WAT     H223574   6.255   6.214   2.798
 7778WAT      O23575   4.261   3.072   0.528
 7778WAT     H123576   4.320   3.074   0.447
 7778WAT     H223577   4.286   3.147   0.590
 7779WAT      O23578   1.589   0.161   8.318
 7779WAT     H123579   1.591   0.235   8.251
 7779WAT     H223580   1.646   0.186   8.397
 7780WAT      O23581   5.418   2.482   9.782
 7780WAT     H123582   5.444   2.521   9.870
 7780WAT     H223583   5.371   2.395   9.796
 7781WAT      O23584   4.642   8.236   3.948
 7781WAT     H123585   4.552   8.266   3.917
 7781WAT     H223586   4.712   8.277   3.889
 7782WAT      O23587   6.953   5.454   0.479
 7782WAT     H123588   7.043   5.433   0.440
 7782WAT     H223589   6.963   5.481   0.575
 7783WAT      O23590   3.898   2.812   5.721
 7783WAT     H123591   3.813   2.853   5.688
 7783WAT     H223592   3.880   2.720   5.756
 7784WAT      O23593   0.924   4.082   0.900
 7784WAT     H123594   0.999   4.113   0.841
 7784WAT     H223595   0.962   4.041   0.983
 7785WAT      O23596   0.701   8.861   7.108
 7785WAT     H123597   0.761   8.822   7.037
 7785WAT     H223598   0.702   8.802   7.188
 7786WAT      O23599   1.572   1.437   5.571
 7786WAT     H123600   1.506   1.495   5.524
 7786WAT     H223601   1.524   1.370   5.627
 7787WAT      O23602   1.238   1.172   1.654
 7787WAT     H123603   1.163   1.226   1.616
 7787WAT     H223604   1.305   1.154   1.582
 7788WAT      O23605   9.160   5.174   3.140
 7788WAT     H123606   9.187   5.123   3.059
 7788WAT     H223607   9.096   5.246   3.114
 7789WAT      O23608   6.170   2.171   3.315
 7789WAT     H123609   6.102   2.244   3.324
 7789WAT     H223610   6.216   2.158   3.403
 7790WAT      O23611   2.007   1.314   3.941
 7790WAT     H123612   2.047   1.224   3.924
 7790WAT     H223613   1.909   1.310   3.923
 7791WAT      O23614   0.010   1.617   5.647
 7791WAT     H123615  -0.053   1.560   5.700
 7791WAT     H223616   0.102   1.609   5.684
 7792WAT      O23617   8.068   8.420   8.762
 7792WAT     H123618   7.976   8.436   8.726
 7792WAT     H223619   8.125   8.377   8.691
 7793WAT      O23620   4.780   4.993   5.376
 7793WAT     H123621   4.831   5.078   5.372
 7793WAT     H223622   4.809   4.932   5.302
 7794WAT      O23623   1.202   5.337   9.423
 7794WAT     H123624   1.299   5.326   9.400
 7794WAT     H223625   1.188   5.313   9.519
 7795WAT      O23626   6.171   9.530   0.497
 7795WAT     H123627   6.219   9.461   0.551
 7795WAT     H223628   6.129   9.597   0.558
 7796WAT      O23629   6.044   0.141   0.845
 7796WAT     H123630   6.109   0.195   0.898
 7796WAT     H223631   5.987   0.088   0.907
 7797WAT      O23632   9.627   2.544   8.810
 7797WAT     H123633   9.652   2.541   8.907
 7797WAT     H223634   9.547   2.486   8.795
 7798WAT      O23635   8.418   4.404   6.272
 7798WAT     H123636   8.396   4.372   6.364
 7798WAT     H223637   8.334   4.413   6.219
 7799WAT      O23638   3.674   8.236   8.888
 7799WAT     H123639   3.771   8.227   8.909
 7799WAT     H223640   3.664   8.275   8.796
 7800WAT      O23641   6.623   2.350   9.429
 7800WAT     H123642   6.540   2.403   9.444
 7800WAT     H223643   6.620   2.308   9.337
 7801WAT      O23644   8.539   4.241   3.576
 7801WAT     H123645   8.564   4.222   3.671
 7801WAT     H223646   8.621   4.266   3.524
 7802WAT      O23647   3.417   6.738   5.159
 7802WAT     H123648   3.398   6.711   5.065
 7802WAT     H223649   3.350   6.696   5.220
 7803WAT      O23650   0.464   4.674   6.659
 7803WAT     H123651   0.444   4.764   6.698
 7803WAT     H223652   0.548   4.680   6.605
 7804WAT      O23653   6.377   7.615   6.709
 7804WAT     H123654   6.443   7.654   6.645
 7804WAT     H223655   6.354   7.522   6.680
 7805WAT      O23656   2.559   9.717   1.369
 7805WAT     H123657   2.521   9.774   1.441
 7805WAT     H223658   2.621   9.649   1.409
 7806WAT      O23659   5.387   6.116   8.995
 7806WAT     H123660   5.366   6.075   8.906
 7806WAT     H223661   5.347   6.208   9.000
 7807WAT      O23662   9.042   5.217   4.656
 7807WAT     H123663   8.945   5.197   4.669
 7807WAT     H223664   9.076   5.165   4.577
 7808WAT      O23665   0.148   4.770   5.029
 7808WAT     H123666   0.173   4.685   4.983
 7808WAT     H223667   0.211   4.787   5.104
 7809WAT      O23668   5.503   0.186   7.934
 7809WAT     H123669   5.510   0.262   7.870
 7809WAT     H223670   5.423   0.199   7.992
 7810WAT      O23671   7.788   3.178   3.958
 7810WAT     H123672   7.704   3.215   3.918
 7810WAT     H223673   7.818   3.098   3.904
 7811WAT      O23674   2.220   4.759   1.832
 7811WAT     H123675   2.209   4.770   1.930
 7811WAT     H223676   2.192   4.666   1.806
 7812WAT      O23677   9.177   4.983   8.944
 7812WAT     H123678   9.156   5.080   8.950
 7812WAT     H223679   9.158   4.950   8.852
 7813WAT      O23680   5.732   2.701   5.968
 7813WAT     H123681   5.702   2.642   5.892
 7813WAT     H223682   5.800   2.766   5.934
 7814WAT      O23683   4.989   6.934   6.082
 7814WAT     H123684   5.086   6.944   6.064
 7814WAT     H223685   4.947   7.023   6.096
 7815WAT      O23686   0.999   1.781   2.656
 7815WAT     H123687   1.094   1.798   2.682
 7815WAT     H223688   0.972   1.848   2.586
 7816WAT      O23689   7.984   0.355   1.434
 7816WAT     H123690   7.887   0.337   1.424
 7816WAT     H223691   8.034   0.315   1.357
 7817WAT      O23692   8.633   6.143   1.715
 7817WAT     H123693   8.635   6.201   1.634
 7817WAT     H223694   8.548   6.157   1.765
 7818WAT      O23695   7.212   0.119   0.214
 7818WAT     H123696   7.220   0.139   0.116
 7818WAT     H223697   7.131   0.164   0.251
 7819WAT      O23698   6.856   0.064   8.206
 7819WAT     H123699   6.849   0.088   8.110
 7819WAT     H223700   6.847  -0.035   8.217
 7820WAT      O23701   2.277   3.875   6.458
 7820WAT     H123702   2.184   3.911   6.460
 7820WAT     H223703   2.274   3.780   6.426
 7821WAT      O23704   1.816   6.781   3.105
 7821WAT     H123705   1.812   6.708   3.037
 7821WAT     H223706   1.796   6.744   3.196
 7822WAT      O23707   9.078   9.595   2.224
 7822WAT     H123708   9.091   9.585   2.323
 7822WAT     H223709   9.121   9.518   2.177
 7823WAT      O23710   0.094   1.726   1.066
 7823WAT     H123711   0.093   1.627   1.079
 7823WAT     H223712   0.138   1.747   0.978
 7824WAT      O23713   2.240   8.162   2.046
 7824WAT     H123714   2.227   8.235   2.113
 7824WAT     H223715   2.159   8.103   2.044
 7825WAT      O23716   4.822   2.834   6.740
 7825WAT     H123717   4.866   2.897   6.804
 7825WAT     H223718   4.856   2.851   6.648
 7826WAT      O23719   6.416   9.615   8.621
 7826WAT     H123720   6.471   9.691   8.585
 7826WAT     H223721   6.376   9.565   8.544
 7827WAT      O23722   3.296   2.529   2.558
 7827WAT     H123723   3.293   2.600   2.488
 7827WAT     H223724   3.202   2.501   2.581
 7828WAT      O23725   0.523   7.444   0.520
 7828WAT     H123726   0.438   7.493   0.538
 7828WAT     H223727   0.601   7.504   0.539
 7829WAT      O23728   4.998   1.631   8.520
 7829WAT     H123729   5.033   1.542   8.493
 7829WAT     H223730   5.074   1.695   8.532
 7830WAT      O23731   2.373   5.409   3.083
 7830WAT     H123732   2.385   5.473   3.159
 7830WAT     H223733   2.284   5.425   3.040
 7831WAT      O23734   4.371   5.186   4.780
 7831WAT     H123735   4.286   5.203   4.830
 7831WAT     H223736   4.448   5.226   4.830
 7832WAT      O23737   8.980   5.082   6.235
 7832WAT     H123738   8.932   4.997   6.213
 7832WAT     H223739   8.965   5.104   6.331
 7833WAT      O23740   5.466   5.381   2.517
 7833WAT     H123741   5.564   5.402   2.517
 7833WAT     H223742   5.446   5.315   2.445
 7834WAT      O23743   7.690   2.704   1.829
 7834WAT     H123744   7.636   2.709   1.913
 7834WAT     H223745   7.737   2.616   1.825
 7835WAT      O23746   9.500   7.485   3.294
 7835WAT     H123747   9.517   7.400   3.245
 7835WAT     H223748   9.434   7.540   3.243
 7836WAT      O23749   1.471   0.228   6.570
 7836WAT     H123750   1.536   0.164   6.611
 7836WAT     H223751   1.488   0.234   6.472
 7837WAT      O23752   7.834   7.029   0.860
 7837WAT     H123753   7.895   6.975   0.919
 7837WAT     H223754   7.884   7.106   0.821
 7838WAT      O23755   7.936   4.986   2.600
 7838WAT     H123756   7.866   5.017   2.535
 7838WAT     H223757   7.972   5.064   2.651
 7839WAT      O23758   4.391   0.089   4.300
 7839WAT     H123759   4.428   0.021   4.363
 7839WAT     H223760   4.317   0.140   4.345
 7840WAT      O23761   7.010   0.466   2.505
 7840WAT     H123762   6.952   0.513   2.572
 7840WAT     H223763   7.104   0.499   2.513
 7841WAT      O23764   6.090   4.852   2.368
 7841WAT     H123765   6.014   4.857   2.434
 7841WAT     H223766   6.081   4.768   2.315
 7842WAT      O23767   9.757   2.711   4.343
 7842WAT     H123768   9.843   2.726   4.391
 7842WAT     H223769   9.684   2.765   4.387
 7843WAT      O23770   7.547   2.924   4.800
 7843WAT     H123771   7.487   2.976   4.862
 7843WAT     H223772   7.492   2.862   4.745
 7844WAT      O23773   1.752   9.640   5.348
 7844WAT     H123774   1.793   9.558   5.307
 7844WAT     H223775   1.780   9.721   5.296
 7845WAT      O23776   3.413   6.644   9.104
 7845WAT     H123777   3.474   6.580   9.057
 7845WAT     H223778   3.446   6.738   9.090
 7846WAT      O23779   3.442   6.814   5.847
 7846WAT     H123780   3.468   6.758   5.926
 7846WAT     H223781   3.342   6.817   5.841
 7847WAT      O23782   0.167   7.623   9.858
 7847WAT     H123783   0.090   7.686   9.867
 7847WAT     H223784   0.133   7.531   9.841
 7848WAT      O23785   5.919   5.817   0.141
 7848WAT     H123786   6.003   5.766   0.123
 7848WAT     H223787   5.897   5.811   0.238
 7849WAT      O23788   9.435   9.256   9.563
 7849WAT     H123789   9.488   9.177   9.532
 7849WAT     H223790   9.468   9.339   9.518
 7850WAT      O23791   1.705   1.199   2.753
 7850WAT     H123792   1.716   1.271   2.821
 7850WAT     H223793   1.795   1.162   2.727
 7851WAT      O23794   3.885   3.233   0.420
 7851WAT     H123795   3.786   3.222   0.421
 7851WAT     H223796   3.911   3.296   0.348
 7852WAT      O23797   4.523   2.819   3.708
 7852WAT     H123798   4.517   2.721   3.725
 7852WAT     H223799   4.595   2.859   3.765
 7853WAT      O23800   6.285   4.968   6.742
 7853WAT     H123801   6.349   4.891   6.745
 7853WAT     H223802   6.237   4.974   6.829
 7854WAT      O23803   5.056   5.839   5.683
 7854WAT     H123804   4.976   5.882   5.725
 7854WAT     H223805   5.137   5.861   5.737
 7855WAT      O23806   1.722   0.452   5.289
 7855WAT     H123807   1.818   0.474   5.276
 7855WAT     H223808   1.669   0.536   5.298
 7856WAT      O23809   3.376   7.522   5.247
 7856WAT     H123810   3.458   7.481   5.287
 7856WAT     H223811   3.299   7.512   5.311
 7857WAT      O23812   9.780   2.008   2.821
 7857WAT     H123813   9.761   1.922   2.775
 7857WAT     H223814   9.790   2.081   2.753
 7858WAT      O23815   4.780   5.809   5.502
 7858WAT     H123816   4.869   5.784   5.464
 7858WAT     H223817   4.721   5.728   5.504
 7859WAT      O23818   5.468   2.434   9.029
 7859WAT     H123819   5.480   2.520   8.980
 7859WAT     H223820   5.541   2.423   9.096
 7860WAT      O23821   3.877   1.090   8.057
 7860WAT     H123822   3.841   1.082   8.150
 7860WAT     H223823   3.977   1.102   8.062
 7861WAT      O23824   9.674   3.466   2.167
 7861WAT     H123825   9.582   3.471   2.207
 7861WAT     H223826   9.667   3.462   2.068
 7862WAT      O23827   9.858   8.525   0.846
 7862WAT     H123828   9.919   8.544   0.769
 7862WAT     H223829   9.842   8.426   0.852
 7863WAT      O23830   6.257   1.779   2.521
 7863WAT     H123831   6.336   1.776   2.581
 7863WAT     H223832   6.271   1.717   2.443
 7864WAT      O23833   6.021   3.283   4.014
 7864WAT     H123834   6.098   3.344   3.995
 7864WAT     H223835   5.973   3.314   4.096
 7865WAT      O23836   8.260   9.198   8.879
 7865WAT     H123837   8.232   9.161   8.791
 7865WAT     H223838   8.228   9.138   8.952
 7866WAT      O23839   4.628   2.801   2.345
 7866WAT     H123840   4.530   2.807   2.363
 7866WAT     H223841   4.643   2.772   2.251
 7867WAT      O23842   9.864   8.324   4.673
 7867WAT     H123843   9.834   8.338   4.579
 7867WAT     H223844   9.956   8.285   4.673
 7868WAT      O23845   4.655   5.051   0.342
 7868WAT     H123846   4.678   4.965   0.297
 7868WAT     H223847   4.699   5.054   0.432
 7869WAT      O23848   1.234   4.603   1.010
 7869WAT     H123849   1.305   4.570   0.948
 7869WAT     H223850   1.175   4.668   0.962
 7870WAT      O23851   3.868   6.051   7.800
 7870WAT     H123852   3.852   6.066   7.703
 7870WAT     H223853   3.965   6.032   7.815
 7871WAT      O23854   4.420   7.721   8.054
 7871WAT     H123855   4.344   7.734   7.990
 7871WAT     H223856   4.489   7.662   8.011
 7872WAT      O23857   9.810   3.097   3.853
 7872WAT     H123858   9.740   3.026   3.845
 7872WAT     H223859   9.779   3.169   3.916
 7873WAT      O23860   7.216   5.840   4.349
 7873WAT     H123861   7.296   5.780   4.340
 7873WAT     H223862   7.226   5.917   4.285
 7874WAT      O23863   8.317   3.085   5.665
 7874WAT     H123864   8.392   3.142   5.633
 7874WAT     H223865   8.264   3.052   5.587
 7875WAT      O23866   4.823   5.796   0.774
 7875WAT     H123867   4.832   5.857   0.695
 7875WAT     H223868   4.834   5.701   0.743
 7876WAT      O23869   9.175   1.432   8.793
 7876WAT     H123870   9.219   1.452   8.881
 7876WAT     H223871   9.163   1.334   8.784
 7877WAT      O23872   6.451   1.345   2.720
 7877WAT     H123873   6.366   1.352   2.772
 7877WAT     H223874   6.468   1.432   2.672
 7878WAT      O23875   6.571   6.965   7.258
 7878WAT     H123876   6.653   6.909   7.243
 7878WAT     H223877   6.583   7.054   7.213
 7879WAT      O23878   4.072   1.052   9.584
 7879WAT     H123879   3.978   1.078   9.560
 7879WAT     H223880   4.110   1.118   9.648
 7880WAT      O23881   4.012   3.045   5.003
 7880WAT     H123882   3.984   3.137   5.030
 7880WAT     H223883   3.989   3.030   4.907
 7881WAT      O23884   3.426   4.222   4.513
 7881WAT     H123885   3.373   4.255   4.434
 7881WAT     H223886   3.523   4.241   4.499
 7882WAT      O23887   9.117   3.034   0.139
 7882WAT     H123888   9.112   2.988   0.051
 7882WAT     H223889   9.071   2.979   0.209
 7883WAT      O23890   5.606   5.945   1.762
 7883WAT     H123891   5.637   5.855   1.795
 7883WAT     H223892   5.592   5.941   1.663
 7884WAT      O23893   0.337   8.542   5.452
 7884WAT     H123894   0.296   8.474   5.513
 7884WAT     H223895   0.405   8.595   5.504
 7885WAT      O23896   8.101   6.057   7.968
 7885WAT     H123897   8.136   5.964   7.959
 7885WAT     H223898   8.047   6.081   7.888
 7886WAT      O23899   0.701   9.438   9.529
 7886WAT     H123900   0.669   9.363   9.471
 7886WAT     H223901   0.625   9.471   9.586
 7887WAT      O23902   8.003   2.651   2.273
 7887WAT     H123903   8.012   2.713   2.195
 7887WAT     H223904   8.089   2.602   2.287
 7888WAT      O23905   0.657   7.983   0.451
 7888WAT     H123906   0.627   7.958   0.359
 7888WAT     H223907   0.583   7.968   0.516
 7889WAT      O23908   9.048   0.075   6.128
 7889WAT     H123909   9.137   0.110   6.100
 7889WAT     H223910   8.981   0.091   6.055
 7890WAT      O23911   8.471   6.046   7.794
 7890WAT     H123912   8.416   5.971   7.830
 7890WAT     H223913   8.559   6.011   7.762
 7891WAT      O23914   7.811   2.037   5.116
 7891WAT     H123915   7.834   2.039   5.019
 7891WAT     H223916   7.752   1.958   5.135
 7892WAT      O23917   1.340   4.088   8.017
 7892WAT     H123918   1.377   4.031   8.091
 7892WAT     H223919   1.245   4.111   8.038
 7893WAT      O23920   7.267   5.817   2.824
 7893WAT     H123921   7.352   5.765   2.814
 7893WAT     H223922   7.189   5.755   2.810
 7894WAT      O23923   7.303   4.882   2.108
 7894WAT     H123924   7.335   4.976   2.122
 7894WAT     H223925   7.362   4.819   2.158
 7895WAT      O23926   3.800   4.267   2.860
 7895WAT     H123927   3.709   4.269   2.817
 7895WAT     H223928   3.824   4.360   2.889
 7896WAT      O23929   8.461   3.769   4.718
 7896WAT     H123930   8.499   3.694   4.663
 7896WAT     H223931   8.422   3.838   4.657
 7897WAT      O23932   1.207   3.417   4.741
 7897WAT     H123933   1.293   3.462   4.715
 7897WAT     H223934   1.136   3.439   4.674
 7898WAT      O23935   0.589   2.756   7.440
 7898WAT     H123936   0.610   2.852   7.460
 7898WAT     H223937   0.562   2.709   7.524
 7899WAT      O23938   7.635   6.047   9.314
 7899WAT     H123939   7.702   6.024   9.384
 7899WAT     H223940   7.641   5.980   9.240
 7900WAT      O23941   3.398   3.224   0.811
 7900WAT     H123942   3.471   3.158   0.794
 7900WAT     H223943   3.368   3.217   0.906
 7901WAT      O23944   9.830   2.816   2.037
 7901WAT     H123945   9.823   2.727   2.083
 7901WAT     H223946   9.911   2.865   2.070
 7902WAT      O23947   6.233   5.782   1.315
 7902WAT     H123948   6.264   5.859   1.258
 7902WAT     H223949   6.306   5.714   1.321
 7903WAT      O23950   2.403   2.844   4.311
 7903WAT     H123951   2.492   2.885   4.289
 7903WAT     H223952   2.404   2.747   4.285
 7904WAT      O23953   5.257   3.257   1.754
 7904WAT     H123954   5.274   3.334   1.693
 7904WAT     H223955   5.337   3.243   1.813
 7905WAT      O23956   5.434   8.495   0.516
 7905WAT     H123957   5.335   8.508   0.511
 7905WAT     H223958   5.465   8.506   0.610
 7906WAT      O23959   6.310   1.025   4.889
 7906WAT     H123960   6.410   1.027   4.899
 7906WAT     H223961   6.281   0.934   4.859
 7907WAT      O23962   4.102   4.656   0.401
 7907WAT     H123963   4.076   4.740   0.353
 7907WAT     H223964   4.179   4.675   0.461
 7908WAT      O23965   8.887   7.310   6.176
 7908WAT     H123966   8.802   7.361   6.162
 7908WAT     H223967   8.952   7.367   6.227
 7909WAT      O23968   0.767   2.710   3.593
 7909WAT     H123969   0.698   2.783   3.596
 7909WAT     H223970   0.829   2.720   3.671
 7910WAT      O23971   3.476   9.148   0.953
 7910WAT     H123972   3.526   9.070   0.990
 7910WAT     H223973   3.381   9.122   0.935
 7911WAT      O23974   3.881   4.593   9.395
 7911WAT     H123975   3.859   4.524   9.326
 7911WAT     H223976   3.896   4.681   9.349
 7912WAT      O23977   9.080   4.887   7.391
 7912WAT     H123978   8.983   4.883   7.416
 7912WAT     H223979   9.134   4.844   7.463
 7913WAT      O23980   6.744   7.550   1.167
 7913WAT     H123981   6.728   7.618   1.096
 7913WAT     H223982   6.752   7.459   1.124
 7914WAT      O23983   6.922   1.139   2.148
 7914WAT     H123984   6.954   1.131   2.242
 7914WAT     H223985   6.830   1.100   2.140
 7915WAT      O23986   2.287   5.829   5.546
 7915WAT     H123987   2.364   5.797   5.492
 7915WAT     H223988   2.255   5.917   5.510
 7916WAT      O23989   3.436   5.619   6.694
 7916WAT     H123990   3.377   5.590   6.618
 7916WAT     H223991   3.502   5.547   6.713
 7917WAT      O23992   0.366   2.139   6.637
 7917WAT     H123993   0.309   2.095   6.706
 7917WAT     H223994   0.332   2.116   6.545
 7918WAT      O23995   3.711   8.990   0.025
 7918WAT     H123996   3.702   9.042   0.110
 7918WAT     H223997   3.677   9.045  -0.051
 7919WAT      O23998   0.805   6.072   4.894
 7919WAT     H123999   0.845   5.982   4.914
 7919WAT     H224000   0.832   6.100   4.802
 7920WAT      O24001   0.578   6.962   7.277
 7920WAT     H124002   0.530   6.957   7.189
 7920WAT     H224003   0.562   6.877   7.328
 7921WAT      O24004   3.986   1.209   7.096
 7921WAT     H124005   3.934   1.255   7.024
 7921WAT     H224006   3.929   1.137   7.137
 7922WAT      O24007   8.717   8.227   7.522
 7922WAT     H124008   8.811   8.239   7.554
 7922WAT     H224009   8.674   8.152   7.572
 7923WAT      O24010   4.589   0.134   7.606
 7923WAT     H124011   4.664   0.139   7.539
 7923WAT     H224012   4.599   0.050   7.660
 7924WAT      O24013   6.833   7.152   6.848
 7924WAT     H124014   6.738   7.184   6.837
 7924WAT     H224015   6.861   7.164   6.944
 7925WAT      O24016   6.123   5.177   7.112
 7925WAT     H124017   6.189   5.139   7.177
 7925WAT     H224018   6.166   5.248   7.057
 7926WAT      O24019   1.627   9.572   1.358
 7926WAT     H124020   1.564   9.559   1.282
 7926WAT     H224021   1.720   9.585   1.323
 7927WAT      O24022   2.118   7.309   3.328
 7927WAT     H124023   2.150   7.400   3.301
 7927WAT     H224024   2.189   7.241   3.310
 7928WAT      O24025   6.308   4.170   8.026
 7928WAT     H124026   6.295   4.248   7.964
 7928WAT     H224027   6.347   4.203   8.112
 7929WAT      O24028   9.419   3.396   7.769
 7929WAT     H124029   9.366   3.318   7.801
 7929WAT     H224030   9.400   3.475   7.827
 7930WAT      O24031   7.419   3.908   5.492
 7930WAT     H124032   7.351   3.871   5.428
 7930WAT     H224033   7.506   3.861   5.479
 7931WAT      O24034   0.551   0.761   1.831
 7931WAT     H124035   0.603   0.807   1.903
 7931WAT     H224036   0.608   0.691   1.789
 7932WAT      O24037   5.398   7.148   7.172
 7932WAT     H124038   5.439   7.181   7.087
 7932WAT     H224039   5.383   7.226   7.234
 7933WAT      O24040   4.589   0.710   2.516
 7933WAT     H124041   4.672   0.737   2.466
 7933WAT     H224042   4.611   0.636   2.580
 7934WAT      O24043   0.890   7.199   2.107
 7934WAT     H124044   0.825   7.256   2.056
 7934WAT     H224045   0.901   7.236   2.199
 7935WAT      O24046   1.420   9.457   8.923
 7935WAT     H124047   1.488   9.449   8.996
 7935WAT     H224048   1.375   9.547   8.930
 7936WAT      O24049   5.759   4.705   1.196
 7936WAT     H124050   5.854   4.674   1.208
 7936WAT     H224051   5.708   4.689   1.280
 7937WAT      O24052   2.804   0.595   3.333
 7937WAT     H124053   2.899   0.606   3.364
 7937WAT     H224054   2.742   0.607   3.410
 7938WAT      O24055   5.126   2.068   8.977
 7938WAT     H124056   5.120   1.995   9.045
 7938WAT     H224057   5.113   2.029   8.886
 7939WAT      O24058   8.794   3.601   5.050
 7939WAT     H124059   8.818   3.548   4.969
 7939WAT     H224060   8.726   3.551   5.104
 7940WAT      O24061   5.980   4.808   5.345
 7940WAT     H124062   5.966   4.896   5.300
 7940WAT     H224063   6.073   4.804   5.382
 7941WAT      O24064   8.711   7.959   5.551
 7941WAT     H124065   8.786   7.901   5.516
 7941WAT     H224066   8.739   8.055   5.547
 7942WAT      O24067   6.084   4.523   4.099
 7942WAT     H124068   6.118   4.430   4.112
 7942WAT     H224069   6.161   4.587   4.099
 7943WAT      O24070   9.690   6.493   0.419
 7943WAT     H124071   9.668   6.552   0.341
 7943WAT     H224072   9.777   6.522   0.458
 7944WAT      O24073   6.062   5.200   9.822
 7944WAT     H124074   6.003   5.208   9.741
 7944WAT     H224075   6.008   5.214   9.905
 7945WAT      O24076   9.108   9.033   4.104
 7945WAT     H124077   9.151   9.008   4.018
 7945WAT     H224078   9.088   8.949   4.156
 7946WAT      O24079   0.741   0.173   7.772
 7946WAT     H124080   0.686   0.254   7.794
 7946WAT     H224081   0.720   0.099   7.835
 7947WAT      O24082   3.540   8.683   1.970
 7947WAT     H124083   3.442   8.679   1.990
 7947WAT     H224084   3.553   8.716   1.876
 7948WAT      O24085   1.055   5.502   1.997
 7948WAT     H124086   1.028   5.507   1.901
 7948WAT     H224087   1.097   5.589   2.024
 7949WAT      O24088   6.097   2.034   1.190
 7949WAT     H124089   6.150   2.051   1.107
 7949WAT     H224090   6.147   1.969   1.248
 7950WAT      O24091   4.504   1.245   1.767
 7950WAT     H124092   4.419   1.294   1.788
 7950WAT     H224093   4.518   1.244   1.668
 7951WAT      O24094   6.222   1.638   5.107
 7951WAT     H124095   6.140   1.674   5.152
 7951WAT     H224096   6.204   1.630   5.008
 7952WAT      O24097   1.941   1.386   2.066
 7952WAT     H124098   2.016   1.432   2.018
 7952WAT     H224099   1.976   1.304   2.112
 7953WAT      O24100   4.871   6.888   1.960
 7953WAT     H124101   4.904   6.811   1.906
 7953WAT     H224102   4.792   6.929   1.915
 7954WAT      O24103   9.811   0.221   8.313
 7954WAT     H124104   9.783   0.264   8.399
 7954WAT     H224105   9.862   0.137   8.332
 7955WAT      O24106   4.801   5.020   0.594
 7955WAT     H124107   4.760   4.953   0.656
 7955WAT     H224108   4.819   5.105   0.644
 7956WAT      O24109   6.970   6.865   8.769
 7956WAT     H124110   6.929   6.929   8.704
 7956WAT     H224111   7.017   6.792   8.719
 7957WAT      O24112   8.895   5.201   5.316
 7957WAT     H124113   8.907   5.124   5.254
 7957WAT     H224114   8.983   5.247   5.330
 7958WAT      O24115   7.469   8.542   8.764
 7958WAT     H124116   7.451   8.624   8.817
 7958WAT     H224117   7.549   8.495   8.801
 7959WAT      O24118   5.204   9.545   2.083
 7959WAT     H124119   5.104   9.544   2.075
 7959WAT     H224120   5.245   9.509   1.999
 7960WAT      O24121   7.600   5.247   7.614
 7960WAT     H124122   7.665   5.178   7.581
 7960WAT     H224123   7.554   5.213   7.696
 7961WAT      O24124   4.775   0.618   1.621
 7961WAT     H124125   4.816   0.672   1.547
 7961WAT     H224126   4.843   0.606   1.694
 7962WAT      O24127   5.778   0.156   2.026
 7962WAT     H124128   5.718   0.202   1.960
 7962WAT     H224129   5.843   0.222   2.063
 7963WAT      O24130   7.039   4.629   0.927
 7963WAT     H124131   7.127   4.659   0.964
 7963WAT     H224132   7.053   4.554   0.863
 7964WAT      O24133   7.941   3.533   9.195
 7964WAT     H124134   7.913   3.614   9.247
 7964WAT     H224135   7.920   3.547   9.098
 7965WAT      O24136   1.682   5.560   5.949
 7965WAT     H124137   1.666   5.526   5.856
 7965WAT     H224138   1.764   5.616   5.951
 7966WAT      O24139   0.205   8.086   5.387
 7966WAT     H124140   0.273   8.159   5.387
 7966WAT     H224141   0.114   8.125   5.400
 7967WAT      O24142   4.684   1.141   7.788
 7967WAT     H124143   4.696   1.238   7.807
 7967WAT     H224144   4.739   1.115   7.710
 7968WAT      O24145   9.215   9.088   5.861
 7968WAT     H124146   9.295   9.042   5.822
 7968WAT     H224147   9.141   9.089   5.794
 7969WAT      O24148   4.184   8.767   2.788
 7969WAT     H124149   4.121   8.844   2.788
 7969WAT     H224150   4.224   8.756   2.879
 7970WAT      O24151   4.488   0.993   3.088
 7970WAT     H124152   4.395   1.026   3.107
 7970WAT     H224153   4.537   1.061   3.034
 7971WAT      O24154   9.536   0.582   7.215
 7971WAT     H124155   9.585   0.552   7.297
 7971WAT     H224156   9.529   0.506   7.151
 7972WAT      O24157   7.925   3.060   4.574
 7972WAT     H124158   7.962   3.125   4.507
 7972WAT     H224159   7.839   3.095   4.611
 7973WAT      O24160   6.562   1.197   9.498
 7973WAT     H124161   6.657   1.190   9.469
 7973WAT     H224162   6.558   1.227   9.593
 7974WAT      O24163   3.749   7.469   6.109
 7974WAT     H124164   3.666   7.412   6.102
 7974WAT     H224165   3.769   7.487   6.205
 7975WAT      O24166   9.613   4.454   9.667
 7975WAT     H124167   9.553   4.388   9.621
 7975WAT     H224168   9.677   4.405   9.726
 7976WAT      O24169   0.370   5.407   0.741
 7976WAT     H124170   0.273   5.424   0.727
 7976WAT     H224171   0.415   5.393   0.653
 7977WAT      O24172   4.199   6.096   8.679
 7977WAT     H124173   4.186   6.108   8.581
 7977WAT     H224174   4.115   6.061   8.720
 7978WAT      O24175   2.465   5.015   7.987
 7978WAT     H124176   2.542   4.963   8.026
 7978WAT     H224177   2.387   4.954   7.974
 7979WAT      O24178   3.161   4.473   0.493
 7979WAT     H124179   3.148   4.396   0.554
 7979WAT     H224180   3.140   4.446   0.399
 7980WAT      O24181   2.752   9.558   1.466
 7980WAT     H124182   2.740   9.500   1.547
 7980WAT     H224183   2.848   9.556   1.438
 7981WAT      O24184   1.567   7.566   0.659
 7981WAT     H124185   1.557   7.467   0.661
 7981WAT     H224186   1.619   7.593   0.577
 7982WAT      O24187   3.367   4.855   7.529
 7982WAT     H124188   3.434   4.925   7.553
 7982WAT     H224189   3.278   4.879   7.567
 7983WAT      O24190   7.591   0.798   2.575
 7983WAT     H124191   7.542   0.823   2.659
 7983WAT     H224192   7.525   0.787   2.500
 7984WAT      O24193   9.189   6.520   6.235
 7984WAT     H124194   9.095   6.494   6.257
 7984WAT     H224195   9.248   6.499   6.313
 7985WAT      O24196   4.135   1.695   6.015
 7985WAT     H124197   4.147   1.628   6.088
 7985WAT     H224198   4.224   1.731   5.988
 7986WAT      O24199   6.082   5.704   5.613
 7986WAT     H124200   6.166   5.662   5.646
 7986WAT     H224201   6.035   5.640   5.552
 7987WAT      O24202   5.005   2.716   5.842
 7987WAT     H124203   5.031   2.622   5.820
 7987WAT     H224204   4.978   2.764   5.759
 7988WAT      O24205   3.133   6.195   1.409
 7988WAT     H124206   3.104   6.154   1.495
 7988WAT     H224207   3.211   6.256   1.425
 7989WAT      O24208   3.629   3.968   8.109
 7989WAT     H124209   3.570   3.889   8.093
 7989WAT     H224210   3.723   3.937   8.123
 7990WAT      O24211   6.165   3.057   2.055
 7990WAT     H124212   6.179   3.120   1.979
 7990WAT     H224213   6.137   2.968   2.020
 7991WAT      O24214   6.688   7.549   8.395
 7991WAT     H124215   6.785   7.541   8.415
 7991WAT     H224216   6.648   7.458   8.383
 7992WAT      O24217   2.441   3.253   6.788
 7992WAT     H124218   2.485   3.336   6.821
 7992WAT     H224219   2.413   3.197   6.866
 7993WAT      O24220   0.902   0.574   2.112
 7993WAT     H124221   0.986   0.626   2.129
 7993WAT     H224222   0.859   0.551   2.199
 7994WAT      O24223   6.463   4.678   9.503
 7994WAT     H124224   6.507   4.650   9.589
 7994WAT     H224225   6.531   4.676   9.429
 7995WAT      O24226   7.578   6.325   5.401
 7995WAT     H124227   7.494   6.289   5.361
 7995WAT     H224228   7.569   6.330   5.500
 7996WAT      O24229   0.817   8.641   5.682
 7996WAT     H124230   0.896   8.685   5.641
 7996WAT     H224231   0.795   8.558   5.631
 7997WAT      O24232   2.951   2.173   2.072
 7997WAT     H124233   3.017   2.202   2.002
 7997WAT     H224234   2.999   2.159   2.159
 7998WAT      O24235   7.270   8.028   3.909
 7998WAT     H124236   7.271   8.025   4.009
 7998WAT     H224237   7.351   7.981   3.873
 7999WAT      O24238   4.007   1.955   2.449
 7999WAT     H124239   4.052   1.958   2.360
 7999WAT     H224240   3.931   2.020   2.451
 8000WAT      O24241   7.474   3.772   3.485
 8000WAT     H124242   7.389   3.807   3.525
 8000WAT     H224243   7.512   3.702   3.544
 8001WAT      O24244   7.091   7.959   7.518
 8001WAT     H124245   7.110   8.052   7.547
 8001WAT     H224246   7.178   7.912   7.498
 8002WAT      O24247   6.252   4.638   3.840
 8002WAT     H124248   6.182   4.567   3.837
 8002WAT     H224249   6.269   4.672   3.747
 8003WAT      O24250   2.795   4.672   0.327
 8003WAT     H124251   2.826   4.617   0.249
 8003WAT     H224252   2.875   4.697   0.383
 8004WAT      O24253   1.778   7.085   7.329
 8004WAT     H124254   1.812   7.177   7.308
 8004WAT     H224255   1.685   7.092   7.366
 8005WAT      O24256   9.592   9.171   2.030
 8005WAT     H124257   9.643   9.257   2.041
 8005WAT     H224258   9.521   9.184   1.961
 8006WAT      O24259   9.689   3.730   1.093
 8006WAT     H124260   9.678   3.634   1.065
 8006WAT     H224261   9.754   3.775   1.032
 8007WAT      O24262   5.214   8.241   3.560
 8007WAT     H124263   5.235   8.148   3.588
 8007WAT     H224264   5.152   8.283   3.626
 8008WAT      O24265   8.339   8.202   4.282
 8008WAT     H124266   8.303   8.117   4.322
 8008WAT     H224267   8.419   8.232   4.335
 8009WAT      O24268   1.444   7.980   6.680
 8009WAT     H124269   1.536   7.984   6.639
 8009WAT     H224270   1.424   8.067   6.725
 8010WAT      O24271   6.394   0.978   0.646
 8010WAT     H124272   6.465   0.975   0.716
 8010WAT     H224273   6.434   0.962   0.556
 8011WAT      O24274   5.942   4.091   7.594
 8011WAT     H124275   5.939   4.027   7.518
 8011WAT     H224276   6.031   4.087   7.639
 8012WAT      O24277   8.464   6.736   4.897
 8012WAT     H124278   8.432   6.815   4.950
 8012WAT     H224279   8.405   6.658   4.915
 8013WAT      O24280   4.689   2.672   3.476
 8013WAT     H124281   4.787   2.664   3.457
 8013WAT     H224282   4.675   2.732   3.555
 8014WAT      O24283   6.330   1.663   8.406
 8014WAT     H124284   6.274   1.586   8.377
 8014WAT     H224285   6.272   1.732   8.450
 8015WAT      O24286   3.804   0.512   9.580
 8015WAT     H124287   3.816   0.545   9.674
 8015WAT     H224288   3.888   0.528   9.528
 8016WAT      O24289   1.181   1.869   3.618
 8016WAT     H124290   1.269   1.867   3.571
 8016WAT     H224291   1.190   1.922   3.703
 8017WAT      O24292   1.630   1.894   1.729
 8017WAT     H124293   1.547   1.861   1.775
 8017WAT     H224294   1.687   1.816   1.703
 8018WAT      O24295   2.744   7.779   4.277
 8018WAT     H124296   2.698   7.843   4.216
 8018WAT     H224297   2.805   7.720   4.223
 8019WAT      O24298   3.969   1.226   7.417
 8019WAT     H124299   4.007   1.205   7.508
 8019WAT     H224300   4.033   1.285   7.368
 8020WAT      O24301   7.151   2.210   6.242
 8020WAT     H124302   7.158   2.120   6.286
 8020WAT     H224303   7.237   2.260   6.254
 8021WAT      O24304   0.403   0.219   4.704
 8021WAT     H124305   0.426   0.252   4.796
 8021WAT     H224306   0.332   0.149   4.710
 8022WAT      O24307   2.368   1.842   3.239
 8022WAT     H124308   2.291   1.834   3.303
 8022WAT     H224309   2.445   1.788   3.273
 8023WAT      O24310   1.893   1.994   9.111
 8023WAT     H124311   1.813   1.933   9.115
 8023WAT     H224312   1.874   2.068   9.047
 8024WAT      O24313   8.657   8.775   8.864
 8024WAT     H124314   8.684   8.776   8.767
 8024WAT     H224315   8.689   8.691   8.906
 8025WAT      O24316   7.461   3.062   2.257
 8025WAT     H124317   7.431   3.061   2.162
 8025WAT     H224318   7.553   3.103   2.263
 8026WAT      O24319   2.287   6.086   1.662
 8026WAT     H124320   2.257   6.060   1.570
 8026WAT     H224321   2.314   6.182   1.662
 8027WAT      O24322   7.350   1.681   4.436
 8027WAT     H124323   7.316   1.712   4.347
 8027WAT     H224324   7.308   1.594   4.459
 8028WAT      O24325   2.514   0.016   6.949
 8028WAT     H124326   2.482  -0.077   6.933
 8028WAT     H224327   2.608   0.013   6.984
 8029WAT      O24328   3.494   9.487   8.465
 8029WAT     H124329   3.399   9.470   8.492
 8029WAT     H224330   3.498   9.502   8.367
 8030WAT      O24331   5.081   0.936   7.833
 8030WAT     H124332   5.044   0.857   7.785
 8030WAT     H224333   5.181   0.933   7.830
 8031WAT      O24334   3.587   1.215   5.608
 8031WAT     H124335   3.624   1.133   5.564
 8031WAT     H224336   3.549   1.190   5.697
 8032WAT      O24337   6.921   6.529   4.689
 8032WAT     H124338   6.864   6.528   4.771
 8032WAT     H224339   6.971   6.443   4.683
 8033WAT      O24340   7.784   5.842   3.276
 8033WAT     H124341   7.824   5.924   3.236
 8033WAT     H224342   7.794   5.845   3.375
 8034WAT      O24343   2.608   2.464   8.971
 8034WAT     H124344   2.616   2.558   8.939
 8034WAT     H224345   2.660   2.453   9.056
 8035WAT      O24346   3.440   6.807   7.498
 8035WAT     H124347   3.522   6.758   7.469
 8035WAT     H224348   3.363   6.743   7.503
 8036WAT      O24349   3.154   0.340   1.292
 8036WAT     H124350   3.133   0.403   1.217
 8036WAT     H224351   3.150   0.389   1.378
 8037WAT      O24352   7.165   9.700   6.980
 8037WAT     H124353   7.201   9.773   6.921
 8037WAT     H224354   7.070   9.681   6.954
 8038WAT      O24355   6.749   0.061   0.533
 8038WAT     H124356   6.846   0.037   0.534
 8038WAT     H224357   6.710   0.039   0.443
 8039WAT      O24358   6.128   2.845   9.181
 8039WAT     H124359   6.191   2.770   9.161
 8039WAT     H224360   6.176   2.916   9.232
 8040WAT      O24361   8.633   1.680   2.521
 8040WAT     H124362   8.568   1.749   2.488
 8040WAT     H224363   8.680   1.638   2.444
 8041WAT      O24364   7.751   0.568   7.018
 8041WAT     H124365   7.723   0.637   6.951
 8041WAT     H224366   7.802   0.496   6.972
 8042WAT      O24367   0.911   2.143   6.458
 8042WAT     H124368   0.941   2.234   6.432
 8042WAT     H224369   0.811   2.142   6.468
 8043WAT      O24370   1.252   3.208   7.532
 8043WAT     H124371   1.251   3.308   7.527
 8043WAT     H224372   1.159   3.174   7.521
 8044WAT      O24373   2.503   8.097   1.528
 8044WAT     H124374   2.502   8.042   1.445
 8044WAT     H224375   2.591   8.086   1.575
 8045WAT      O24376   6.800   2.082   0.808
 8045WAT     H124377   6.715   2.124   0.779
 8045WAT     H224378   6.877   2.143   0.790
 8046WAT      O24379   2.030   8.554   9.276
 8046WAT     H124380   2.127   8.533   9.264
 8046WAT     H224381   2.011   8.645   9.241
 8047WAT      O24382   5.627   2.465   9.616
 8047WAT     H124383   5.613   2.542   9.554
 8047WAT     H224384   5.555   2.465   9.685
 8048WAT      O24385   2.633   6.201   2.822
 8048WAT     H124386   2.684   6.137   2.879
 8048WAT     H224387   2.608   6.156   2.736
 8049WAT      O24388   6.336   1.426   3.599
 8049WAT     H124389   6.373   1.385   3.682
 8049WAT     H224390   6.237   1.441   3.610
 8050WAT      O24391   7.059   7.108   1.887
 8050WAT     H124392   7.055   7.203   1.857
 8050WAT     H224393   7.152   7.073   1.873
 8051WAT      O24394   0.073   9.680   9.735
 8051WAT     H124395   0.110   9.635   9.655
 8051WAT     H224396   0.058   9.613   9.808
 8052WAT      O24397   5.797   1.592   9.557
 8052WAT     H124398   5.835   1.512   9.605
 8052WAT     H224399   5.702   1.574   9.532
 8053WAT      O24400   8.815   5.062   3.008
 8053WAT     H124401   8.869   4.986   3.044
 8053WAT     H224402   8.790   5.043   2.913
 8054WAT      O24403   6.628   7.831   4.179
 8054WAT     H124404   6.633   7.888   4.097
 8054WAT     H224405   6.709   7.773   4.185
 8055WAT      O24406   5.452   0.089   3.841
 8055WAT     H124407   5.496   0.017   3.895
 8055WAT     H224408   5.396   0.145   3.901
 8056WAT      O24409   0.143   8.837   2.281
 8056WAT     H124410   0.161   8.770   2.353
 8056WAT     H224411   0.046   8.833   2.255
 8057WAT      O24412   3.373   5.595   9.504
 8057WAT     H124413   3.433   5.575   9.426
 8057WAT     H224414   3.307   5.521   9.516
 8058WAT      O24415   6.334   3.449   5.985
 8058WAT     H124416   6.365   3.526   5.930
 8058WAT     H224417   6.254   3.477   6.038
 8059WAT      O24418   6.682   4.801   3.065
 8059WAT     H124419   6.698   4.757   2.976
 8059WAT     H224420   6.769   4.835   3.101
 8060WAT      O24421   6.341   5.110   2.672
 8060WAT     H124422   6.342   5.051   2.591
 8060WAT     H224423   6.295   5.062   2.747
 8061WAT      O24424   0.754   4.786   5.216
 8061WAT     H124425   0.727   4.719   5.147
 8061WAT     H224426   0.801   4.740   5.291
 8062WAT      O24427   6.921   6.366   4.182
 8062WAT     H124428   6.933   6.365   4.083
 8062WAT     H224429   6.994   6.420   4.224
 8063WAT      O24430   4.100   7.892   7.564
 8063WAT     H124431   4.191   7.932   7.578
 8063WAT     H224432   4.033   7.941   7.620
 8064WAT      O24433   4.323   1.214   2.868
 8064WAT     H124434   4.260   1.289   2.849
 8064WAT     H224435   4.286   1.129   2.832
 8065WAT      O24436   7.048   6.835   1.826
 8065WAT     H124437   7.093   6.842   1.737
 8065WAT     H224438   7.058   6.921   1.876
 8066WAT      O24439   4.609   6.158   2.937
 8066WAT     H124440   4.644   6.135   3.028
 8066WAT     H224441   4.666   6.114   2.868
 8067WAT      O24442   3.742   9.211   2.748
 8067WAT     H124443   3.716   9.307   2.759
 8067WAT     H224444   3.662   9.157   2.723
 8068WAT      O24445   3.070   2.087   6.668
 8068WAT     H124446   3.170   2.092   6.669
 8068WAT     H224447   3.039   2.034   6.590
 8069WAT      O24448   6.724   3.266   3.811
 8069WAT     H124449   6.815   3.279   3.772
 8069WAT     H224450   6.726   3.189   3.875
 8070WAT      O24451   6.867   9.603   5.592
 8070WAT     H124452   6.965   9.580   5.595
 8070WAT     H224453   6.851   9.670   5.519
 8071WAT      O24454   0.147   1.053   9.330
 8071WAT     H124455   0.139   1.110   9.412
 8071WAT     H224456   0.138   1.110   9.249
 8072WAT      O24457   3.035   0.202   4.329
 8072WAT     H124458   3.078   0.291   4.314
 8072WAT     H224459   2.977   0.207   4.410
 8073WAT      O24460   5.280   8.184   5.267
 8073WAT     H124461   5.305   8.230   5.182
 8073WAT     H224462   5.207   8.236   5.312
 8074WAT      O24463   1.539   1.869   4.662
 8074WAT     H124464   1.602   1.891   4.588
 8074WAT     H224465   1.530   1.770   4.671
 8075WAT      O24466   6.828   9.116   6.873
 8075WAT     H124467   6.793   9.032   6.915
 8075WAT     H224468   6.819   9.111   6.774
 8076WAT      O24469   1.388   9.110   7.857
 8076WAT     H124470   1.465   9.050   7.837
 8076WAT     H224471   1.421   9.202   7.877
 8077WAT      O24472   0.123   3.965   2.023
 8077WAT     H124473   0.026   3.946   2.007
 8077WAT     H224474   0.161   4.013   1.943
 8078WAT      O24475   6.523   1.515   7.998
 8078WAT     H124476   6.553   1.607   7.973
 8078WAT     H224477   6.534   1.502   8.096
 8079WAT      O24478   7.372   8.863   4.865
 8079WAT     H124479   7.437   8.847   4.790
 8079WAT     H224480   7.417   8.845   4.953
 8080WAT      O24481   5.667   2.192   2.675
 8080WAT     H124482   5.733   2.182   2.600
 8080WAT     H224483   5.682   2.120   2.743
 8081WAT      O24484   8.888   3.789   9.742
 8081WAT     H124485   8.885   3.883   9.709
 8081WAT     H224486   8.872   3.726   9.666
 8082WAT      O24487   0.009   4.545   3.250
 8082WAT     H124488  -0.069   4.589   3.206
 8082WAT     H224489  -0.005   4.546   3.350
 8083WAT      O24490   0.398   7.442   4.546
 8083WAT     H124491   0.381   7.535   4.513
 8083WAT     H224492   0.391   7.439   4.645
 8084WAT      O24493   2.133   9.026   8.681
 8084WAT     H124494   2.104   9.112   8.725
 8084WAT     H224495   2.200   9.046   8.610
 8085WAT      O24496   2.049   6.732   7.098
 8085WAT     H124497   1.972   6.794   7.085
 8085WAT     H224498   2.027   6.667   7.171
 8086WAT      O24499   1.566   1.377   4.930
 8086WAT     H124500   1.653   1.417   4.958
 8086WAT     H224501   1.575   1.339   4.838
 8087WAT      O24502   9.693   7.025   9.787
 8087WAT     H124503   9.670   7.086   9.863
 8087WAT     H224504   9.773   7.060   9.739
 8088WAT      O24505   7.684   3.254   9.498
 8088WAT     H124506   7.627   3.172   9.503
 8088WAT     H224507   7.655   3.319   9.567
 8089WAT      O24508   9.301   8.698   5.453
 8089WAT     H124509   9.270   8.622   5.396
 8089WAT     H224510   9.292   8.784   5.402
 8090WAT      O24511   4.645   1.779   7.594
 8090WAT     H124512   4.580   1.779   7.518
 8090WAT     H224513   4.602   1.822   7.674
 8091WAT      O24514   2.510   6.651   8.773
 8091WAT     H124515   2.487   6.638   8.870
 8091WAT     H224516   2.486   6.744   8.746
 8092WAT      O24517   8.150   7.132   3.647
 8092WAT     H124518   8.245   7.164   3.652
 8092WAT     H224519   8.148   7.044   3.600
 8093WAT      O24520   2.018   7.100   5.424
 8093WAT     H124521   2.065   7.085   5.511
 8093WAT     H224522   2.086   7.123   5.353
 8094WAT      O24523   4.499   1.682   4.979
 8094WAT     H124524   4.483   1.716   5.072
 8094WAT     H224525   4.592   1.707   4.950
 8095WAT      O24526   2.616   8.877   6.876
 8095WAT     H124527   2.657   8.941   6.940
 8095WAT     H224528   2.521   8.906   6.857
 8096WAT      O24529   1.447   6.608   0.825
 8096WAT     H124530   1.484   6.515   0.824
 8096WAT     H224531   1.364   6.611   0.770
 8097WAT      O24532   3.337   2.229   9.209
 8097WAT     H124533   3.288   2.171   9.144
 8097WAT     H224534   3.275   2.297   9.246
 8098WAT      O24535   6.933   4.801   3.724
 8098WAT     H124536   6.942   4.724   3.660
 8098WAT     H224537   6.921   4.885   3.672
 8099WAT      O24538   1.628   9.147   7.586
 8099WAT     H124539   1.669   9.086   7.518
 8099WAT     H224540   1.597   9.094   7.665
 8100WAT      O24541   5.930   9.719   8.513
 8100WAT     H124542   5.963   9.806   8.550
 8100WAT     H224543   5.893   9.733   8.421
 8101WAT      O24544   4.669   2.668   7.599
 8101WAT     H124545   4.571   2.647   7.602
 8101WAT     H224546   4.683   2.764   7.625
 8102WAT      O24547   4.566   6.439   8.305
 8102WAT     H124548   4.589   6.451   8.209
 8102WAT     H224549   4.647   6.409   8.355
 8103WAT      O24550   3.762   9.531   5.730
 8103WAT     H124551   3.765   9.626   5.700
 8103WAT     H224552   3.846   9.484   5.702
 8104WAT      O24553   8.903   1.914   4.246
 8104WAT     H124554   8.861   1.928   4.156
 8104WAT     H224555   8.872   1.828   4.284
 8105WAT      O24556   6.592   8.488   9.281
 8105WAT     H124557   6.659   8.560   9.264
 8105WAT     H224558   6.528   8.483   9.205
 8106WAT      O24559   0.813   5.125   0.349
 8106WAT     H124560   0.853   5.166   0.430
 8106WAT     H224561   0.812   5.192   0.274
 8107WAT      O24562   0.552   5.790   2.766
 8107WAT     H124563   0.623   5.800   2.836
 8107WAT     H224564   0.593   5.799   2.675
 8108WAT      O24565   6.652   0.751   4.938
 8108WAT     H124566   6.568   0.713   4.897
 8108WAT     H224567   6.627   0.819   5.007
 8109WAT      O24568   8.824   4.311   9.172
 8109WAT     H124569   8.748   4.254   9.205
 8109WAT     H224570   8.787   4.390   9.123
 8110WAT      O24571   6.787   4.203   0.555
 8110WAT     H124572   6.809   4.143   0.479
 8110WAT     H224573   6.760   4.293   0.520
 8111WAT      O24574   7.584   6.498   0.988
 8111WAT     H124575   7.642   6.441   1.046
 8111WAT     H224576   7.636   6.577   0.955
 8112WAT      O24577   2.295   8.583   4.382
 8112WAT     H124578   2.256   8.667   4.420
 8112WAT     H224579   2.259   8.504   4.431
 8113WAT      O24580   0.880   3.995   9.806
 8113WAT     H124581   0.816   3.920   9.787
 8113WAT     H224582   0.951   3.996   9.736
 8114WAT      O24583   5.673   1.197   9.549
 8114WAT     H124584   5.619   1.225   9.470
 8114WAT     H224585   5.612   1.180   9.627
 8115WAT      O24586   3.851   4.963   4.888
 8115WAT     H124587   3.873   5.056   4.859
 8115WAT     H224588   3.751   4.954   4.898
 8116WAT      O24589   0.278   8.531   0.311
 8116WAT     H124590   0.296   8.506   0.407
 8116WAT     H224591   0.363   8.559   0.268
 8117WAT      O24592   2.463   7.106   4.728
 8117WAT     H124593   2.447   7.175   4.798
 8117WAT     H224594   2.522   7.144   4.657
 8118WAT      O24595   6.541   2.364   3.862
 8118WAT     H124596   6.537   2.397   3.768
 8118WAT     H224597   6.491   2.278   3.869
 8119WAT      O24598   5.032   1.911   5.997
 8119WAT     H124599   5.027   1.859   6.082
 8119WAT     H224600   4.968   1.873   5.931
 8120WAT      O24601   7.423   2.602   4.079
 8120WAT     H124602   7.498   2.553   4.035
 8120WAT     H224603   7.348   2.540   4.097
 8121WAT      O24604   0.739   5.615   8.136
 8121WAT     H124605   0.728   5.692   8.199
 8121WAT     H224606   0.815   5.558   8.167
 8122WAT      O24607   8.286   7.583   7.422
 8122WAT     H124608   8.340   7.538   7.351
 8122WAT     H224609   8.288   7.682   7.407
 8123WAT      O24610   5.438   9.059   4.170
 8123WAT     H124611   5.410   8.965   4.152
 8123WAT     H224612   5.357   9.114   4.194
 8124WAT      O24613   1.600   9.018   1.972
 8124WAT     H124614   1.684   9.069   1.989
 8124WAT     H224615   1.589   9.003   1.874
 8125WAT      O24616   4.119   3.217   4.692
 8125WAT     H124617   4.095   3.121   4.707
 8125WAT     H224618   4.066   3.275   4.754
 8126WAT      O24619   9.252   8.711   7.664
 8126WAT     H124620   9.331   8.744   7.613
 8126WAT     H224621   9.205   8.641   7.611
 8127WAT      O24622   8.511   0.338   2.533
 8127WAT     H124623   8.488   0.393   2.614
 8127WAT     H224624   8.513   0.397   2.452
 8128WAT      O24625   8.742   5.998   8.407
 8128WAT     H124626   8.649   6.033   8.416
 8128WAT     H224627   8.760   5.932   8.480
 8129WAT      O24628   0.455   1.340   6.132
 8129WAT     H124629   0.377   1.381   6.086
 8129WAT     H224630   0.524   1.313   6.065
 8130WAT      O24631   7.328   6.754   2.589
 8130WAT     H124632   7.418   6.709   2.589
 8130WAT     H224633   7.294   6.760   2.683
 8131WAT      O24634   5.885   8.647   1.243
 8131WAT     H124635   5.915   8.742   1.230
 8131WAT     H224636   5.911   8.616   1.334
 8132WAT      O24637   7.397   0.679   5.110
 8132WAT     H124638   7.447   0.673   5.023
 8132WAT     H224639   7.387   0.774   5.137
 8133WAT      O24640   8.627   1.974   2.326
 8133WAT     H124641   8.572   1.903   2.283
 8133WAT     H224642   8.575   2.016   2.401
 8134WAT      O24643   8.425   9.396   4.825
 8134WAT     H124644   8.467   9.467   4.882
 8134WAT     H224645   8.460   9.404   4.732
 8135WAT      O24646   7.199   9.216   9.118
 8135WAT     H124647   7.152   9.221   9.207
 8135WAT     H224648   7.261   9.294   9.109
 8136WAT      O24649   1.600   3.108   8.619
 8136WAT     H124650   1.694   3.112   8.652
 8136WAT     H224651   1.598   3.054   8.534
 8137WAT      O24652   9.244   8.089   2.951
 8137WAT     H124653   9.295   8.102   2.866
 8137WAT     H224654   9.299   8.035   3.014
 8138WAT      O24655   8.758   7.001   1.918
 8138WAT     H124656   8.768   7.098   1.894
 8138WAT     H224657   8.665   6.971   1.899
 8139WAT      O24658   1.767   6.847   4.302
 8139WAT     H124659   1.778   6.841   4.401
 8139WAT     H224660   1.777   6.942   4.273
 8140WAT      O24661   2.259   5.661   4.960
 8140WAT     H124662   2.263   5.568   4.997
 8140WAT     H224663   2.164   5.687   4.947
 8141WAT      O24664   6.681   4.621   0.252
 8141WAT     H124665   6.708   4.617   0.156
 8141WAT     H224666   6.694   4.714   0.287
 8142WAT      O24667   7.912   8.179   9.241
 8142WAT     H124668   7.970   8.235   9.182
 8142WAT     H224669   7.954   8.090   9.255
 8143WAT      O24670   5.616   5.464   1.305
 8143WAT     H124671   5.548   5.440   1.374
 8143WAT     H224672   5.668   5.383   1.278
 8144WAT      O24673   6.198   5.057   9.462
 8144WAT     H124674   6.196   4.962   9.492
 8144WAT     H224675   6.109   5.083   9.425
 8145WAT      O24676   9.347   6.796   4.781
 8145WAT     H124677   9.397   6.877   4.750
 8145WAT     H224678   9.276   6.825   4.846
 8146WAT      O24679   4.266   3.165   1.998
 8146WAT     H124680   4.274   3.107   1.917
 8146WAT     H224681   4.273   3.109   2.080
 8147WAT      O24682   5.632   9.274   2.405
 8147WAT     H124683   5.539   9.276   2.369
 8147WAT     H224684   5.697   9.277   2.329
 8148WAT      O24685   6.126   4.420   8.892
 8148WAT     H124686   6.039   4.466   8.875
 8148WAT     H224687   6.125   4.377   8.982
 8149WAT      O24688   4.603   4.267   9.041
 8149WAT     H124689   4.695   4.283   9.075
 8149WAT     H224690   4.603   4.266   8.941
 8150WAT      O24691   5.250   3.138   2.103
 8150WAT     H124692   5.173   3.108   2.047
 8150WAT     H224693   5.267   3.235   2.085
 8151WAT      O24694   4.255   9.370   8.533
 8151WAT     H124695   4.159   9.390   8.513
 8151WAT     H224696   4.270   9.373   8.631
 8152WAT      O24697   0.548   8.795   6.642
 8152WAT     H124698   0.543   8.712   6.698
 8152WAT     H224699   0.472   8.857   6.667
 8153WAT      O24700   2.621   8.499   3.851
 8153WAT     H124701   2.582   8.408   3.835
 8153WAT     H224702   2.668   8.530   3.768
 8154WAT      O24703   1.391   6.990   6.824
 8154WAT     H124704   1.364   6.998   6.920
 8154WAT     H224705   1.434   6.901   6.808
 8155WAT      O24706   0.627   6.623   2.860
 8155WAT     H124707   0.565   6.701   2.862
 8155WAT     H224708   0.574   6.538   2.852
 8156WAT      O24709   0.459   2.078   8.610
 8156WAT     H124710   0.422   2.166   8.641
 8156WAT     H224711   0.385   2.010   8.612
 8157WAT      O24712   4.876   8.235   7.883
 8157WAT     H124713   4.829   8.307   7.934
 8157WAT     H224714   4.810   8.185   7.826
 8158WAT      O24715   4.472   3.802   9.261
 8158WAT     H124716   4.500   3.865   9.188
 8158WAT     H224717   4.428   3.854   9.334
 8159WAT      O24718   1.829   6.667   2.546
 8159WAT     H124719   1.745   6.686   2.495
 8159WAT     H224720   1.900   6.731   2.518
 8160WAT      O24721   3.765   3.723   7.099
 8160WAT     H124722   3.748   3.696   7.194
 8160WAT     H224723   3.696   3.679   7.040
 8161WAT      O24724   2.279   2.387   5.466
 8161WAT     H124725   2.295   2.342   5.379
 8161WAT     H224726   2.235   2.476   5.451
 8162WAT      O24727   2.939   1.811   1.689
 8162WAT     H124728   2.847   1.839   1.718
 8162WAT     H224729   2.937   1.714   1.664
 8163WAT      O24730   9.720   1.924   5.121
 8163WAT     H124731   9.755   1.831   5.109
 8163WAT     H224732   9.703   1.941   5.218
 8164WAT      O24733   0.847   8.737   6.911
 8164WAT     H124734   0.799   8.720   6.825
 8164WAT     H224735   0.909   8.661   6.930
 8165WAT      O24736   5.471   0.427   0.457
 8165WAT     H124737   5.422   0.514   0.446
 8165WAT     H224738   5.427   0.357   0.402
 8166WAT      O24739   1.039   0.122   0.385
 8166WAT     H124740   1.033   0.214   0.347
 8166WAT     H224741   1.007   0.122   0.479
 8167WAT      O24742   3.685   2.523   8.697
 8167WAT     H124743   3.783   2.535   8.712
 8167WAT     H224744   3.649   2.458   8.764
 8168WAT      O24745   7.703   2.432   7.509
 8168WAT     H124746   7.612   2.412   7.544
 8168WAT     H224747   7.751   2.346   7.489
 8169WAT      O24748   5.697   7.701   7.425
 8169WAT     H124749   5.644   7.770   7.376
 8169WAT     H224750   5.793   7.709   7.401
 8170WAT      O24751   6.006   0.062   2.829
 8170WAT     H124752   6.060   0.009   2.893
 8170WAT     H224753   6.058   0.142   2.799
 8171WAT      O24754   3.274   3.217   1.219
 8171WAT     H124755   3.216   3.206   1.138
 8171WAT     H224756   3.365   3.180   1.200
 8172WAT      O24757   6.926   3.694   8.939
 8172WAT     H124758   6.870   3.616   8.967
 8172WAT     H224759   6.991   3.716   9.012
 8173WAT      O24760   3.671   3.353   4.732
 8173WAT     H124761   3.610   3.367   4.653
 8173WAT     H224762   3.622   3.377   4.816
 8174WAT      O24763   7.587   0.556   7.229
 8174WAT     H124764   7.650   0.552   7.151
 8174WAT     H224765   7.632   0.518   7.310
 8175WAT      O24766   1.173   4.314   5.287
 8175WAT     H124767   1.138   4.225   5.317
 8175WAT     H224768   1.270   4.305   5.264
 8176WAT      O24769   6.300   0.690   8.621
 8176WAT     H124770   6.386   0.639   8.620
 8176WAT     H224771   6.279   0.722   8.529
 8177WAT      O24772   7.656   0.326   1.374
 8177WAT     H124773   7.589   0.286   1.311
 8177WAT     H224774   7.642   0.424   1.380
 8178WAT      O24775   3.300   3.468   4.033
 8178WAT     H124776   3.337   3.531   3.964
 8178WAT     H224777   3.361   3.389   4.041
 8179WAT      O24778   6.414   2.549   3.032
 8179WAT     H124779   6.334   2.599   3.000
 8179WAT     H224780   6.391   2.452   3.044
 8180WAT      O24781   8.940   5.690   6.406
 8180WAT     H124782   8.972   5.606   6.451
 8180WAT     H224783   9.018   5.752   6.393
 8181WAT      O24784   5.198   1.825   8.569
 8181WAT     H124785   5.259   1.901   8.544
 8181WAT     H224786   5.130   1.857   8.635
 8182WAT      O24787   4.272   4.964   7.234
 8182WAT     H124788   4.229   5.039   7.284
 8182WAT     H224789   4.219   4.944   7.152
 8183WAT      O24790   1.522   9.700   0.347
 8183WAT     H124791   1.423   9.709   0.359
 8183WAT     H224792   1.558   9.632   0.412
 8184WAT      O24793   2.048   2.002   7.763
 8184WAT     H124794   2.110   1.956   7.700
 8184WAT     H224795   2.075   2.099   7.771
 8185WAT      O24796   0.601   2.546   4.374
 8185WAT     H124797   0.522   2.569   4.431
 8185WAT     H224798   0.604   2.447   4.361
 8186WAT      O24799   6.584   1.992   0.152
 8186WAT     H124800   6.586   2.028   0.246
 8186WAT     H224801   6.520   1.915   0.148
 8187WAT      O24802   8.601   4.188   9.849
 8187WAT     H124803   8.624   4.091   9.860
 8187WAT     H224804   8.681   4.244   9.871
 8188WAT      O24805   1.034   4.409   1.044
 8188WAT     H124806   1.115   4.468   1.042
 8188WAT     H224807   0.988   4.412   0.955
 8189WAT      O24808   4.368   9.609   7.185
 8189WAT     H124809   4.342   9.548   7.260
 8189WAT     H224810   4.333   9.701   7.202
 8190WAT      O24811   6.820   3.870   2.127
 8190WAT     H124812   6.858   3.807   2.195
 8190WAT     H224813   6.759   3.935   2.172
 8191WAT      O24814   3.290   6.731   9.455
 8191WAT     H124815   3.321   6.636   9.460
 8191WAT     H224816   3.215   6.744   9.519
 8192WAT      O24817   7.152   3.479   1.312
 8192WAT     H124818   7.190   3.565   1.345
 8192WAT     H224819   7.124   3.422   1.389
 8193WAT      O24820   5.243   6.291   7.979
 8193WAT     H124821   5.150   6.261   7.962
 8193WAT     H224822   5.308   6.224   7.942
 8194WAT      O24823   1.364   7.683   3.839
 8194WAT     H124824   1.397   7.595   3.874
 8194WAT     H224825   1.431   7.720   3.775
 8195WAT      O24826   0.203   2.416   2.996
 8195WAT     H124827   0.212   2.479   3.073
 8195WAT     H224828   0.127   2.354   3.012
 8196WAT      O24829   8.232   2.085   5.507
 8196WAT     H124830   8.151   2.096   5.449
 8196WAT     H224831   8.301   2.033   5.456
 8197WAT      O24832   0.116   1.513   9.499
 8197WAT     H124833   0.100   1.498   9.597
 8197WAT     H224834   0.100   1.610   9.477
 8198WAT      O24835   3.553   0.834   3.931
 8198WAT     H124836   3.500   0.755   3.964
 8198WAT     H224837   3.645   0.830   3.968
 8199WAT      O24838   4.444   9.669   3.648
 8199WAT     H124839   4.513   9.725   3.601
 8199WAT     H224840   4.375   9.729   3.689
 8200WAT      O24841   2.278   6.359   1.542
 8200WAT     H124842   2.291   6.424   1.467
 8200WAT     H224843   2.234   6.406   1.619
 8201WAT      O24844   7.671   9.597   6.108
 8201WAT     H124845   7.748   9.536   6.126
 8201WAT     H224846   7.588   9.542   6.097
 8202WAT      O24847   4.750   8.862   9.701
 8202WAT     H124848   4.849   8.855   9.690
 8202WAT     H224849   4.728   8.942   9.757
 8203WAT      O24850   5.502   3.529   0.322
 8203WAT     H124851   5.449   3.571   0.248
 8203WAT     H224852   5.557   3.599   0.368
 8204WAT      O24853   0.199   6.877   6.805
 8204WAT     H124854   0.293   6.878   6.840
 8204WAT     H224855   0.164   6.783   6.808
 8205WAT      O24856   3.196   7.123   3.520
 8205WAT     H124857   3.213   7.206   3.467
 8205WAT     H224858   3.267   7.055   3.501
 8206WAT      O24859   0.468   4.537   9.179
 8206WAT     H124860   0.496   4.624   9.220
 8206WAT     H224861   0.415   4.555   9.096
 8207WAT      O24862   9.240   9.238   7.120
 8207WAT     H124863   9.285   9.232   7.031
 8207WAT     H224864   9.177   9.316   7.121
 8208WAT      O24865   3.718   2.976   6.509
 8208WAT     H124866   3.817   2.983   6.500
 8208WAT     H224867   3.681   3.066   6.534
 8209WAT      O24868   4.607   1.981   2.988
 8209WAT     H124869   4.561   2.021   2.909
 8209WAT     H224870   4.703   2.006   2.987
 8210WAT      O24871   0.110   5.431   6.618
 8210WAT     H124872   0.031   5.481   6.582
 8210WAT     H224873   0.176   5.417   6.545
 8211WAT      O24874   6.116   4.302   2.089
 8211WAT     H124875   6.063   4.284   2.171
 8211WAT     H224876   6.205   4.256   2.096
 8212WAT      O24877   9.500   1.647   0.865
 8212WAT     H124878   9.450   1.654   0.952
 8212WAT     H224879   9.468   1.567   0.815
 8213WAT      O24880   6.495   0.028   4.581
 8213WAT     H124881   6.509   0.062   4.488
 8213WAT     H224882   6.411   0.066   4.618
 8214WAT      O24883   4.882   1.312   3.440
 8214WAT     H124884   4.798   1.366   3.451
 8214WAT     H224885   4.864   1.236   3.377
 8215WAT      O24886   7.145   6.789   1.118
 8215WAT     H124887   7.236   6.750   1.103
 8215WAT     H224888   7.080   6.714   1.133
 8216WAT      O24889   3.154   5.243   6.627
 8216WAT     H124890   3.204   5.249   6.541
 8216WAT     H224891   3.070   5.191   6.614
 8217WAT      O24892   4.726   4.207   2.499
 8217WAT     H124893   4.671   4.132   2.536
 8217WAT     H224894   4.724   4.204   2.399
 8218WAT      O24895   4.792   9.785   2.873
 8218WAT     H124896   4.776   9.686   2.868
 8218WAT     H224897   4.812   9.820   2.782
 8219WAT      O24898   2.643   9.080   2.675
 8219WAT     H124899   2.599   9.034   2.751
 8219WAT     H224900   2.639   9.022   2.593
 8220WAT      O24901   7.587   4.280   7.177
 8220WAT     H124902   7.515   4.214   7.199
 8220WAT     H224903   7.598   4.284   7.078
 8221WAT      O24904   6.231   8.807   7.506
 8221WAT     H124905   6.171   8.736   7.468
 8221WAT     H224906   6.307   8.764   7.554
 8222WAT      O24907   4.967   4.933   2.335
 8222WAT     H124908   4.949   5.011   2.396
 8222WAT     H224909   5.066   4.923   2.322
 8223WAT      O24910   8.320   3.289   8.422
 8223WAT     H124911   8.418   3.277   8.436
 8223WAT     H224912   8.274   3.296   8.510
 8224WAT      O24913   8.153   3.972   9.058
 8224WAT     H124914   8.186   3.924   9.139
 8224WAT     H224915   8.060   4.005   9.075
 8225WAT      O24916   2.385   8.351   2.907
 8225WAT     H124917   2.416   8.309   2.993
 8225WAT     H224918   2.454   8.414   2.873
 8226WAT      O24919   9.124   3.894   6.254
 8226WAT     H124920   9.073   3.967   6.209
 8226WAT     H224921   9.104   3.896   6.352
 8227WAT      O24922   7.663   7.244   2.560
 8227WAT     H124923   7.700   7.247   2.467
 8227WAT     H224924   7.733   7.273   2.625
 8228WAT      O24925   8.492   0.587   9.749
 8228WAT     H124926   8.523   0.674   9.712
 8228WAT     H224927   8.534   0.512   9.697
 8229WAT      O24928   2.345   3.597   2.946
 8229WAT     H124929   2.273   3.627   2.884
 8229WAT     H224930   2.332   3.639   3.036
 8230WAT      O24931   2.351   0.155   9.673
 8230WAT     H124932   2.368   0.096   9.594
 8230WAT     H224933   2.438   0.187   9.710
 8231WAT      O24934   4.011   3.259   4.449
 8231WAT     H124935   4.067   3.249   4.531
 8231WAT     H224936   3.979   3.354   4.443
 8232WAT      O24937   8.627   5.449   5.189
 8232WAT     H124938   8.647   5.401   5.274
 8232WAT     H224939   8.541   5.499   5.199
 8233WAT      O24940   8.193   2.093   0.201
 8233WAT     H124941   8.094   2.083   0.216
 8233WAT     H224942   8.218   2.189   0.210
 8234WAT      O24943   9.214   4.163   8.230
 8234WAT     H124944   9.148   4.089   8.244
 8234WAT     H224945   9.289   4.154   8.295
 8235WAT      O24946   7.463   8.322   0.065
 8235WAT     H124947   7.394   8.384   0.029
 8235WAT     H224948   7.542   8.319   0.003
 8236WAT      O24949   7.881   2.117   3.456
 8236WAT     H124950   7.897   2.205   3.501
 8236WAT     H224951   7.919   2.120   3.363
 8237WAT      O24952   4.674   2.712   4.649
 8237WAT     H124953   4.627   2.791   4.609
 8237WAT     H224954   4.625   2.681   4.730
 8238WAT      O24955   4.159   5.591   2.290
 8238WAT     H124956   4.159   5.518   2.221
 8238WAT     H224957   4.223   5.663   2.263
 8239WAT      O24958   6.660   4.219   1.961
 8239WAT     H124959   6.701   4.129   1.944
 8239WAT     H224960   6.707   4.288   1.906
 8240WAT      O24961   3.143   7.612   0.111
 8240WAT     H124962   3.209   7.632   0.039
 8240WAT     H224963   3.070   7.680   0.110
 8241WAT      O24964   2.172   1.349   2.877
 8241WAT     H124965   2.115   1.340   2.959
 8241WAT     H224966   2.115   1.337   2.796
 8242WAT      O24967   0.855   1.608   7.782
 8242WAT     H124968   0.848   1.528   7.842
 8242WAT     H224969   0.856   1.578   7.687
 8243WAT      O24970   5.850   2.473   5.105
 8243WAT     H124971   5.935   2.422   5.120
 8243WAT     H224972   5.859   2.532   5.025
 8244WAT      O24973   6.642   8.634   9.644
 8244WAT     H124974   6.612   8.706   9.581
 8244WAT     H224975   6.640   8.546   9.596
 8245WAT      O24976   6.339   9.062   4.528
 8245WAT     H124977   6.263   8.999   4.544
 8245WAT     H224978   6.423   9.010   4.512
 8246WAT      O24979   6.433   2.957   3.714
 8246WAT     H124980   6.514   2.902   3.695
 8246WAT     H224981   6.380   2.916   3.788
 8247WAT      O24982   0.655   7.626   3.347
 8247WAT     H124983   0.750   7.657   3.345
 8247WAT     H224984   0.605   7.668   3.271
 8248WAT      O24985   6.599   7.291   3.850
 8248WAT     H124986   6.560   7.312   3.760
 8248WAT     H224987   6.660   7.365   3.878
 8249WAT      O24988   8.521   0.565   6.509
 8249WAT     H124989   8.578   0.484   6.516
 8249WAT     H224990   8.533   0.606   6.419
 8250WAT      O24991   9.531   5.576   6.628
 8250WAT     H124992   9.593   5.570   6.707
 8250WAT     H224993   9.436   5.576   6.660
 8251WAT      O24994   2.329   1.527   9.659
 8251WAT     H124995   2.393   1.461   9.698
 8251WAT     H224996   2.360   1.620   9.681
 8252WAT      O24997   2.268   9.391   9.413
 8252WAT     H124998   2.307   9.425   9.327
 8252WAT     H224999   2.266   9.464   9.480
 8253WAT      O25000   5.790   3.821   4.703
 8253WAT     H125001   5.734   3.896   4.737
 8253WAT     H225002   5.863   3.801   4.770
 8254WAT      O25003   8.290   1.564   1.037
 8254WAT     H125004   8.376   1.605   1.066
 8254WAT     H225005   8.300   1.527   0.945
 8255WAT      O25006   5.500   8.417   2.724
 8255WAT     H125007   5.543   8.440   2.637
 8255WAT     H225008   5.406   8.450   2.725
 8256WAT      O25009   2.798   4.470   5.366
 8256WAT     H125010   2.765   4.417   5.444
 8256WAT     H225011   2.722   4.522   5.326
 8257WAT      O25012   0.435   5.693   6.492
 8257WAT     H125013   0.358   5.680   6.430
 8257WAT     H225014   0.426   5.632   6.570
 8258WAT      O25015   2.238   1.445   8.495
 8258WAT     H125016   2.310   1.513   8.479
 8258WAT     H225017   2.224   1.392   8.411
 8259WAT      O25018   6.532   6.362   8.691
 8259WAT     H125019   6.570   6.356   8.783
 8259WAT     H225020   6.554   6.450   8.651
 8260WAT      O25021   0.287   2.318   3.575
 8260WAT     H125022   0.317   2.230   3.539
 8260WAT     H225023   0.236   2.368   3.504
 8261WAT      O25024   6.886   3.360   2.882
 8261WAT     H125025   6.825   3.431   2.918
 8261WAT     H225026   6.883   3.280   2.942
 8262WAT      O25027   4.365   4.247   1.718
 8262WAT     H125028   4.425   4.171   1.742
 8262WAT     H225029   4.270   4.219   1.728
 8263WAT      O25030   5.315   8.074   2.705
 8263WAT     H125031   5.345   8.066   2.610
 8263WAT     H225032   5.230   8.023   2.717
 8264WAT      O25033   1.149   0.367   4.866
 8264WAT     H125034   1.177   0.458   4.836
 8264WAT     H225035   1.227   0.321   4.909
 8265WAT      O25036   8.200   4.752   7.996
 8265WAT     H125037   8.275   4.765   7.931
 8265WAT     H225038   8.113   4.747   7.946
 8266WAT      O25039   1.237   6.551   7.817
 8266WAT     H125040   1.178   6.471   7.815
 8266WAT     H225041   1.195   6.625   7.764
 8267WAT      O25042   9.079   6.276   1.625
 8267WAT     H125043   9.074   6.241   1.532
 8267WAT     H225044   9.094   6.374   1.623
 8268WAT      O25045   2.998   4.104   8.979
 8268WAT     H125046   2.946   4.045   8.918
 8268WAT     H225047   3.027   4.186   8.930
 8269WAT      O25048   9.694   9.091   6.789
 8269WAT     H125049   9.789   9.067   6.772
 8269WAT     H225050   9.654   9.027   6.854
 8270WAT      O25051   8.050   3.762   4.403
 8270WAT     H125052   7.987   3.775   4.327
 8270WAT     H225053   8.109   3.684   4.384
 8271WAT      O25054   1.826   6.232   3.993
 8271WAT     H125055   1.764   6.182   3.932
 8271WAT     H225056   1.920   6.219   3.963
 8272WAT      O25057   9.446   0.224   3.933
 8272WAT     H125058   9.388   0.296   3.895
 8272WAT     H225059   9.529   0.266   3.972
 8273WAT      O25060   8.373   8.000   3.709
 8273WAT     H125061   8.341   7.975   3.801
 8273WAT     H225062   8.390   7.917   3.656
 8274WAT      O25063   8.483   1.015   8.992
 8274WAT     H125064   8.499   1.112   8.974
 8274WAT     H225065   8.460   1.002   9.088
 8275WAT      O25066   7.847   2.829   4.081
 8275WAT     H125067   7.846   2.888   4.161
 8275WAT     H225068   7.754   2.810   4.052
 8276WAT      O25069   4.023   7.774   8.042
 8276WAT     H125070   4.074   7.689   8.031
 8276WAT     H225071   3.937   7.768   7.991
 8277WAT      O25072   7.613   7.645   2.728
 8277WAT     H125073   7.573   7.579   2.665
 8277WAT     H225074   7.613   7.736   2.685
 8278WAT      O25075   0.567   1.118   8.251
 8278WAT     H125076   0.522   1.048   8.308
 8278WAT     H225077   0.600   1.075   8.167
 8279WAT      O25078   3.706   2.971   5.535
 8279WAT     H125079   3.678   3.046   5.594
 8279WAT     H225080   3.639   2.897   5.540
 8280WAT      O25081   8.098   2.561   6.032
 8280WAT     H125082   8.075   2.467   6.007
 8280WAT     H225083   8.027   2.600   6.090
 8281WAT      O25084   9.716   8.259   3.970
 8281WAT     H125085   9.760   8.349   3.970
 8281WAT     H225086   9.622   8.267   3.938
 8282WAT      O25087   6.400   5.398   5.508
 8282WAT     H125088   6.437   5.452   5.432
 8282WAT     H225089   6.339   5.327   5.471
 8283WAT      O25090   9.360   0.475   2.418
 8283WAT     H125091   9.340   0.387   2.460
 8283WAT     H225092   9.400   0.461   2.327
 8284WAT      O25093   4.953   8.179   1.736
 8284WAT     H125094   4.993   8.101   1.688
 8284WAT     H225095   4.913   8.149   1.822
 8285WAT      O25096   8.991   8.434   1.045
 8285WAT     H125097   9.006   8.439   1.144
 8285WAT     H225098   8.894   8.449   1.025
 8286WAT      O25099   5.283   5.429   5.880
 8286WAT     H125100   5.318   5.493   5.948
 8286WAT     H225101   5.191   5.456   5.853
 8287WAT      O25102   2.826   3.196   9.435
 8287WAT     H125103   2.878   3.275   9.470
 8287WAT     H225104   2.798   3.139   9.512
 8288WAT      O25105   1.539   5.140   8.865
 8288WAT     H125106   1.627   5.099   8.888
 8288WAT     H225107   1.544   5.239   8.878
 8289WAT      O25108   1.570   6.837   1.661
 8289WAT     H125109   1.560   6.906   1.590
 8289WAT     H225110   1.649   6.859   1.718
 8290WAT      O25111   6.773   3.169   5.605
 8290WAT     H125112   6.761   3.113   5.524
 8290WAT     H225113   6.684   3.207   5.633
 8291WAT      O25114   1.601   0.966   3.926
 8291WAT     H125115   1.538   0.901   3.885
 8291WAT     H225116   1.648   0.924   4.004
 8292WAT      O25117   1.187   2.614   8.926
 8292WAT     H125118   1.171   2.526   8.970
 8292WAT     H225119   1.229   2.599   8.836
 8293WAT      O25120   7.190   5.012   4.732
 8293WAT     H125121   7.273   5.057   4.765
 8293WAT     H225122   7.138   4.977   4.810
 8294WAT      O25123   4.976   0.666   1.810
 8294WAT     H125124   4.977   0.722   1.893
 8294WAT     H225125   5.057   0.684   1.755
 8295WAT      O25126   5.758   1.974   0.140
 8295WAT     H125127   5.787   2.013   0.052
 8295WAT     H225128   5.824   1.999   0.211
 8296WAT      O25129   9.602   7.489   2.087
 8296WAT     H125130   9.673   7.423   2.109
 8296WAT     H225131   9.642   7.564   2.034
 8297WAT      O25132   7.978   5.205   5.768
 8297WAT     H125133   7.912   5.270   5.730
 8297WAT     H225134   8.054   5.255   5.808
 8298WAT      O25135   4.446   6.534   1.068
 8298WAT     H125136   4.476   6.438   1.072
 8298WAT     H225137   4.356   6.542   1.113
 8299WAT      O25138   1.617   2.456   6.211
 8299WAT     H125139   1.711   2.447   6.178
 8299WAT     H225140   1.614   2.436   6.309
 8300WAT      O25141   0.743   1.462   8.950
 8300WAT     H125142   0.806   1.533   8.920
 8300WAT     H225143   0.657   1.503   8.979
 8301WAT      O25144   9.697   0.700   3.516
 8301WAT     H125145   9.642   0.732   3.593
 8301WAT     H225146   9.715   0.602   3.527
 8302WAT      O25147   0.766   0.729   7.709
 8302WAT     H125148   0.698   0.793   7.674
 8302WAT     H225149   0.817   0.771   7.784
 8303WAT      O25150   1.642   7.768   3.986
 8303WAT     H125151   1.597   7.679   3.981
 8303WAT     H225152   1.718   7.771   3.922
 8304WAT      O25153   4.412   1.874   9.524
 8304WAT     H125154   4.410   1.787   9.574
 8304WAT     H225155   4.354   1.867   9.443
 8305WAT      O25156   6.527   5.256   7.006
 8305WAT     H125157   6.601   5.263   6.939
 8305WAT     H225158   6.535   5.330   7.073
 8306WAT      O25159   3.308   7.910   0.862
 8306WAT     H125160   3.315   7.976   0.937
 8306WAT     H225161   3.213   7.880   0.852
 8307WAT      O25162   2.135   5.722   1.575
 8307WAT     H125163   2.072   5.783   1.623
 8307WAT     H225164   2.228   5.737   1.607
 8308WAT      O25165   1.997   8.909   5.807
 8308WAT     H125166   2.074   8.973   5.814
 8308WAT     H225167   1.995   8.851   5.888
 8309WAT      O25168   4.145   8.528   2.651
 8309WAT     H125169   4.153   8.617   2.696
 8309WAT     H225170   4.178   8.456   2.712
 8310WAT      O25171   0.394   9.052   1.012
 8310WAT     H125172   0.447   8.995   0.949
 8310WAT     H225173   0.299   9.055   0.982
 8311WAT      O25174   3.119   6.165   7.568
 8311WAT     H125175   3.150   6.229   7.639
 8311WAT     H225176   3.127   6.208   7.478
 8312WAT      O25177   2.241   7.325   7.713
 8312WAT     H125178   2.167   7.287   7.657
 8312WAT     H225179   2.202   7.369   7.794
 8313WAT      O25180   5.638   8.187   0.639
 8313WAT     H125181   5.620   8.162   0.544
 8313WAT     H225182   5.737   8.183   0.657
 8314WAT      O25183   1.578   6.549   2.746
 8314WAT     H125184   1.652   6.614   2.733
 8314WAT     H225185   1.551   6.510   2.658
 8315WAT      O25186   7.062   5.225   9.840
 8315WAT     H125187   7.130   5.261   9.776
 8315WAT     H225188   7.032   5.134   9.811
 8316WAT      O25189   3.683   1.911   0.571
 8316WAT     H125190   3.623   1.856   0.630
 8316WAT     H225191   3.676   2.007   0.598
 8317WAT      O25192   4.838   0.486   9.392
 8317WAT     H125193   4.870   0.547   9.319
 8317WAT     H225194   4.834   0.537   9.478
 8318WAT      O25195   6.441   0.146   9.242
 8318WAT     H125196   6.404   0.067   9.292
 8318WAT     H225197   6.407   0.145   9.148
 8319WAT      O25198   6.229   7.161   3.284
 8319WAT     H125199   6.238   7.233   3.353
 8319WAT     H225200   6.139   7.118   3.293
 8320WAT      O25201   7.127   7.983   7.242
 8320WAT     H125202   7.123   7.974   7.342
 8320WAT     H225203   7.035   8.003   7.207
 8321WAT      O25204   1.030   5.156   0.046
 8321WAT     H125205   1.047   5.210   0.128
 8321WAT     H225206   1.052   5.060   0.064
 8322WAT      O25207   8.901   6.718   2.936
 8322WAT     H125208   8.886   6.695   2.839
 8322WAT     H225209   8.869   6.811   2.953
 8323WAT      O25210   7.206   9.412   2.347
 8323WAT     H125211   7.186   9.476   2.422
 8323WAT     H225212   7.148   9.331   2.357
 8324WAT      O25213   6.163   7.368   7.786
 8324WAT     H125214   6.093   7.309   7.744
 8324WAT     H225215   6.159   7.459   7.745
 8325WAT      O25216   6.309   1.965   8.315
 8325WAT     H125217   6.246   1.945   8.390
 8325WAT     H225218   6.256   1.981   8.231
 8326WAT      O25219   7.034   7.561   0.810
 8326WAT     H125220   7.094   7.510   0.748
 8326WAT     H225221   7.089   7.611   0.877
 8327WAT      O25222   4.374   6.266   1.286
 8327WAT     H125223   4.352   6.177   1.325
 8327WAT     H225224   4.431   6.253   1.205
 8328WAT      O25225   3.866   9.506   8.294
 8328WAT     H125226   3.842   9.597   8.261
 8328WAT     H225227   3.795   9.440   8.268
 8329WAT      O25228   6.863   1.188   1.705
 8329WAT     H125229   6.929   1.262   1.692
 8329WAT     H225230   6.804   1.181   1.625
 8330WAT      O25231   1.251   8.748   1.028
 8330WAT     H125232   1.344   8.748   1.066
 8330WAT     H225233   1.200   8.826   1.065
 8331WAT      O25234   5.583   2.150   3.727
 8331WAT     H125235   5.548   2.087   3.796
 8331WAT     H225236   5.511   2.213   3.700
 8332WAT      O25237   2.824   3.842   7.263
 8332WAT     H125238   2.733   3.873   7.233
 8332WAT     H225239   2.827   3.841   7.363
 8333WAT      O25240   3.524   9.040   2.981
 8333WAT     H125241   3.557   9.131   2.958
 8333WAT     H225242   3.585   8.999   3.049
 8334WAT      O25243   9.326   6.091   8.683
 8334WAT     H125244   9.343   6.037   8.600
 8334WAT     H225245   9.355   6.185   8.669
 8335WAT      O25246   4.137   7.557   9.744
 8335WAT     H125247   4.076   7.616   9.798
 8335WAT     H225248   4.232   7.586   9.757
 8336WAT      O25249   1.244   3.825   0.670
 8336WAT     H125250   1.333   3.870   0.661
 8336WAT     H225251   1.256   3.737   0.716
 8337WAT      O25252   8.296   0.524   7.132
 8337WAT     H125253   8.201   0.535   7.163
 8337WAT     H225254   8.356   0.515   7.211
 8338WAT      O25255   7.495   0.540   3.852
 8338WAT     H125256   7.580   0.492   3.830
 8338WAT     H225257   7.516   0.619   3.911
 8339WAT      O25258   3.491   5.909   8.853
 8339WAT     H125259   3.453   5.938   8.765
 8339WAT     H225260   3.455   5.969   8.925
 8340WAT      O25261   6.330   9.104   1.629
 8340WAT     H125262   6.239   9.064   1.617
 8340WAT     H225263   6.380   9.100   1.543
 8341WAT      O25264   3.809   6.502   8.698
 8341WAT     H125265   3.733   6.447   8.664
 8341WAT     H225266   3.870   6.445   8.753
 8342WAT      O25267   6.406   6.090   4.555
 8342WAT     H125268   6.349   6.010   4.535
 8342WAT     H225269   6.388   6.161   4.487
 8343WAT      O25270   1.181   9.628   2.780
 8343WAT     H125271   1.088   9.619   2.816
 8343WAT     H225272   1.245   9.633   2.856
 8344WAT      O25273   5.245   5.752   8.389
 8344WAT     H125274   5.226   5.673   8.446
 8344WAT     H225275   5.163   5.809   8.382
 8345WAT      O25276   8.623   1.037   6.035
 8345WAT     H125277   8.634   1.061   6.131
 8345WAT     H225278   8.576   1.111   5.987
 8346WAT      O25279   9.785   3.462   4.555
 8346WAT     H125280   9.690   3.438   4.577
 8346WAT     H225281   9.820   3.400   4.485
 8347WAT      O25282   9.081   7.554   8.372
 8347WAT     H125283   9.031   7.597   8.447
 8347WAT     H225284   9.050   7.460   8.361
 8348WAT      O25285   5.459   1.699   4.655
 8348WAT     H125286   5.451   1.797   4.674
 8348WAT     H225287   5.393   1.673   4.585
 8349WAT      O25288   4.172   2.337   0.360
 8349WAT     H125289   4.208   2.412   0.305
 8349WAT     H225290   4.086   2.304   0.319
 8350WAT      O25291   7.372   1.052   9.445
 8350WAT     H125292   7.420   1.120   9.389
 8350WAT     H225293   7.318   1.098   9.515
 8351WAT      O25294   9.002   3.191   0.996
 8351WAT     H125295   8.955   3.206   0.909
 8351WAT     H225296   9.100   3.185   0.980
 8352WAT      O25297   4.849   9.470   6.043
 8352WAT     H125298   4.919   9.413   6.000
 8352WAT     H225299   4.871   9.567   6.028
 8353WAT      O25300   5.926   9.487   8.958
 8353WAT     H125301   5.975   9.561   9.003
 8353WAT     H225302   5.939   9.493   8.859
 8354WAT      O25303   1.556   0.747   9.693
 8354WAT     H125304   1.635   0.700   9.734
 8354WAT     H225305   1.478   0.739   9.754
 8355WAT      O25306   2.064   9.116   2.634
 8355WAT     H125307   2.082   9.053   2.559
 8355WAT     H225308   2.120   9.198   2.624
 8356WAT      O25309   1.313   6.525   6.080
 8356WAT     H125310   1.221   6.521   6.119
 8356WAT     H225311   1.349   6.618   6.090
 8357WAT      O25312   1.074   5.681   6.088
 8357WAT     H125313   1.058   5.605   6.025
 8357WAT     H225314   1.161   5.724   6.067
 8358WAT      O25315   7.123   4.235   2.570
 8358WAT     H125316   7.084   4.237   2.662
 8358WAT     H225317   7.050   4.254   2.503
 8359WAT      O25318   4.688   7.114   2.763
 8359WAT     H125319   4.734   7.201   2.777
 8359WAT     H225320   4.591   7.130   2.744
 8360WAT      O25321   4.183   8.273   7.043
 8360WAT     H125322   4.160   8.362   7.083
 8360WAT     H225323   4.156   8.200   7.106
 8361WAT      O25324   4.860   0.161   4.540
 8361WAT     H125325   4.789   0.162   4.469
 8361WAT     H225326   4.852   0.077   4.593
 8362WAT      O25327   8.497   0.625   8.979
 8362WAT     H125328   8.399   0.635   8.966
 8362WAT     H225329   8.515   0.559   9.053
 8363WAT      O25330   6.354   2.029   6.130
 8363WAT     H125331   6.337   2.126   6.118
 8363WAT     H225332   6.453   2.014   6.140
 8364WAT      O25333   8.604   0.018   3.971
 8364WAT     H125334   8.607  -0.080   3.952
 8364WAT     H225335   8.595   0.068   3.885
 8365WAT      O25336   1.241   7.691   7.340
 8365WAT     H125337   1.235   7.633   7.421
 8365WAT     H225338   1.161   7.751   7.337
 8366WAT      O25339   2.530   3.047   1.728
 8366WAT     H125340   2.435   3.026   1.708
 8366WAT     H225341   2.538   3.142   1.759
 8367WAT      O25342   8.242   2.825   7.245
 8367WAT     H125343   8.252   2.735   7.289
 8367WAT     H225344   8.286   2.823   7.155
 8368WAT      O25345   6.165   1.644   2.870
 8368WAT     H125346   6.095   1.612   2.934
 8368WAT     H225347   6.218   1.567   2.838
 8369WAT      O25348   2.247   5.137   2.087
 8369WAT     H125349   2.167   5.193   2.067
 8369WAT     H225350   2.281   5.095   2.003
 8370WAT      O25351   5.884   8.363   1.858
 8370WAT     H125352   5.963   8.322   1.905
 8370WAT     H225353   5.804   8.359   1.918
 8371WAT      O25354   5.888   8.100   3.485
 8371WAT     H125355   5.790   8.078   3.490
 8371WAT     H225356   5.934   8.068   3.567
 8372WAT      O25357   0.331   7.368   9.771
 8372WAT     H125358   0.395   7.425   9.720
 8372WAT     H225359   0.247   7.356   9.719
 8373WAT      O25360   4.691   4.654   0.682
 8373WAT     H125361   4.650   4.736   0.723
 8373WAT     H225362   4.724   4.593   0.754
 8374WAT      O25363   6.014   6.385   1.987
 8374WAT     H125364   6.030   6.462   1.925
 8374WAT     H225365   5.945   6.325   1.948
 8375WAT      O25366   4.398   3.657   2.840
 8375WAT     H125367   4.492   3.683   2.817
 8375WAT     H225368   4.352   3.621   2.759
 8376WAT      O25369   8.366   1.419   5.710
 8376WAT     H125370   8.299   1.415   5.784
 8376WAT     H225371   8.396   1.513   5.696
 8377WAT      O25372   3.524   2.737   0.353
 8377WAT     H125373   3.585   2.799   0.305
 8377WAT     H225374   3.574   2.655   0.381
 8378WAT      O25375   9.249   3.177   9.513
 8378WAT     H125376   9.317   3.239   9.474
 8378WAT     H225377   9.294   3.093   9.543
 8379WAT      O25378   5.681   9.604   8.532
 8379WAT     H125379   5.776   9.631   8.541
 8379WAT     H225380   5.625   9.653   8.600
 8380WAT      O25381   6.596   9.155   9.438
 8380WAT     H125382   6.569   9.251   9.431
 8380WAT     H225383   6.588   9.125   9.533
 8381WAT      O25384   2.030   0.175   6.347
 8381WAT     H125385   1.975   0.095   6.370
 8381WAT     H225386   2.127   0.153   6.357
 8382WAT      O25387   9.805   9.125   8.182
 8382WAT     H125388   9.842   9.140   8.274
 8382WAT     H225389   9.770   9.032   8.175
 8383WAT      O25390   1.606   6.701   5.888
 8383WAT     H125391   1.656   6.616   5.871
 8383WAT     H225392   1.565   6.733   5.803
 8384WAT      O25393   4.630   0.186   1.037
 8384WAT     H125394   4.554   0.243   1.069
 8384WAT     H225395   4.692   0.242   0.982
 8385WAT      O25396   3.695   5.276   1.312
 8385WAT     H125397   3.634   5.198   1.328
 8385WAT     H225398   3.650   5.341   1.250
 8386WAT      O25399   7.217   5.405   2.458
 8386WAT     H125400   7.131   5.355   2.467
 8386WAT     H225401   7.230   5.434   2.364
 8387WAT      O25402   8.567   3.187   0.403
 8387WAT     H125403   8.603   3.259   0.463
 8387WAT     H225404   8.467   3.198   0.395
 8388WAT      O25405   8.082   2.379   8.674
 8388WAT     H125406   8.148   2.310   8.645
 8388WAT     H225407   8.117   2.427   8.754
 8389WAT      O25408   3.676   2.615   9.060
 8389WAT     H125409   3.648   2.690   9.000
 8389WAT     H225410   3.775   2.603   9.054
 8390WAT      O25411   1.984   7.461   0.430
 8390WAT     H125412   1.905   7.518   0.406
 8390WAT     H225413   1.952   7.381   0.481
 8391WAT      O25414   1.494   6.725   6.787
 8391WAT     H125415   1.425   6.659   6.756
 8391WAT     H225416   1.580   6.678   6.804
 8392WAT      O25417   2.482   5.196   3.596
 8392WAT     H125418   2.386   5.216   3.614
 8392WAT     H225419   2.516   5.256   3.523
 8393WAT      O25420   6.307   4.391   0.961
 8393WAT     H125421   6.222   4.421   1.005
 8393WAT     H225422   6.316   4.437   0.872
 8394WAT      O25423   7.376   6.364   4.127
 8394WAT     H125424   7.356   6.450   4.080
 8394WAT     H225425   7.471   6.338   4.108
 8395WAT      O25426   2.767   1.833   2.868
 8395WAT     H125427   2.778   1.751   2.923
 8395WAT     H225428   2.758   1.807   2.771
 8396WAT      O25429   7.106   6.028   6.432
 8396WAT     H125430   7.149   6.028   6.342
 8396WAT     H225431   7.029   6.092   6.432
 8397WAT      O25432   0.503   3.590   8.931
 8397WAT     H125433   0.554   3.576   9.016
 8397WAT     H225434   0.555   3.650   8.870
 8398WAT      O25435   3.068   6.804   8.118
 8398WAT     H125436   3.117   6.843   8.196
 8398WAT     H225437   3.019   6.876   8.070
 8399WAT      O25438   4.474   9.460   5.732
 8399WAT     H125439   4.412   9.503   5.666
 8399WAT     H225440   4.434   9.375   5.766
 8400WAT      O25441   5.291   4.910   7.378
 8400WAT     H125442   5.359   4.935   7.448
 8400WAT     H225443   5.199   4.922   7.416
 8401WAT      O25444   1.472   5.774   2.830
 8401WAT     H125445   1.388   5.782   2.776
 8401WAT     H225446   1.488   5.678   2.851
 8402WAT      O25447   3.620   9.270   7.740
 8402WAT     H125448   3.711   9.290   7.704
 8402WAT     H225449   3.599   9.173   7.724
 8403WAT      O25450   8.156   2.761   1.611
 8403WAT     H125451   8.214   2.708   1.550
 8403WAT     H225452   8.128   2.704   1.688
 8404WAT      O25453   1.698   0.931   0.699
 8404WAT     H125454   1.616   0.876   0.681
 8404WAT     H225455   1.715   0.991   0.621
 8405WAT      O25456   6.033   9.023   7.697
 8405WAT     H125457   5.997   8.939   7.656
 8405WAT     H225458   6.099   9.065   7.635
 8406WAT      O25459   8.919   4.744   1.576
 8406WAT     H125460   8.912   4.843   1.588
 8406WAT     H225461   8.913   4.699   1.665
 8407WAT      O25462   1.007   5.245   3.830
 8407WAT     H125463   1.073   5.287   3.767
 8407WAT     H225464   1.012   5.146   3.823
 8408WAT      O25465   4.232   7.131   5.090
 8408WAT     H125466   4.145   7.156   5.047
 8408WAT     H225467   4.281   7.068   5.030
 8409WAT      O25468   0.009   7.255   3.394
 8409WAT     H125469   0.086   7.309   3.359
 8409WAT     H225470  -0.029   7.299   3.475
 8410WAT      O25471   5.496   1.124   4.500
 8410WAT     H125472   5.495   1.165   4.592
 8410WAT     H225473   5.487   1.196   4.432
 8411WAT      O25474   4.162   0.111   0.948
 8411WAT     H125475   4.257   0.094   0.922
 8411WAT     H225476   4.138   0.054   1.026
 8412WAT      O25477   1.709   1.611   9.732
 8412WAT     H125478   1.704   1.711   9.741
 8412WAT     H225479   1.739   1.588   9.640
 8413WAT      O25480   1.955   2.927   8.647
 8413WAT     H125481   2.054   2.911   8.642
 8413WAT     H225482   1.909   2.871   8.579
 8414WAT      O25483   9.517   6.334   4.825
 8414WAT     H125484   9.566   6.421   4.838
 8414WAT     H225485   9.450   6.344   4.752
 8415WAT      O25486   5.450   8.363   3.458
 8415WAT     H125487   5.497   8.276   3.447
 8415WAT     H225488   5.373   8.352   3.521
 8416WAT      O25489   7.488   9.488   6.397
 8416WAT     H125490   7.408   9.505   6.455
 8416WAT     H225491   7.517   9.393   6.407
 8417WAT      O25492   6.513   5.299   1.244
 8417WAT     H125493   6.477   5.382   1.200
 8417WAT     H225494   6.437   5.248   1.285
 8418WAT      O25495   2.273   2.133   0.714
 8418WAT     H125496   2.311   2.163   0.627
 8418WAT     H225497   2.192   2.077   0.699
 8419WAT      O25498   8.968   4.775   3.880
 8419WAT     H125499   9.049   4.795   3.826
 8419WAT     H225500   8.993   4.720   3.960
 8420WAT      O25501   6.945   3.928   8.211
 8420WAT     H125502   6.947   3.961   8.116
 8420WAT     H225503   6.980   3.834   8.214
 8421WAT      O25504   7.216   6.541   9.861
 8421WAT     H125505   7.287   6.515   9.795
 8421WAT     H225506   7.187   6.460   9.912
 8422WAT      O25507   5.768   5.454   0.516
 8422WAT     H125508   5.824   5.403   0.582
 8422WAT     H225509   5.675   5.417   0.515
 8423WAT      O25510   3.992   2.138   2.070
 8423WAT     H125511   4.030   2.062   2.018
 8423WAT     H225512   4.051   2.218   2.061
 8424WAT      O25513   9.441   9.114   5.299
 8424WAT     H125514   9.485   9.184   5.242
 8424WAT     H225515   9.502   9.090   5.374
 8425WAT      O25516   5.367   0.265   4.777
 8425WAT     H125517   5.293   0.330   4.760
 8425WAT     H225518   5.347   0.179   4.730
 8426WAT      O25519   7.041   4.119   4.664
 8426WAT     H125520   7.043   4.069   4.578
 8426WAT     H225521   6.975   4.075   4.726
 8427WAT      O25522   6.627   8.153   2.069
 8427WAT     H125523   6.661   8.059   2.070
 8427WAT     H225524   6.619   8.186   2.163
 8428WAT      O25525   5.127   0.083   0.344
 8428WAT     H125526   5.105  -0.014   0.353
 8428WAT     H225527   5.044   0.137   0.358
 8429WAT      O25528   1.796   6.744   7.627
 8429WAT     H125529   1.799   6.687   7.709
 8429WAT     H225530   1.745   6.696   7.556
 8430WAT      O25531   5.442   7.375   3.806
 8430WAT     H125532   5.403   7.335   3.723
 8430WAT     H225533   5.425   7.313   3.883
 8431WAT      O25534   0.487   7.107   4.005
 8431WAT     H125535   0.572   7.145   3.969
 8431WAT     H225536   0.467   7.149   4.094
 8432WAT      O25537   1.999   3.155   4.283
 8432WAT     H125538   1.959   3.202   4.204
 8432WAT     H225539   2.049   3.074   4.252
 8433WAT      O25540   6.529   0.253   6.186
 8433WAT     H125541   6.450   0.293   6.231
 8433WAT     H225542   6.499   0.178   6.126
 8434WAT      O25543   7.083   3.169   3.892
 8434WAT     H125544   7.168   3.119   3.872
 8434WAT     H225545   7.012   3.105   3.921
 8435WAT      O25546   7.546   6.995   1.097
 8435WAT     H125547   7.592   7.082   1.078
 8435WAT     H225548   7.554   6.973   1.195
 8436WAT      O25549   5.275   9.219   5.139
 8436WAT     H125550   5.287   9.251   5.046
 8436WAT     H225551   5.314   9.127   5.148
 8437WAT      O25552   8.334   3.374   9.088
 8437WAT     H125553   8.260   3.315   9.120
 8437WAT     H225554   8.422   3.328   9.101
 8438WAT      O25555   2.502   8.661   4.052
 8438WAT     H125556   2.557   8.584   4.018
 8438WAT     H225557   2.533   8.745   4.009
 8439WAT      O25558   9.560   9.770   0.431
 8439WAT     H125559   9.622   9.703   0.390
 8439WAT     H225560   9.547   9.748   0.528
 8440WAT      O25561   0.028   6.352   5.784
 8440WAT     H125562  -0.011   6.352   5.876
 8440WAT     H225563   0.043   6.447   5.754
 8441WAT      O25564   6.775   6.269   1.600
 8441WAT     H125565   6.752   6.268   1.503
 8441WAT     H225566   6.733   6.191   1.645
 8442WAT      O25567   7.778   3.946   2.830
 8442WAT     H125568   7.704   4.009   2.853
 8442WAT     H225569   7.755   3.854   2.862
 8443WAT      O25570   8.836   4.024   3.800
 8443WAT     H125571   8.848   3.954   3.870
 8443WAT     H225572   8.785   3.986   3.723
 8444WAT      O25573   1.956   3.151   8.491
 8444WAT     H125574   1.955   3.059   8.530
 8444WAT     H225575   1.925   3.217   8.560
 8445WAT      O25576   5.454   4.741   9.789
 8445WAT     H125577   5.374   4.762   9.846
 8445WAT     H225578   5.445   4.786   9.700
 8446WAT      O25579   1.245   3.266   8.542
 8446WAT     H125580   1.279   3.176   8.570
 8446WAT     H225581   1.150   3.277   8.573
 8447WAT      O25582   2.113   4.577   0.870
 8447WAT     H125583   2.186   4.643   0.855
 8447WAT     H225584   2.152   4.484   0.873
 8448WAT      O25585   6.019   2.073   7.298
 8448WAT     H125586   6.116   2.099   7.293
 8448WAT     H225587   5.969   2.142   7.351
 8449WAT      O25588   3.600   4.645   9.427
 8449WAT     H125589   3.576   4.660   9.523
 8449WAT     H225590   3.695   4.614   9.421
 8450WAT      O25591   9.776   5.116   1.890
 8450WAT     H125592   9.805   5.039   1.947
 8450WAT     H225593   9.834   5.120   1.808
 8451WAT      O25594   8.183   7.654   5.680
 8451WAT     H125595   8.158   7.559   5.661
 8451WAT     H225596   8.146   7.681   5.769
 8452WAT      O25597   1.252   0.035   5.177
 8452WAT     H125598   1.269   0.015   5.273
 8452WAT     H225599   1.192  -0.035   5.138
 8453WAT      O25600   3.996   5.322   1.630
 8453WAT     H125601   4.038   5.233   1.608
 8453WAT     H225602   4.068   5.390   1.646
 8454WAT      O25603   4.777   2.751   1.773
 8454WAT     H125604   4.835   2.788   1.845
 8454WAT     H225605   4.813   2.778   1.684
 8455WAT      O25606   0.440   1.276   9.643
 8455WAT     H125607   0.396   1.356   9.683
 8455WAT     H225608   0.487   1.224   9.714
 8456WAT      O25609   6.582   6.378   9.780
 8456WAT     H125610   6.671   6.424   9.784
 8456WAT     H225611   6.568   6.341   9.689
 8457WAT      O25612   8.651   7.306   9.120
 8457WAT     H125613   8.726   7.371   9.114
 8457WAT     H225614   8.678   7.220   9.077
 8458WAT      O25615   0.569   1.484   8.445
 8458WAT     H125616   0.531   1.549   8.380
 8458WAT     H225617   0.644   1.434   8.402
 8459WAT      O25618   6.778   7.475   7.114
 8459WAT     H125619   6.872   7.441   7.119
 8459WAT     H225620   6.752   7.486   7.018
 8460WAT      O25621   5.448   7.642   7.798
 8460WAT     H125622   5.486   7.596   7.718
 8460WAT     H225623   5.389   7.579   7.848
 8461WAT      O25624   5.974   8.939   6.037
 8461WAT     H125625   6.026   9.024   6.043
 8461WAT     H225626   6.034   8.865   6.006
 8462WAT      O25627   5.513   1.791   3.634
 8462WAT     H125628   5.464   1.705   3.622
 8462WAT     H225629   5.597   1.775   3.686
 8463WAT      O25630   5.248   7.578   3.844
 8463WAT     H125631   5.322   7.515   3.821
 8463WAT     H225632   5.287   7.661   3.885
 8464WAT      O25633   5.119   6.832   3.783
 8464WAT     H125634   5.135   6.930   3.768
 8464WAT     H225635   5.194   6.795   3.838
 8465WAT      O25636   7.360   5.569   4.715
 8465WAT     H125637   7.357   5.557   4.616
 8465WAT     H225638   7.278   5.618   4.745
 8466WAT      O25639   0.314   4.575   4.965
 8466WAT     H125640   0.306   4.537   4.872
 8466WAT     H225641   0.322   4.500   5.031
 8467WAT      O25642   3.780   3.327   7.439
 8467WAT     H125643   3.782   3.285   7.348
 8467WAT     H225644   3.751   3.259   7.507
 8468WAT      O25645   0.449   3.368   8.788
 8468WAT     H125646   0.476   3.452   8.834
 8468WAT     H225647   0.437   3.386   8.690
 8469WAT      O25648   4.074   7.956   6.115
 8469WAT     H125649   4.107   7.908   6.196
 8469WAT     H225650   4.037   7.889   6.050
 8470WAT      O25651   3.740   0.210   0.947
 8470WAT     H125652   3.674   0.141   0.917
 8470WAT     H225653   3.734   0.290   0.887
 8471WAT      O25654   8.645   6.269   4.067
 8471WAT     H125655   8.718   6.326   4.103
 8471WAT     H225656   8.557   6.315   4.080
 8472WAT      O25657   1.570   3.896   0.335
 8472WAT     H125658   1.562   3.874   0.432
 8472WAT     H225659   1.498   3.960   0.309
 8473WAT      O25660   1.253   2.393   6.455
 8473WAT     H125661   1.257   2.293   6.454
 8473WAT     H225662   1.294   2.429   6.371
 8474WAT      O25663   5.883   8.688   3.199
 8474WAT     H125664   5.807   8.628   3.173
 8474WAT     H225665   5.852   8.751   3.271
 8475WAT      O25666   7.315   8.520   8.231
 8475WAT     H125667   7.350   8.492   8.320
 8475WAT     H225668   7.239   8.461   8.204
 8476WAT      O25669   3.399   6.618   0.419
 8476WAT     H125670   3.486   6.648   0.459
 8476WAT     H225671   3.400   6.636   0.320
 8477WAT      O25672   1.149   6.626   4.538
 8477WAT     H125673   1.090   6.694   4.494
 8477WAT     H225674   1.094   6.548   4.567
 8478WAT      O25675   3.485   1.207   1.542
 8478WAT     H125676   3.427   1.242   1.468
 8478WAT     H225677   3.508   1.282   1.603
 8479WAT      O25678   1.645   5.885   1.430
 8479WAT     H125679   1.591   5.952   1.380
 8479WAT     H225680   1.585   5.827   1.486
 8480WAT      O25681   7.287   7.653   6.765
 8480WAT     H125682   7.348   7.722   6.727
 8480WAT     H225683   7.263   7.587   6.694
 8481WAT      O25684   2.833   6.594   2.506
 8481WAT     H125685   2.790   6.622   2.420
 8481WAT     H225686   2.835   6.671   2.569
 8482WAT      O25687   1.680   2.053   2.864
 8482WAT     H125688   1.592   2.052   2.816
 8482WAT     H225689   1.740   1.984   2.825
 8483WAT      O25690   1.051   0.649   2.574
 8483WAT     H125691   1.107   0.619   2.497
 8483WAT     H225692   1.078   0.742   2.600
 8484WAT      O25693   3.455   9.714   9.883
 8484WAT     H125694   3.460   9.814   9.886
 8484WAT     H225695   3.432   9.680   9.974
 8485WAT      O25696   9.837   9.645   8.687
 8485WAT     H125697   9.749   9.684   8.662
 8485WAT     H225698   9.877   9.599   8.608
 8486WAT      O25699   2.913   1.377   2.309
 8486WAT     H125700   2.832   1.429   2.338
 8486WAT     H225701   2.908   1.284   2.346
 8487WAT      O25702   1.403   8.432   1.387
 8487WAT     H125703   1.484   8.460   1.438
 8487WAT     H225704   1.334   8.505   1.393
 8488WAT      O25705   1.164   4.682   7.672
 8488WAT     H125706   1.114   4.701   7.756
 8488WAT     H225707   1.167   4.584   7.656
 8489WAT      O25708   2.525   0.309   2.504
 8489WAT     H125709   2.466   0.275   2.431
 8489WAT     H225710   2.516   0.409   2.511
 8490WAT      O25711   9.037   8.898   1.748
 8490WAT     H125712   9.103   8.828   1.719
 8490WAT     H225713   9.086   8.978   1.782
 8491WAT      O25714   1.949   8.475   7.093
 8491WAT     H125715   1.872   8.536   7.074
 8491WAT     H225716   1.983   8.491   7.185
 8492WAT      O25717   5.981   6.089   3.647
 8492WAT     H125718   5.934   6.013   3.604
 8492WAT     H225719   6.032   6.056   3.727
 8493WAT      O25720   8.221   3.203   2.761
 8493WAT     H125721   8.217   3.303   2.761
 8493WAT     H225722   8.128   3.166   2.768
 8494WAT      O25723   4.139   5.602   0.947
 8494WAT     H125724   4.067   5.571   1.009
 8494WAT     H225725   4.103   5.676   0.889
 8495WAT      O25726   0.559   9.000   5.446
 8495WAT     H125727   0.644   8.992   5.393
 8495WAT     H225728   0.577   9.055   5.528
 8496WAT      O25729   8.523   8.398   0.925
 8496WAT     H125730   8.472   8.436   1.002
 8496WAT     H225731   8.535   8.300   0.937
 8497WAT      O25732   1.223   1.299   4.151
 8497WAT     H125733   1.255   1.339   4.237
 8497WAT     H225734   1.189   1.372   4.091
 8498WAT      O25735   7.484   1.862   7.432
 8498WAT     H125736   7.531   1.808   7.502
 8498WAT     H225737   7.514   1.958   7.439
 8499WAT      O25738   8.763   4.869   8.619
 8499WAT     H125739   8.688   4.810   8.592
 8499WAT     H225740   8.756   4.957   8.572
 8500WAT      O25741   6.001   8.764   9.041
 8500WAT     H125742   6.055   8.788   8.961
 8500WAT     H225743   5.969   8.848   9.086
 8501WAT      O25744   6.281   7.265   1.811
 8501WAT     H125745   6.276   7.182   1.868
 8501WAT     H225746   6.202   7.323   1.830
 8502WAT      O25747   8.474   9.288   0.515
 8502WAT     H125748   8.399   9.228   0.487
 8502WAT     H225749   8.453   9.326   0.605
 8503WAT      O25750   2.774   0.642   5.653
 8503WAT     H125751   2.726   0.651   5.740
 8503WAT     H225752   2.803   0.732   5.622
 8504WAT      O25753   3.302   8.599   0.921
 8504WAT     H125754   3.208   8.632   0.934
 8504WAT     H225755   3.300   8.500   0.908
 8505WAT      O25756   4.233   6.149   2.378
 8505WAT     H125757   4.142   6.167   2.341
 8505WAT     H225758   4.235   6.057   2.418
 8506WAT      O25759   4.198   0.993   3.743
 8506WAT     H125760   4.270   1.003   3.675
 8506WAT     H225761   4.135   1.071   3.737
 8507WAT      O25762   4.128   7.643   4.137
 8507WAT     H125763   4.049   7.596   4.097
 8507WAT     H225764   4.100   7.734   4.168
 8508WAT      O25765   6.236   5.256   6.649
 8508WAT     H125766   6.155   5.267   6.706
 8508WAT     H225767   6.254   5.159   6.634
 8509WAT      O25768   0.687   4.541   9.690
 8509WAT     H125769   0.646   4.587   9.612
 8509WAT     H225770   0.717   4.610   9.757
 8510WAT      O25771   2.380   5.707   9.750
 8510WAT     H125772   2.344   5.616   9.730
 8510WAT     H225773   2.367   5.766   9.670
 8511WAT      O25774   3.279   8.698   2.040
 8511WAT     H125775   3.237   8.762   1.976
 8511WAT     H225776   3.225   8.614   2.043
 8512WAT      O25777   3.850   7.447   3.195
 8512WAT     H125778   3.763   7.491   3.177
 8512WAT     H225779   3.880   7.396   3.114
 8513WAT      O25780   7.124   4.548   1.500
 8513WAT     H125781   7.180   4.611   1.554
 8513WAT     H225782   7.039   4.593   1.475
 8514WAT      O25783   8.531   1.871   7.302
 8514WAT     H125784   8.616   1.923   7.295
 8514WAT     H225785   8.469   1.898   7.228
 8515WAT      O25786   7.493   7.563   3.099
 8515WAT     H125787   7.507   7.489   3.033
 8515WAT     H225788   7.463   7.525   3.186
 8516WAT      O25789   3.945   9.628   0.219
 8516WAT     H125790   3.985   9.706   0.268
 8516WAT     H225791   3.854   9.609   0.256
 8517WAT      O25792   6.251   0.127   4.701
 8517WAT     H125793   6.248   0.140   4.800
 8517WAT     H225794   6.161   0.100   4.667
 8518WAT      O25795   3.250   4.718   6.324
 8518WAT     H125796   3.303   4.693   6.243
 8518WAT     H225797   3.154   4.696   6.310
 8519WAT      O25798   8.958   7.293   5.597
 8519WAT     H125799   8.887   7.351   5.636
 8519WAT     H225800   8.989   7.228   5.666
 8520WAT      O25801   6.126   5.384   3.508
 8520WAT     H125802   6.062   5.374   3.585
 8520WAT     H225803   6.079   5.426   3.431
 8521WAT      O25804   7.107   8.854   3.147
 8521WAT     H125805   7.013   8.821   3.133
 8521WAT     H225806   7.121   8.937   3.095
 8522WAT      O25807   1.118   5.895   1.111
 8522WAT     H125808   1.186   5.963   1.086
 8522WAT     H225809   1.164   5.815   1.149
 8523WAT      O25810   9.345   4.874   4.392
 8523WAT     H125811   9.427   4.927   4.412
 8523WAT     H225812   9.327   4.811   4.468
 8524WAT      O25813   6.644   4.615   6.797
 8524WAT     H125814   6.723   4.631   6.855
 8524WAT     H225815   6.598   4.531   6.825
 8525WAT      O25816   9.622   8.237   0.947
 8525WAT     H125817   9.703   8.214   0.893
 8525WAT     H225818   9.632   8.197   1.039
 8526WAT      O25819   9.037   6.230   2.311
 8526WAT     H125820   9.042   6.299   2.384
 8526WAT     H225821   9.038   6.276   2.222
 8527WAT      O25822   2.759   8.937   1.843
 8527WAT     H125823   2.826   8.945   1.769
 8527WAT     H225824   2.786   8.996   1.919
 8528WAT      O25825   2.244   2.843   3.554
 8528WAT     H125826   2.182   2.921   3.569
 8528WAT     H225827   2.338   2.870   3.574
 8529WAT      O25828   1.085   7.655   5.490
 8529WAT     H125829   1.005   7.600   5.465
 8529WAT     H225830   1.108   7.638   5.586
 8530WAT      O25831   2.891   0.611   0.843
 8530WAT     H125832   2.943   0.533   0.808
 8530WAT     H225833   2.891   0.608   0.943
 8531WAT      O25834   6.483   8.225   8.187
 8531WAT     H125835   6.524   8.161   8.251
 8531WAT     H225836   6.430   8.293   8.237
 8532WAT      O25837   8.732   0.298   0.540
 8532WAT     H125838   8.693   0.254   0.621
 8532WAT     H225839   8.728   0.397   0.552
 8533WAT      O25840   3.944   0.344   7.466
 8533WAT     H125841   3.936   0.440   7.491
 8533WAT     H225842   4.026   0.331   7.409
 8534WAT      O25843   6.074   9.097   9.177
 8534WAT     H125844   6.019   9.074   9.258
 8534WAT     H225845   6.157   9.145   9.206
 8535WAT      O25846   5.083   6.197   4.648
 8535WAT     H125847   5.156   6.135   4.678
 8535WAT     H225848   5.010   6.198   4.716
 8536WAT      O25849   2.709   5.679   5.215
 8536WAT     H125850   2.695   5.762   5.268
 8536WAT     H225851   2.807   5.667   5.198
 8537WAT      O25852   0.023   3.513   9.072
 8537WAT     H125853  -0.059   3.458   9.086
 8537WAT     H225854   0.092   3.459   9.025
 8538WAT      O25855   8.772   8.837   3.274
 8538WAT     H125856   8.833   8.868   3.201
 8538WAT     H225857   8.825   8.816   3.356
 8539WAT      O25858   1.737   2.654   3.211
 8539WAT     H125859   1.684   2.739   3.211
 8539WAT     H225860   1.814   2.663   3.148
 8540WAT      O25861   7.792   5.240   1.877
 8540WAT     H125862   7.711   5.238   1.936
 8540WAT     H225863   7.791   5.159   1.817
 8541WAT      O25864   8.021   4.568   0.288
 8541WAT     H125865   8.055   4.616   0.368
 8541WAT     H225866   7.959   4.494   0.317
 8542WAT      O25867   8.000   1.685   8.155
 8542WAT     H125868   7.969   1.648   8.067
 8542WAT     H225869   7.921   1.695   8.216
 8543WAT      O25870   3.138   8.673   7.221
 8543WAT     H125871   3.235   8.652   7.232
 8543WAT     H225872   3.092   8.597   7.175
 8544WAT      O25873   8.400   5.869   3.438
 8544WAT     H125874   8.463   5.854   3.362
 8544WAT     H225875   8.334   5.793   3.442
 8545WAT      O25876   8.734   2.242   7.163
 8545WAT     H125877   8.636   2.233   7.182
 8545WAT     H225878   8.772   2.152   7.139
 8546WAT      O25879   0.559   9.675   3.729
 8546WAT     H125880   0.499   9.719   3.796
 8546WAT     H225881   0.506   9.651   3.648
 8547WAT      O25882   5.697   5.684   0.415
 8547WAT     H125883   5.725   5.594   0.449
 8547WAT     H225884   5.769   5.751   0.433
 8548WAT      O25885   8.434   5.979   0.400
 8548WAT     H125886   8.418   5.909   0.330
 8548WAT     H225887   8.474   5.936   0.481
 8549WAT      O25888   3.296   5.170   1.441
 8549WAT     H125889   3.278   5.072   1.451
 8549WAT     H225890   3.238   5.207   1.368
 8550WAT      O25891   3.430   6.693   3.385
 8550WAT     H125892   3.512   6.639   3.366
 8550WAT     H225893   3.365   6.683   3.310
 8551WAT      O25894   3.575   1.530   4.192
 8551WAT     H125895   3.507   1.456   4.192
 8551WAT     H225896   3.534   1.613   4.230
 8552WAT      O25897   0.469   1.233   3.438
 8552WAT     H125898   0.426   1.199   3.354
 8552WAT     H225899   0.551   1.284   3.416
 8553WAT      O25900   7.523   7.581   2.130
 8553WAT     H125901   7.579   7.549   2.207
 8553WAT     H225902   7.428   7.553   2.144
 8554WAT      O25903   1.683   7.677   8.552
 8554WAT     H125904   1.651   7.709   8.463
 8554WAT     H225905   1.782   7.659   8.548
 8555WAT      O25906   6.066   1.881   9.894
 8555WAT     H125907   5.979   1.920   9.865
 8555WAT     H225908   6.138   1.908   9.829
 8556WAT      O25909   9.622   6.681   0.221
 8556WAT     H125910   9.532   6.672   0.177
 8556WAT     H225911   9.691   6.699   0.151
 8557WAT      O25912   7.778   1.785   8.307
 8557WAT     H125913   7.721   1.860   8.273
 8557WAT     H225914   7.760   1.771   8.404
 8558WAT      O25915   9.550   6.353   4.044
 8558WAT     H125916   9.521   6.301   3.964
 8558WAT     H225917   9.480   6.345   4.116
 8559WAT      O25918   8.728   5.386   7.320
 8559WAT     H125919   8.719   5.289   7.299
 8559WAT     H225920   8.762   5.397   7.413
 8560WAT      O25921   5.744   0.064   2.913
 8560WAT     H125922   5.822   0.070   2.850
 8560WAT     H225923   5.767   0.003   2.989
 8561WAT      O25924   2.660   7.170   1.600
 8561WAT     H125925   2.694   7.081   1.572
 8561WAT     H225926   2.696   7.192   1.691
 8562WAT      O25927   8.156   9.735   2.598
 8562WAT     H125928   8.244   9.739   2.552
 8562WAT     H225929   8.083   9.761   2.534
 8563WAT      O25930   6.284   6.011   8.163
 8563WAT     H125931   6.323   5.919   8.167
 8563WAT     H225932   6.190   6.009   8.195
 8564WAT      O25933   5.426   0.791   3.431
 8564WAT     H125934   5.459   0.842   3.511
 8564WAT     H225935   5.337   0.826   3.404
 8565WAT      O25936   2.100   4.952   3.950
 8565WAT     H125937   2.053   4.992   3.872
 8565WAT     H225938   2.146   5.024   4.002
 8566WAT      O25939   1.794   8.533   6.296
 8566WAT     H125940   1.887   8.534   6.258
 8566WAT     H225941   1.737   8.470   6.243
 8567WAT      O25942   1.069   5.099   5.061
 8567WAT     H125943   1.064   5.075   5.158
 8567WAT     H225944   1.153   5.149   5.043
 8568WAT      O25945   2.470   6.509   2.035
 8568WAT     H125946   2.445   6.426   1.985
 8568WAT     H225947   2.539   6.559   1.983
 8569WAT      O25948   6.984   4.379   4.483
 8569WAT     H125949   6.974   4.318   4.562
 8569WAT     H225950   7.002   4.472   4.515
 8570WAT      O25951   8.020   7.067   0.352
 8570WAT     H125952   8.037   7.038   0.258
 8570WAT     H225953   8.079   7.016   0.414
 8571WAT      O25954   1.668   7.214   5.180
 8571WAT     H125955   1.609   7.227   5.260
 8571WAT     H225956   1.611   7.205   5.098
 8572WAT      O25957   4.383   4.001   3.134
 8572WAT     H125958   4.480   4.004   3.112
 8572WAT     H225959   4.371   3.960   3.225
 8573WAT      O25960   9.450   1.442   8.573
 8573WAT     H125961   9.399   1.528   8.584
 8573WAT     H225962   9.508   1.428   8.653
 8574WAT      O25963   2.197   6.673   8.641
 8574WAT     H125964   2.099   6.659   8.625
 8574WAT     H225965   2.225   6.762   8.604
 8575WAT      O25966   4.563   4.896   1.799
 8575WAT     H125967   4.519   4.874   1.886
 8575WAT     H225968   4.662   4.880   1.807
 8576WAT      O25969   8.369   9.757   9.174
 8576WAT     H125970   8.381   9.855   9.163
 8576WAT     H225971   8.300   9.740   9.245
 8577WAT      O25972   1.826   2.661   4.527
 8577WAT     H125973   1.759   2.652   4.453
 8577WAT     H225974   1.782   2.639   4.614
 8578WAT      O25975   2.145   7.324   3.637
 8578WAT     H125976   2.216   7.298   3.571
 8578WAT     H225977   2.103   7.410   3.609
 8579WAT      O25978   2.429   7.914   7.749
 8579WAT     H125979   2.422   7.879   7.843
 8579WAT     H225980   2.443   7.837   7.686
 8580WAT      O25981   0.432   8.239   5.385
 8580WAT     H125982   0.434   8.222   5.484
 8580WAT     H225983   0.515   8.288   5.358
 8581WAT      O25984   5.952   6.952   2.682
 8581WAT     H125985   5.920   6.884   2.749
 8581WAT     H225986   5.881   7.022   2.669
 8582WAT      O25987   0.909   0.120   2.729
 8582WAT     H125988   0.842   0.070   2.673
 8582WAT     H225989   0.899   0.092   2.824
 8583WAT      O25990   0.659   8.464   4.943
 8583WAT     H125991   0.569   8.432   4.914
 8583WAT     H225992   0.710   8.387   4.983
 8584WAT      O25993   8.652   6.848   4.491
 8584WAT     H125994   8.568   6.819   4.538
 8584WAT     H225995   8.691   6.769   4.443
 8585WAT      O25996   4.931   3.557   2.616
 8585WAT     H125997   4.952   3.564   2.714
 8585WAT     H225998   4.990   3.487   2.575
 8586WAT      O25999   2.888   9.046   9.022
 8586WAT     H126000   2.838   9.016   9.103
 8586WAT     H226001   2.831   9.108   8.969
 8587WAT      O26002   2.773   4.774   0.873
 8587WAT     H126003   2.858   4.825   0.877
 8587WAT     H226004   2.705   4.826   0.822
 8588WAT      O26005   1.714   0.858   4.149
 8588WAT     H126006   1.662   0.814   4.222
 8588WAT     H226007   1.784   0.795   4.115
 8589WAT      O26008   8.555   3.565   2.414
 8589WAT     H126009   8.579   3.619   2.334
 8589WAT     H226010   8.637   3.522   2.451
 8590WAT      O26011   3.167   1.008   5.862
 8590WAT     H126012   3.167   0.909   5.846
 8590WAT     H226013   3.216   1.054   5.788
 8591WAT      O26014   1.359   4.089   5.798
 8591WAT     H126015   1.284   4.142   5.759
 8591WAT     H226016   1.354   3.995   5.764
 8592WAT      O26017   1.320   2.505   5.793
 8592WAT     H126018   1.350   2.571   5.862
 8592WAT     H226019   1.229   2.530   5.761
 8593WAT      O26020   2.450   2.864   5.618
 8593WAT     H126021   2.357   2.880   5.584
 8593WAT     H226022   2.457   2.771   5.653
 8594WAT      O26023   3.294   7.139   9.449
 8594WAT     H126024   3.280   7.079   9.370
 8594WAT     H226025   3.248   7.100   9.529
 8595WAT      O26026   2.743   7.505   3.202
 8595WAT     H126027   2.817   7.500   3.269
 8595WAT     H226028   2.711   7.412   3.181
 8596WAT      O26029   2.961   6.069   3.822
 8596WAT     H126030   3.039   6.131   3.824
 8596WAT     H226031   2.987   5.980   3.859
 8597WAT      O26032   5.042   5.000   1.107
 8597WAT     H126033   5.019   5.065   1.180
 8597WAT     H226034   5.128   4.955   1.129
 8598WAT      O26035   5.717   1.145   2.103
 8598WAT     H126036   5.802   1.126   2.054
 8598WAT     H226037   5.660   1.207   2.049
 8599WAT      O26038   1.846   3.794   9.132
 8599WAT     H126039   1.885   3.846   9.207
 8599WAT     H226040   1.841   3.697   9.156
 8600WAT      O26041   6.498   0.414   8.831
 8600WAT     H126042   6.508   0.485   8.761
 8600WAT     H226043   6.570   0.346   8.820
 8601WAT      O26044   5.588   6.942   6.841
 8601WAT     H126045   5.618   7.005   6.770
 8601WAT     H226046   5.512   6.887   6.807
 8602WAT      O26047   0.565   6.450   3.804
 8602WAT     H126048   0.465   6.452   3.809
 8602WAT     H226049   0.600   6.544   3.803
 8603WAT      O26050   0.535   9.375   3.710
 8603WAT     H126051   0.629   9.344   3.700
 8603WAT     H226052   0.480   9.338   3.635
 8604WAT      O26053   3.985   8.971   0.667
 8604WAT     H126054   3.894   8.934   0.683
 8604WAT     H226055   4.050   8.897   0.651
 8605WAT      O26056   4.807   8.194   6.424
 8605WAT     H126057   4.850   8.106   6.402
 8605WAT     H226058   4.772   8.236   6.341
 8606WAT      O26059   6.446   8.417   9.078
 8606WAT     H126060   6.492   8.329   9.073
 8606WAT     H226061   6.452   8.464   8.990
 8607WAT      O26062   7.163   4.826   6.171
 8607WAT     H126063   7.202   4.739   6.142
 8607WAT     H226064   7.065   4.827   6.152
 8608WAT      O26065   5.797   0.889   5.730
 8608WAT     H126066   5.819   0.796   5.702
 8608WAT     H226067   5.698   0.902   5.727
 8609WAT      O26068   1.842   3.289   2.155
 8609WAT     H126069   1.780   3.324   2.226
 8609WAT     H226070   1.833   3.190   2.150
 8610WAT      O26071   5.858   2.737   3.869
 8610WAT     H126072   5.836   2.656   3.815
 8610WAT     H226073   5.791   2.808   3.852
 8611WAT      O26074   1.012   3.970   4.912
 8611WAT     H126075   0.933   3.984   4.972
 8611WAT     H226076   0.986   3.910   4.837
 8612WAT      O26077   3.218   4.907   1.420
 8612WAT     H126078   3.304   4.862   1.395
 8612WAT     H226079   3.153   4.838   1.454
 8613WAT      O26080   0.220   4.757   4.570
 8613WAT     H126081   0.227   4.835   4.632
 8613WAT     H226082   0.306   4.747   4.519
 8614WAT      O26083   5.808   6.679   7.293
 8614WAT     H126084   5.747   6.759   7.287
 8614WAT     H226085   5.753   6.596   7.299
 8615WAT      O26086   4.408   7.624   7.206
 8615WAT     H126087   4.413   7.593   7.301
 8615WAT     H226088   4.351   7.561   7.153
 8616WAT      O26089   5.642   6.709   2.343
 8616WAT     H126090   5.654   6.800   2.305
 8616WAT     H226091   5.703   6.697   2.422
 8617WAT      O26092   7.792   0.918   2.882
 8617WAT     H126093   7.817   1.011   2.853
 8617WAT     H226094   7.823   0.853   2.812
 8618WAT      O26095   4.900   8.181   7.465
 8618WAT     H126096   4.872   8.196   7.371
 8618WAT     H226097   4.877   8.261   7.520
 8619WAT      O26098   7.183   0.307   3.576
 8619WAT     H126099   7.282   0.295   3.588
 8619WAT     H226100   7.137   0.289   3.662
 8620WAT      O26101   0.987   3.223   2.862
 8620WAT     H126102   0.948   3.165   2.933
 8620WAT     H226103   1.042   3.295   2.904
 8621WAT      O26104   1.941   2.874   6.200
 8621WAT     H126105   1.896   2.911   6.282
 8621WAT     H226106   1.997   2.945   6.158
 8622WAT      O26107   1.135   7.137   2.933
 8622WAT     H126108   1.201   7.097   2.870
 8622WAT     H226109   1.057   7.075   2.944
 8623WAT      O26110   9.760   7.940   5.619
 8623WAT     H126111   9.789   7.959   5.525
 8623WAT     H226112   9.811   7.863   5.655
 8624WAT      O26113   9.331   0.338   0.971
 8624WAT     H126114   9.347   0.431   0.937
 8624WAT     H226115   9.390   0.320   1.050
 8625WAT      O26116   4.797   2.040   8.611
 8625WAT     H126117   4.762   2.060   8.520
 8625WAT     H226118   4.721   2.037   8.676
 8626WAT      O26119   2.578   3.317   0.597
 8626WAT     H126120   2.604   3.264   0.516
 8626WAT     H226121   2.652   3.379   0.622
 8627WAT      O26122   6.835   0.861   9.155
 8627WAT     H126123   6.758   0.808   9.121
 8627WAT     H226124   6.886   0.901   9.078
 8628WAT      O26125   1.271   4.155   2.382
 8628WAT     H126126   1.174   4.134   2.371
 8628WAT     H226127   1.287   4.190   2.474
 8629WAT      O26128   3.891   0.778   6.323
 8629WAT     H126129   3.967   0.737   6.375
 8629WAT     H226130   3.845   0.845   6.380
 8630WAT      O26131   2.646   6.597   8.347
 8630WAT     H126132   2.678   6.521   8.289
 8630WAT     H226133   2.672   6.684   8.306
 8631WAT      O26134   1.578   6.838   9.714
 8631WAT     H126135   1.603   6.746   9.743
 8631WAT     H226136   1.571   6.898   9.794
 8632WAT      O26137   2.010   0.720   6.040
 8632WAT     H126138   2.035   0.655   5.968
 8632WAT     H226139   2.056   0.694   6.125
 8633WAT      O26140   4.948   0.929   6.156
 8633WAT     H126141   4.871   0.901   6.099
 8633WAT     H226142   4.918   0.933   6.252
 8634WAT      O26143   2.158   3.095   6.593
 8634WAT     H126144   2.067   3.089   6.552
 8634WAT     H226145   2.189   3.190   6.593
 8635WAT      O26146   5.015   4.559   0.521
 8635WAT     H126147   4.928   4.554   0.472
 8635WAT     H226148   5.021   4.646   0.569
 8636WAT      O26149   4.359   3.137   0.852
 8636WAT     H126150   4.423   3.209   0.878
 8636WAT     H226151   4.268   3.160   0.885
 8637WAT      O26152   8.137   8.249   8.017
 8637WAT     H126153   8.234   8.240   8.040
 8637WAT     H226154   8.128   8.263   7.918
 8638WAT      O26155   8.464   3.227   6.146
 8638WAT     H126156   8.532   3.194   6.081
 8638WAT     H226157   8.386   3.165   6.148
 8639WAT      O26158   7.118   2.141   5.291
 8639WAT     H126159   7.037   2.143   5.233
 8639WAT     H226160   7.162   2.051   5.283
 8640WAT      O26161   8.458   5.366   1.578
 8640WAT     H126162   8.480   5.279   1.621
 8640WAT     H226163   8.516   5.438   1.617
 8641WAT      O26164   3.436   0.594   8.542
 8641WAT     H126165   3.378   0.675   8.545
 8641WAT     H226166   3.462   0.567   8.635
 8642WAT      O26167   8.373   5.570   5.220
 8642WAT     H126168   8.327   5.582   5.132
 8642WAT     H226169   8.421   5.655   5.244
 8643WAT      O26170   5.258   0.961   7.559
 8643WAT     H126171   5.258   0.952   7.459
 8643WAT     H226172   5.226   0.875   7.600
 8644WAT      O26173   7.686   3.132   4.665
 8644WAT     H126174   7.627   3.058   4.699
 8644WAT     H226175   7.720   3.185   4.743
 8645WAT      O26176   3.017   1.326   8.137
 8645WAT     H126177   2.948   1.302   8.206
 8645WAT     H226178   3.031   1.425   8.138
 8646WAT      O26179   4.026   1.311   9.236
 8646WAT     H126180   4.112   1.328   9.190
 8646WAT     H226181   3.956   1.374   9.202
 8647WAT      O26182   8.472   9.739   8.702
 8647WAT     H126183   8.519   9.811   8.753
 8647WAT     H226184   8.390   9.711   8.752
 8648WAT      O26185   5.091   0.810   9.847
 8648WAT     H126186   5.191   0.820   9.846
 8648WAT     H226187   5.051   0.855   9.768
 8649WAT      O26188   3.028   8.262   3.822
 8649WAT     H126189   3.022   8.264   3.922
 8649WAT     H226190   3.004   8.352   3.786
 8650WAT      O26191   7.431   0.551   6.684
 8650WAT     H126192   7.524   0.524   6.707
 8650WAT     H226193   7.401   0.624   6.746
 8651WAT      O26194   3.832   5.016   2.601
 8651WAT     H126195   3.773   5.079   2.652
 8651WAT     H226196   3.855   4.938   2.659
 8652WAT      O26197   3.795   8.126   4.580
 8652WAT     H126198   3.876   8.074   4.609
 8652WAT     H226199   3.732   8.065   4.533
 8653WAT      O26200   7.161   3.813   0.438
 8653WAT     H126201   7.107   3.822   0.522
 8653WAT     H226202   7.180   3.716   0.422
 8654WAT      O26203   3.050   4.814   1.043
 8654WAT     H126204   3.020   4.735   1.097
 8654WAT     H226205   3.144   4.837   1.069
 8655WAT      O26206   0.399   0.162   8.392
 8655WAT     H126207   0.323   0.184   8.332
 8655WAT     H226208   0.395   0.220   8.474
 8656WAT      O26209   5.422   2.333   1.595
 8656WAT     H126210   5.340   2.309   1.647
 8656WAT     H226211   5.431   2.272   1.517
 8657WAT      O26212   0.850   9.228   2.228
 8657WAT     H126213   0.913   9.154   2.251
 8657WAT     H226214   0.851   9.241   2.129
 8658WAT      O26215   7.374   9.318   0.774
 8658WAT     H126216   7.359   9.416   0.783
 8658WAT     H226217   7.459   9.302   0.723
 8659WAT      O26218   6.292   5.371   2.498
 8659WAT     H126219   6.362   5.336   2.436
 8659WAT     H226220   6.256   5.296   2.554
 8660WAT      O26221   1.593   7.179   2.314
 8660WAT     H126222   1.500   7.147   2.332
 8660WAT     H226223   1.648   7.102   2.281
 8661WAT      O26224   6.725   6.627   2.130
 8661WAT     H126225   6.820   6.660   2.134
 8661WAT     H226226   6.673   6.683   2.065
 8662WAT      O26227   0.016   7.083   9.649
 8662WAT     H126228   0.037   7.149   9.576
 8662WAT     H226229   0.030   6.990   9.615
 8663WAT      O26230   0.582   0.179   6.474
 8663WAT     H126231   0.594   0.101   6.535
 8663WAT     H226232   0.658   0.182   6.409
 8664WAT      O26233   4.726   9.438   5.362
 8664WAT     H126234   4.737   9.498   5.441
 8664WAT     H226235   4.801   9.455   5.298
 8665WAT      O26236   1.601   1.805   2.656
 8665WAT     H126237   1.605   1.782   2.559
 8665WAT     H226238   1.581   1.902   2.667
 8666WAT      O26239   1.432   7.189   0.062
 8666WAT     H126240   1.466   7.265   0.007
 8666WAT     H226241   1.380   7.225   0.140
 8667WAT      O26242   7.636   5.669   5.300
 8667WAT     H126243   7.673   5.761   5.283
 8667WAT     H226244   7.563   5.651   5.233
 8668WAT      O26245   1.053   2.784   2.153
 8668WAT     H126246   1.137   2.733   2.137
 8668WAT     H226247   0.986   2.761   2.082
 8669WAT      O26248   3.664   9.512   1.175
 8669WAT     H126249   3.631   9.459   1.097
 8669WAT     H226250   3.590   9.525   1.241
 8670WAT      O26251   0.820   5.722   4.183
 8670WAT     H126252   0.870   5.801   4.218
 8670WAT     H226253   0.743   5.754   4.128
 8671WAT      O26254   3.027   4.043   6.938
 8671WAT     H126255   2.962   3.967   6.928
 8671WAT     H226256   2.983   4.129   6.913
 8672WAT      O26257   8.695   8.508   4.053
 8672WAT     H126258   8.717   8.433   3.991
 8672WAT     H226259   8.719   8.481   4.147
 8673WAT      O26260   1.549   3.396   4.925
 8673WAT     H126261   1.583   3.456   4.996
 8673WAT     H226262   1.521   3.450   4.845
 8674WAT      O26263   9.566   7.233   5.414
 8674WAT     H126264   9.536   7.259   5.506
 8674WAT     H226265   9.661   7.262   5.401
 8675WAT      O26266   7.067   7.705   2.073
 8675WAT     H126267   7.099   7.793   2.037
 8675WAT     H226268   7.145   7.644   2.084
 8676WAT      O26269   7.714   2.683   8.529
 8676WAT     H126270   7.796   2.625   8.531
 8676WAT     H226271   7.675   2.688   8.621
 8677WAT      O26272   1.704   7.421   4.192
 8677WAT     H126273   1.711   7.406   4.290
 8677WAT     H226274   1.659   7.343   4.149
 8678WAT      O26275   0.381   6.050   1.425
 8678WAT     H126276   0.311   6.012   1.365
 8678WAT     H226277   0.404   5.984   1.496
 8679WAT      O26278   3.653   7.904   2.242
 8679WAT     H126279   3.609   7.967   2.179
 8679WAT     H226280   3.586   7.836   2.273
 8680WAT      O26281   2.760   1.274   3.632
 8680WAT     H126282   2.748   1.367   3.598
 8680WAT     H226283   2.828   1.275   3.706
 8681WAT      O26284   3.371   6.274   2.231
 8681WAT     H126285   3.403   6.368   2.242
 8681WAT     H226286   3.302   6.254   2.301
 8682WAT      O26287   7.466   8.222   7.429
 8682WAT     H126288   7.396   8.215   7.359
 8682WAT     H226289   7.486   8.132   7.467
 8683WAT      O26290   1.859   7.128   0.820
 8683WAT     H126291   1.807   7.208   0.850
 8683WAT     H226292   1.812   7.044   0.850
 8684WAT      O26293   7.622   4.823   1.333
 8684WAT     H126294   7.522   4.823   1.340
 8684WAT     H226295   7.649   4.792   1.242
 8685WAT      O26296   4.429   6.306   0.725
 8685WAT     H126297   4.370   6.382   0.753
 8685WAT     H226298   4.425   6.295   0.626
 8686WAT      O26299   6.913   6.733   0.407
 8686WAT     H126300   6.882   6.806   0.347
 8686WAT     H226301   6.902   6.761   0.503
 8687WAT      O26302   9.881   1.526   0.610
 8687WAT     H126303   9.823   1.585   0.666
 8687WAT     H226304   9.955   1.490   0.667
 8688WAT      O26305   7.910   5.695   0.449
 8688WAT     H126306   7.910   5.595   0.452
 8688WAT     H226307   7.831   5.730   0.500
 8689WAT      O26308   4.892   0.615   9.881
 8689WAT     H126309   4.829   0.591   9.955
 8689WAT     H226310   4.957   0.684   9.914
 8690WAT      O26311   5.571   8.525   7.487
 8690WAT     H126312   5.505   8.458   7.522
 8690WAT     H226313   5.544   8.554   7.396
 8691WAT      O26314   5.935   2.568   1.138
 8691WAT     H126315   5.841   2.544   1.112
 8691WAT     H226316   5.960   2.517   1.220
 8692WAT      O26317   2.588   6.904   1.024
 8692WAT     H126318   2.624   6.954   1.103
 8692WAT     H226319   2.589   6.806   1.044
 8693WAT      O26320   3.088   8.483   2.738
 8693WAT     H126321   3.068   8.577   2.764
 8693WAT     H226322   3.183   8.461   2.760
 8694WAT      O26323   4.377   6.909   1.989
 8694WAT     H126324   4.319   6.967   1.933
 8694WAT     H226325   4.320   6.852   2.049
 8695WAT      O26326   8.266   9.755   1.879
 8695WAT     H126327   8.230   9.840   1.841
 8695WAT     H226328   8.243   9.679   1.818
 8696WAT      O26329   0.184   4.478   4.159
 8696WAT     H126330   0.104   4.424   4.185
 8696WAT     H226331   0.255   4.468   4.229
 8697WAT      O26332   2.366   9.673   4.538
 8697WAT     H126333   2.341   9.622   4.620
 8697WAT     H226334   2.451   9.636   4.500
 8698WAT      O26335   5.743   5.158   7.387
 8698WAT     H126336   5.800   5.121   7.314
 8698WAT     H226337   5.791   5.148   7.474
 8699WAT      O26338   6.966   4.538   7.545
 8699WAT     H126339   6.974   4.636   7.526
 8699WAT     H226340   7.041   4.511   7.606
 8700WAT      O26341   1.229   0.370   4.464
 8700WAT     H126342   1.266   0.372   4.556
 8700WAT     H226343   1.189   0.279   4.446
 8701WAT      O26344   2.679   3.807   9.453
 8701WAT     H126345   2.723   3.877   9.396
 8701WAT     H226346   2.653   3.729   9.396
 8702WAT      O26347   4.962   3.538   4.706
 8702WAT     H126348   5.044   3.482   4.698
 8702WAT     H226349   4.987   3.635   4.695
 8703WAT      O26350   3.003   9.450   9.605
 8703WAT     H126351   3.101   9.469   9.609
 8703WAT     H226352   2.988   9.357   9.573
 8704WAT      O26353   3.647   4.028   2.392
 8704WAT     H126354   3.653   4.028   2.492
 8704WAT     H226355   3.711   4.096   2.355
 8705WAT      O26356   3.188   7.146   4.196
 8705WAT     H126357   3.096   7.116   4.169
 8705WAT     H226358   3.247   7.152   4.116
 8706WAT      O26359   8.266   9.540   3.232
 8706WAT     H126360   8.320   9.465   3.194
 8706WAT     H226361   8.312   9.627   3.214
 8707WAT      O26362   5.434   7.498   9.792
 8707WAT     H126363   5.501   7.495   9.718
 8707WAT     H226364   5.367   7.426   9.779
 8708WAT      O26365   1.746   5.732   0.607
 8708WAT     H126366   1.842   5.742   0.582
 8708WAT     H226367   1.692   5.802   0.559
 8709WAT      O26368   4.414   1.067   9.608
 8709WAT     H126369   4.412   0.986   9.549
 8709WAT     H226370   4.416   1.149   9.550
 8710WAT      O26371   2.854   8.790   5.622
 8710WAT     H126372   2.867   8.691   5.630
 8710WAT     H226373   2.793   8.809   5.545
 8711WAT      O26374   1.906   8.928   7.148
 8711WAT     H126375   2.001   8.938   7.119
 8711WAT     H226376   1.868   9.018   7.170
 8712WAT      O26377   6.570   4.476   8.721
 8712WAT     H126378   6.581   4.379   8.700
 8712WAT     H226379   6.644   4.505   8.782
 8713WAT      O26380   8.070   4.847   9.161
 8713WAT     H126381   8.085   4.756   9.200
 8713WAT     H226382   8.058   4.913   9.235
 8714WAT      O26383   3.271   8.714   6.268
 8714WAT     H126384   3.220   8.720   6.354
 8714WAT     H226385   3.358   8.669   6.285
 8715WAT      O26386   5.393   0.883   5.770
 8715WAT     H126387   5.305   0.839   5.760
 8715WAT     H226388   5.394   0.968   5.717
 8716WAT      O26389   8.279   2.693   7.887
 8716WAT     H126390   8.282   2.759   7.812
 8716WAT     H226391   8.310   2.736   7.971
 8717WAT      O26392   7.355   7.055   2.794
 8717WAT     H126393   7.343   7.124   2.865
 8717WAT     H226394   7.329   7.093   2.706
 8718WAT      O26395   7.258   4.869   1.189
 8718WAT     H126396   7.257   4.782   1.139
 8718WAT     H226397   7.335   4.925   1.158
 8719WAT      O26398   4.340   3.503   8.354
 8719WAT     H126399   4.287   3.502   8.269
 8719WAT     H226400   4.436   3.483   8.334
 8720WAT      O26401   9.074   8.722   2.974
 8720WAT     H126402   8.990   8.695   3.020
 8720WAT     H226403   9.128   8.641   2.951
 8721WAT      O26404   1.920   0.215   4.053
 8721WAT     H126405   2.006   0.176   4.085
 8721WAT     H226406   1.851   0.143   4.043
 8722WAT      O26407   0.247   3.459   2.752
 8722WAT     H126408   0.210   3.404   2.676
 8722WAT     H226409   0.191   3.541   2.763
 8723WAT      O26410   0.819   7.736   0.266
 8723WAT     H126411   0.744   7.803   0.274
 8723WAT     H226412   0.880   7.764   0.191
 8724WAT      O26413   5.858   3.374   4.195
 8724WAT     H126414   5.867   3.427   4.280
 8724WAT     H226415   5.766   3.336   4.189
 8725WAT      O26416   5.782   8.627   9.879
 8725WAT     H126417   5.709   8.649   9.943
 8725WAT     H226418   5.835   8.710   9.859
 8726WAT      O26419   2.566   8.611   9.738
 8726WAT     H126420   2.646   8.555   9.759
 8726WAT     H226421   2.574   8.700   9.783
 8727WAT      O26422   0.752   6.669   4.326
 8727WAT     H126423   0.824   6.737   4.340
 8727WAT     H226424   0.793   6.578   4.323
 8728WAT      O26425   3.037   2.795   7.319
 8728WAT     H126426   3.012   2.884   7.356
 8728WAT     H226427   2.987   2.723   7.367
 8729WAT      O26428   5.022   3.219   6.975
 8729WAT     H126429   5.104   3.196   7.028
 8729WAT     H226430   5.004   3.317   6.982
 8730WAT      O26431   2.914   5.924   9.491
 8730WAT     H126432   2.857   5.847   9.520
 8730WAT     H226433   2.996   5.889   9.446
 8731WAT      O26434   5.946   1.846   7.710
 8731WAT     H126435   5.987   1.936   7.719
 8731WAT     H226436   6.007   1.777   7.749
 8732WAT      O26437   8.885   2.126   4.427
 8732WAT     H126438   8.887   2.047   4.366
 8732WAT     H226439   8.952   2.194   4.397
 8733WAT      O26440   0.768   4.267   9.650
 8733WAT     H126441   0.751   4.365   9.666
 8733WAT     H226442   0.853   4.240   9.696
 8734WAT      O26443   9.813   7.360   1.210
 8734WAT     H126444   9.897   7.372   1.264
 8734WAT     H226445   9.776   7.269   1.227
 8735WAT      O26446   2.929   2.358   4.118
 8735WAT     H126447   2.947   2.456   4.117
 8735WAT     H226448   2.859   2.337   4.050
 8736WAT      O26449   1.603   6.738   6.360
 8736WAT     H126450   1.543   6.753   6.281
 8736WAT     H226451   1.670   6.667   6.338
 8737WAT      O26452   3.134   3.065   8.970
 8737WAT     H126453   3.106   3.056   9.066
 8737WAT     H226454   3.072   3.012   8.912
 8738WAT      O26455   5.454   5.656   2.368
 8738WAT     H126456   5.442   5.733   2.430
 8738WAT     H226457   5.498   5.580   2.417
 8739WAT      O26458   2.272   3.908   4.059
 8739WAT     H126459   2.240   3.978   3.996
 8739WAT     H226460   2.336   3.949   4.124
 8740WAT      O26461   2.286   6.110   5.455
 8740WAT     H126462   2.376   6.149   5.476
 8740WAT     H226463   2.223   6.127   5.531
 8741WAT      O26464   1.404   3.079   4.571
 8741WAT     H126465   1.349   3.143   4.625
 8741WAT     H226466   1.486   3.125   4.537
 8742WAT      O26467   8.726   5.998   2.661
 8742WAT     H126468   8.677   5.942   2.728
 8742WAT     H226469   8.744   5.943   2.579
 8743WAT      O26470   3.858   9.013   6.586
 8743WAT     H126471   3.856   8.927   6.638
 8743WAT     H226472   3.765   9.037   6.558
 8744WAT      O26473   0.926   7.408   3.388
 8744WAT     H126474   1.004   7.345   3.381
 8744WAT     H226475   0.895   7.413   3.483
 8745WAT      O26476   8.354   0.186   0.559
 8745WAT     H126477   8.376   0.089   0.559
 8745WAT     H226478   8.347   0.219   0.465
 8746WAT      O26479   3.062   6.618   9.744
 8746WAT     H126480   3.031   6.592   9.836
 8746WAT     H226481   3.097   6.538   9.697
 8747WAT      O26482   9.101   8.566   7.284
 8747WAT     H126483   9.120   8.499   7.212
 8747WAT     H226484   9.002   8.582   7.288
 8748WAT      O26485   0.892   9.272   5.098
 8748WAT     H126486   0.959   9.335   5.137
 8748WAT     H226487   0.804   9.284   5.143
 8749WAT      O26488   6.379   5.003   8.046
 8749WAT     H126489   6.473   5.027   8.069
 8749WAT     H226490   6.375   4.966   7.954
 8750WAT      O26491   5.390   1.012   3.075
 8750WAT     H126492   5.425   1.085   3.133
 8750WAT     H226493   5.452   0.999   2.997
 8751WAT      O26494   3.689   8.412   8.289
 8751WAT     H126495   3.767   8.361   8.255
 8751WAT     H226496   3.688   8.504   8.248
 8752WAT      O26497   0.801   9.003   9.390
 8752WAT     H126498   0.879   9.061   9.365
 8752WAT     H226499   0.829   8.939   9.462
 8753WAT      O26500   4.482   5.009   2.910
 8753WAT     H126501   4.395   5.036   2.953
 8753WAT     H226502   4.513   4.922   2.950
 8754WAT      O26503   8.476   4.596   7.376
 8754WAT     H126504   8.498   4.614   7.472
 8754WAT     H226505   8.445   4.681   7.332
 8755WAT      O26506   2.443   0.237   1.081
 8755WAT     H126507   2.406   0.157   1.127
 8755WAT     H226508   2.541   0.243   1.098
 8756WAT      O26509   5.360   2.417   2.918
 8756WAT     H126510   5.457   2.441   2.911
 8756WAT     H226511   5.346   2.326   2.880
 8757WAT      O26512   6.280   8.559   9.872
 8757WAT     H126513   6.194   8.507   9.868
 8757WAT     H226514   6.353   8.499   9.906
 8758WAT      O26515   0.183   5.762   4.167
 8758WAT     H126516   0.137   5.681   4.130
 8758WAT     H226517   0.128   5.800   4.242
 8759WAT      O26518   6.131   7.310   5.153
 8759WAT     H126519   6.068   7.346   5.223
 8759WAT     H226520   6.082   7.297   5.067
 8760WAT      O26521   3.752   9.410   3.170
 8760WAT     H126522   3.767   9.326   3.118
 8760WAT     H226523   3.839   9.440   3.210
 8761WAT      O26524   1.636   2.457   9.776
 8761WAT     H126525   1.620   2.379   9.836
 8761WAT     H226526   1.724   2.447   9.730
 8762WAT      O26527   9.587   9.315   6.324
 8762WAT     H126528   9.498   9.332   6.282
 8762WAT     H226529   9.577   9.247   6.397
 8763WAT      O26530   8.267   4.995   1.663
 8763WAT     H126531   8.216   4.918   1.625
 8763WAT     H226532   8.282   4.979   1.761
 8764WAT      O26533   4.085   7.497   6.734
 8764WAT     H126534   4.172   7.518   6.778
 8764WAT     H226535   4.077   7.398   6.723
 8765WAT      O26536   6.513   1.349   7.728
 8765WAT     H126537   6.611   1.332   7.720
 8765WAT     H226538   6.493   1.389   7.817
 8766WAT      O26539   0.931   3.608   0.003
 8766WAT     H126540   0.902   3.626   0.097
 8766WAT     H226541   0.864   3.548  -0.041
 8767WAT      O26542   3.784   7.939   3.537
 8767WAT     H126543   3.749   7.878   3.466
 8767WAT     H226544   3.809   7.886   3.617
 8768WAT      O26545   6.351   5.863   0.053
 8768WAT     H126546   6.321   5.827   0.142
 8768WAT     H226547   6.385   5.956   0.065
 8769WAT      O26548   1.310   4.130   1.372
 8769WAT     H126549   1.261   4.200   1.321
 8769WAT     H226550   1.278   4.129   1.467
 8770WAT      O26551   7.860   0.443   5.916
 8770WAT     H126552   7.922   0.474   5.845
 8770WAT     H226553   7.879   0.347   5.937
 8771WAT      O26554   5.245   7.112   0.288
 8771WAT     H126555   5.159   7.143   0.329
 8771WAT     H226556   5.262   7.017   0.316
 8772WAT      O26557   6.592   5.483   0.155
 8772WAT     H126558   6.511   5.442   0.198
 8772WAT     H226559   6.645   5.411   0.109
 8773WAT      O26560   2.573   3.179   3.251
 8773WAT     H126561   2.591   3.161   3.155
 8773WAT     H226562   2.590   3.275   3.272
 8774WAT      O26563   2.683   6.627   0.700
 8774WAT     H126564   2.688   6.527   0.695
 8774WAT     H226565   2.591   6.654   0.730
 8775WAT      O26566   8.254   3.221   7.160
 8775WAT     H126567   8.204   3.282   7.221
 8775WAT     H226568   8.313   3.161   7.214
 8776WAT      O26569   4.981   2.253   9.538
 8776WAT     H126570   5.005   2.346   9.567
 8776WAT     H226571   4.984   2.247   9.438
 8777WAT      O26572   3.105   7.227   7.080
 8777WAT     H126573   3.155   7.171   7.146
 8777WAT     H226574   3.158   7.309   7.059
 8778WAT      O26575   4.362   5.249   7.159
 8778WAT     H126576   4.404   5.203   7.081
 8778WAT     H226577   4.263   5.257   7.143
 8779WAT      O26578   9.394   2.381   7.970
 8779WAT     H126579   9.445   2.301   7.938
 8779WAT     H226580   9.440   2.464   7.940
 8780WAT      O26581   4.285   2.396   8.781
 8780WAT     H126582   4.236   2.469   8.830
 8780WAT     H226583   4.348   2.351   8.844
 8781WAT      O26584   4.389   3.502   7.198
 8781WAT     H126585   4.307   3.445   7.200
 8781WAT     H226586   4.371   3.585   7.146
 8782WAT      O26587   0.378   3.304   6.064
 8782WAT     H126588   0.348   3.325   6.157
 8782WAT     H226589   0.463   3.351   6.044
 8783WAT      O26590   8.097   0.914   4.182
 8783WAT     H126591   8.145   0.985   4.131
 8783WAT     H226592   7.999   0.918   4.163
 8784WAT      O26593   2.558   9.537   5.739
 8784WAT     H126594   2.530   9.550   5.644
 8784WAT     H226595   2.483   9.560   5.800
 8785WAT      O26596   6.366   3.211   3.136
 8785WAT     H126597   6.278   3.217   3.089
 8785WAT     H226598   6.352   3.172   3.227
 8786WAT      O26599   7.270   4.221   8.614
 8786WAT     H126600   7.307   4.303   8.569
 8786WAT     H226601   7.319   4.140   8.582
 8787WAT      O26602   2.484   3.923   9.626
 8787WAT     H126603   2.561   3.893   9.569
 8787WAT     H226604   2.472   4.022   9.617
 8788WAT      O26605   4.320   7.587   4.795
 8788WAT     H126606   4.243   7.612   4.855
 8788WAT     H226607   4.289   7.584   4.700
 8789WAT      O26608   0.150   7.421   1.346
 8789WAT     H126609   0.138   7.322   1.347
 8789WAT     H226610   0.248   7.443   1.340
 8790WAT      O26611   9.026   7.516   4.591
 8790WAT     H126612   8.957   7.444   4.595
 8790WAT     H226613   9.087   7.500   4.514
 8791WAT      O26614   1.096   4.026   5.276
 8791WAT     H126615   1.027   3.969   5.231
 8791WAT     H226616   1.187   3.987   5.262
 8792WAT      O26617   5.604   0.855   0.059
 8792WAT     H126618   5.674   0.926   0.049
 8792WAT     H226619   5.634   0.772   0.011
 8793WAT      O26620   3.290   6.115   2.614
 8793WAT     H126621   3.275   6.154   2.705
 8793WAT     H226622   3.304   6.016   2.622
 8794WAT      O26623   6.452   6.438   2.472
 8794WAT     H126624   6.489   6.433   2.379
 8794WAT     H226625   6.375   6.502   2.473
 8795WAT      O26626   1.453   5.433   3.427
 8795WAT     H126627   1.495   5.348   3.395
 8795WAT     H226628   1.522   5.489   3.473
 8796WAT      O26629   5.982   0.745   3.684
 8796WAT     H126630   6.075   0.767   3.656
 8796WAT     H226631   5.971   0.645   3.687
 8797WAT      O26632   5.179   0.842   2.280
 8797WAT     H126633   5.167   0.749   2.245
 8797WAT     H226634   5.263   0.847   2.333
 8798WAT      O26635   0.595   0.368   5.983
 8798WAT     H126636   0.548   0.281   5.972
 8798WAT     H226637   0.631   0.376   6.076
 8799WAT      O26638   7.807   7.853   7.132
 8799WAT     H126639   7.752   7.823   7.209
 8799WAT     H226640   7.831   7.950   7.143
 8800WAT      O26641   8.433   6.550   5.434
 8800WAT     H126642   8.491   6.575   5.511
 8800WAT     H226643   8.434   6.450   5.423
 8801WAT      O26644   5.527   9.748   4.475
 8801WAT     H126645   5.504   9.780   4.384
 8801WAT     H226646   5.586   9.815   4.520
 8802WAT      O26647   1.426   7.996   3.706
 8802WAT     H126648   1.467   7.921   3.655
 8802WAT     H226649   1.448   7.987   3.803
 8803WAT      O26650   2.880   4.487   8.019
 8803WAT     H126651   2.858   4.471   8.115
 8803WAT     H226652   2.836   4.572   7.989
 8804WAT      O26653   1.069   6.650   6.655
 8804WAT     H126654   1.055   6.743   6.621
 8804WAT     H226655   1.007   6.588   6.608
 8805WAT      O26656   8.225   7.546   6.817
 8805WAT     H126657   8.187   7.570   6.906
 8805WAT     H226658   8.176   7.468   6.779
 8806WAT      O26659   5.968   1.987   5.128
 8806WAT     H126660   5.977   1.889   5.147
 8806WAT     H226661   5.880   2.004   5.084
 8807WAT      O26662   8.407   4.889   0.043
 8807WAT     H126663   8.370   4.801   0.012
 8807WAT     H226664   8.505   4.893   0.025
 8808WAT      O26665   4.292   7.628   6.900
 8808WAT     H126666   4.274   7.582   6.987
 8808WAT     H226667   4.389   7.651   6.895
 8809WAT      O26668   7.956   2.997   3.399
 8809WAT     H126669   7.942   3.094   3.380
 8809WAT     H226670   8.051   2.982   3.427
 8810WAT      O26671   9.705   0.181   0.381
 8810WAT     H126672   9.804   0.193   0.391
 8810WAT     H226673   9.682   0.084   0.385
 8811WAT      O26674   0.036   2.591   4.985
 8811WAT     H126675  -0.030   2.576   5.058
 8811WAT     H226676   0.020   2.527   4.911
 8812WAT      O26677   1.764   3.015   4.369
 8812WAT     H126678   1.815   3.014   4.455
 8812WAT     H226679   1.732   3.109   4.350
 8813WAT      O26680   3.026   6.477   3.791
 8813WAT     H126681   2.976   6.439   3.869
 8813WAT     H226682   3.037   6.405   3.721
 8814WAT      O26683   3.612   6.349   8.590
 8814WAT     H126684   3.678   6.327   8.518
 8814WAT     H226685   3.541   6.409   8.553
 8815WAT      O26686   6.525   9.157   1.011
 8815WAT     H126687   6.547   9.191   0.920
 8815WAT     H226688   6.511   9.059   1.007
 8816WAT      O26689   7.579   4.202   2.372
 8816WAT     H126690   7.563   4.186   2.469
 8816WAT     H226691   7.499   4.174   2.320
 8817WAT      O26692   2.875   1.823   4.527
 8817WAT     H126693   2.843   1.913   4.559
 8817WAT     H226694   2.856   1.814   4.429
 8818WAT      O26695   7.037   3.214   2.324
 8818WAT     H126696   6.971   3.219   2.399
 8818WAT     H226697   7.130   3.214   2.360
 8819WAT      O26698   5.649   6.242   4.324
 8819WAT     H126699   5.641   6.272   4.229
 8819WAT     H226700   5.558   6.243   4.366
 8820WAT      O26701   1.477   3.029   8.128
 8820WAT     H126702   1.449   3.125   8.135
 8820WAT     H226703   1.416   2.982   8.064
 8821WAT      O26704   8.178   3.004   4.281
 8821WAT     H126705   8.168   3.060   4.199
 8821WAT     H226706   8.110   2.930   4.279
 8822WAT      O26707   8.903   3.187   6.894
 8822WAT     H126708   8.979   3.203   6.831
 8822WAT     H226709   8.856   3.103   6.869
 8823WAT      O26710   2.435   1.260   2.834
 8823WAT     H126711   2.503   1.332   2.847
 8823WAT     H226712   2.345   1.294   2.862
 8824WAT      O26713   0.502   7.066   2.398
 8824WAT     H126714   0.544   7.005   2.465
 8824WAT     H226715   0.418   7.025   2.363
 8825WAT      O26716   8.267   4.631   1.996
 8825WAT     H126717   8.271   4.730   1.981
 8825WAT     H226718   8.202   4.591   1.931
 8826WAT      O26719   6.128   6.621   3.807
 8826WAT     H126720   6.135   6.669   3.895
 8826WAT     H226721   6.188   6.663   3.740
 8827WAT      O26722   2.330   3.381   4.607
 8827WAT     H126723   2.314   3.471   4.567
 8827WAT     H226724   2.271   3.314   4.562
 8828WAT      O26725   1.523   7.074   1.048
 8828WAT     H126726   1.609   7.052   1.095
 8828WAT     H226727   1.535   7.062   0.950
 8829WAT      O26728   2.449   8.662   2.275
 8829WAT     H126729   2.518   8.725   2.241
 8829WAT     H226730   2.438   8.674   2.373
 8830WAT      O26731   9.056   9.075   5.612
 8830WAT     H126732   9.052   8.981   5.647
 8830WAT     H226733   8.966   9.102   5.579
 8831WAT      O26734   9.484   0.207   2.792
 8831WAT     H126735   9.445   0.157   2.869
 8831WAT     H226736   9.573   0.244   2.816
 8832WAT      O26737   8.495   6.980   0.531
 8832WAT     H126738   8.491   6.888   0.568
 8832WAT     H226739   8.588   7.015   0.539
 8833WAT      O26740   7.799   9.185   0.820
 8833WAT     H126741   7.729   9.157   0.885
 8833WAT     H226742   7.832   9.106   0.770
 8834WAT      O26743   5.807   1.788   5.660
 8834WAT     H126744   5.896   1.834   5.648
 8834WAT     H226745   5.738   1.836   5.606
 8835WAT      O26746   8.073   0.022   7.130
 8835WAT     H126747   8.009  -0.021   7.194
 8835WAT     H226748   8.022   0.070   7.060
 8836WAT      O26749   1.246   5.689   8.775
 8836WAT     H126750   1.246   5.787   8.794
 8836WAT     H226751   1.163   5.648   8.813
 8837WAT      O26752   2.332   3.041   2.610
 8837WAT     H126753   2.258   3.093   2.567
 8837WAT     H226754   2.402   3.021   2.542
 8838WAT      O26755   9.394   9.143   2.204
 8838WAT     H126756   9.375   9.238   2.228
 8838WAT     H226757   9.475   9.139   2.145
 8839WAT      O26758   4.801   5.494   6.452
 8839WAT     H126759   4.898   5.511   6.436
 8839WAT     H226760   4.767   5.558   6.521
 8840WAT      O26761   9.713   0.294   8.577
 8840WAT     H126762   9.694   0.205   8.619
 8840WAT     H226763   9.642   0.359   8.602
 8841WAT      O26764   6.927   4.251   3.424
 8841WAT     H126765   6.871   4.169   3.420
 8841WAT     H226766   6.914   4.296   3.513
 8842WAT      O26767   3.356   0.577   5.376
 8842WAT     H126768   3.287   0.520   5.331
 8842WAT     H226769   3.414   0.519   5.434
 8843WAT      O26770   9.408   3.867   6.519
 8843WAT     H126771   9.489   3.911   6.481
 8843WAT     H226772   9.377   3.918   6.600
 8844WAT      O26773   5.718   9.086   0.293
 8844WAT     H126774   5.760   8.996   0.287
 8844WAT     H226775   5.639   9.090   0.233
 8845WAT      O26776   0.855   6.729   2.239
 8845WAT     H126777   0.869   6.639   2.198
 8845WAT     H226778   0.897   6.799   2.182
 8846WAT      O26779   8.484   7.034   6.273
 8846WAT     H126780   8.446   6.965   6.334
 8846WAT     H226781   8.580   7.050   6.297
 8847WAT      O26782   2.626   4.672   5.308
 8847WAT     H126783   2.532   4.705   5.316
 8847WAT     H226784   2.688   4.750   5.298
 8848WAT      O26785   5.172   9.217   9.084
 8848WAT     H126786   5.132   9.210   8.993
 8848WAT     H226787   5.271   9.225   9.077
 8849WAT      O26788   2.602   5.000   3.456
 8849WAT     H126789   2.551   5.029   3.376
 8849WAT     H226790   2.583   5.062   3.532
 8850WAT      O26791   9.481   0.516   8.266
 8850WAT     H126792   9.569   0.489   8.228
 8850WAT     H226793   9.422   0.435   8.274
 8851WAT      O26794   4.521   2.887   8.525
 8851WAT     H126795   4.481   2.827   8.593
 8851WAT     H226796   4.471   2.974   8.524
 8852WAT      O26797   5.155   7.225   0.618
 8852WAT     H126798   5.130   7.229   0.715
 8852WAT     H226799   5.233   7.164   0.606
 8853WAT      O26800   1.492   7.396   1.428
 8853WAT     H126801   1.485   7.383   1.527
 8853WAT     H226802   1.416   7.350   1.383
 8854WAT      O26803   9.233   6.498   8.010
 8854WAT     H126804   9.205   6.422   8.068
 8854WAT     H226805   9.291   6.561   8.063
 8855WAT      O26806   1.564   9.846   1.366
 8855WAT     H126807   1.468   9.825   1.385
 8855WAT     H226808   1.619   9.763   1.374
 8856WAT      O26809   3.752   7.933   0.921
 8856WAT     H126810   3.709   7.856   0.873
 8856WAT     H226811   3.790   7.997   0.854
 8857WAT      O26812   8.718   0.702   1.918
 8857WAT     H126813   8.641   0.730   1.975
 8857WAT     H226814   8.801   0.700   1.974
 8858WAT      O26815   0.901   5.638   7.201
 8858WAT     H126816   0.914   5.730   7.240
 8858WAT     H226817   0.957   5.573   7.252
 8859WAT      O26818   6.037   3.206   9.387
 8859WAT     H126819   6.002   3.269   9.457
 8859WAT     H226820   5.966   3.139   9.364
 8860WAT      O26821   3.273   0.096   2.542
 8860WAT     H126822   3.191   0.154   2.536
 8860WAT     H226823   3.321   0.116   2.628
 8861WAT      O26824   9.716   5.410   6.517
 8861WAT     H126825   9.638   5.463   6.550
 8861WAT     H226826   9.705   5.314   6.542
 8862WAT      O26827   2.044   9.220   7.534
 8862WAT     H126828   1.971   9.236   7.601
 8862WAT     H226829   2.020   9.142   7.477
 8863WAT      O26830   6.196   2.981   7.547
 8863WAT     H126831   6.233   2.889   7.541
 8863WAT     H226832   6.268   3.048   7.526
 8864WAT      O26833   9.646   1.180   4.046
 8864WAT     H126834   9.726   1.214   3.997
 8864WAT     H226835   9.665   1.176   4.144
 8865WAT      O26836   6.021   0.024   4.590
 8865WAT     H126837   5.942   0.061   4.541
 8865WAT     H226838   6.081  -0.023   4.525
 8866WAT      O26839   6.664   4.615   5.981
 8866WAT     H126840   6.614   4.676   5.920
 8866WAT     H226841   6.657   4.521   5.949
 8867WAT      O26842   6.714   7.369   7.740
 8867WAT     H126843   6.704   7.289   7.800
 8867WAT     H226844   6.623   7.408   7.722
 8868WAT      O26845   7.264   3.241   7.590
 8868WAT     H126846   7.191   3.201   7.646
 8868WAT     H226847   7.285   3.180   7.514
 8869WAT      O26848   9.743   9.767   8.095
 8869WAT     H126849   9.743   9.863   8.070
 8869WAT     H226850   9.676   9.752   8.169
 8870WAT      O26851   5.767   8.598   0.894
 8870WAT     H126852   5.849   8.542   0.893
 8870WAT     H226853   5.728   8.598   0.986
 8871WAT      O26854   2.685   3.924   5.679
 8871WAT     H126855   2.614   3.981   5.720
 8871WAT     H226856   2.643   3.851   5.625
 8872WAT      O26857   9.697   6.727   6.301
 8872WAT     H126858   9.717   6.810   6.353
 8872WAT     H226859   9.696   6.649   6.363
 8873WAT      O26860   4.092   3.791   5.248
 8873WAT     H126861   4.120   3.874   5.297
 8873WAT     H226862   3.995   3.774   5.263
 8874WAT      O26863   1.123   1.369   2.327
 8874WAT     H126864   1.082   1.294   2.378
 8874WAT     H226865   1.211   1.339   2.288
 8875WAT      O26866   0.127   5.911   7.432
 8875WAT     H126867   0.062   5.875   7.365
 8875WAT     H226868   0.218   5.916   7.391
 8876WAT      O26869   1.365   6.870   0.570
 8876WAT     H126870   1.359   6.804   0.495
 8876WAT     H226871   1.426   6.834   0.640
 8877WAT      O26872   5.321   7.327   1.618
 8877WAT     H126873   5.404   7.287   1.579
 8877WAT     H226874   5.322   7.426   1.604
 8878WAT      O26875   9.552   5.476   2.420
 8878WAT     H126876   9.455   5.456   2.432
 8878WAT     H226877   9.571   5.569   2.450
 8879WAT      O26878   1.497   5.408   1.260
 8879WAT     H126879   1.506   5.385   1.163
 8879WAT     H226880   1.518   5.505   1.272
 8880WAT      O26881   4.190   0.918   8.530
 8880WAT     H126882   4.144   0.913   8.442
 8880WAT     H226883   4.274   0.864   8.528
 8881WAT      O26884   4.295   5.823   0.468
 8881WAT     H126885   4.378   5.845   0.417
 8881WAT     H226886   4.315   5.820   0.565
 8882WAT      O26887   0.179   9.763   4.706
 8882WAT     H126888   0.259   9.761   4.766
 8882WAT     H226889   0.207   9.746   4.612
 8883WAT      O26890   9.152   7.093   9.862
 8883WAT     H126891   9.162   7.191   9.844
 8883WAT     H226892   9.181   7.041   9.782
 8884WAT      O26893   8.700   5.941   9.456
 8884WAT     H126894   8.652   5.853   9.463
 8884WAT     H226895   8.646   6.012   9.501
 8885WAT      O26896   6.695   5.673   5.626
 8885WAT     H126897   6.776   5.724   5.597
 8885WAT     H226898   6.614   5.731   5.616
 8886WAT      O26899   1.256   7.509   8.817
 8886WAT     H126900   1.270   7.476   8.724
 8886WAT     H226901   1.158   7.521   8.834
 8887WAT      O26902   3.580   1.141   5.889
 8887WAT     H126903   3.652   1.199   5.928
 8887WAT     H226904   3.513   1.119   5.960
 8888WAT      O26905   1.926   5.518   3.542
 8888WAT     H126906   1.977   5.598   3.574
 8888WAT     H226907   1.990   5.452   3.503
 8889WAT      O26908   3.687   1.473   3.175
 8889WAT     H126909   3.595   1.467   3.215
 8889WAT     H226910   3.683   1.452   3.078
 8890WAT      O26911   3.546   9.697   4.265
 8890WAT     H126912   3.643   9.713   4.281
 8890WAT     H226913   3.507   9.647   4.342
 8891WAT      O26914   5.612   6.622   8.619
 8891WAT     H126915   5.607   6.529   8.653
 8891WAT     H226916   5.664   6.624   8.533
 8892WAT      O26917   8.460   7.095   9.506
 8892WAT     H126918   8.512   7.033   9.448
 8892WAT     H226919   8.516   7.125   9.583
 8893WAT      O26920   0.678   3.809   2.318
 8893WAT     H126921   0.614   3.750   2.268
 8893WAT     H226922   0.744   3.752   2.367
 8894WAT      O26923   1.989   6.766   5.297
 8894WAT     H126924   1.920   6.831   5.331
 8894WAT     H226925   1.978   6.754   5.198
 8895WAT      O26926   9.577   5.345   0.738
 8895WAT     H126927   9.560   5.441   0.756
 8895WAT     H226928   9.639   5.308   0.807
 8896WAT      O26929   9.396   2.668   5.523
 8896WAT     H126930   9.305   2.634   5.496
 8896WAT     H226931   9.466   2.609   5.483
 8897WAT      O26932   6.083   7.285   9.642
 8897WAT     H126933   6.025   7.350   9.592
 8897WAT     H226934   6.051   7.277   9.736
 8898WAT      O26935   4.882   1.801   2.650
 8898WAT     H126936   4.965   1.857   2.639
 8898WAT     H226937   4.811   1.835   2.589
 8899WAT      O26938   7.387   3.949   1.367
 8899WAT     H126939   7.331   4.025   1.333
 8899WAT     H226940   7.328   3.877   1.403
 8900WAT      O26941   3.336   5.890   6.688
 8900WAT     H126942   3.377   5.808   6.728
 8900WAT     H226943   3.265   5.925   6.750
 8901WAT      O26944   4.349   6.914   8.845
 8901WAT     H126945   4.412   6.843   8.814
 8901WAT     H226946   4.339   6.983   8.772
 8902WAT      O26947   5.481   8.175   1.301
 8902WAT     H126948   5.511   8.123   1.382
 8902WAT     H226949   5.397   8.224   1.323
 8903WAT      O26950   2.002   9.558   3.237
 8903WAT     H126951   1.920   9.501   3.238
 8903WAT     H226952   2.037   9.566   3.144
 8904WAT      O26953   8.847   7.660   4.045
 8904WAT     H126954   8.803   7.571   4.056
 8904WAT     H226955   8.802   7.728   4.104
 8905WAT      O26956   7.947   4.040   6.623
 8905WAT     H126957   7.924   4.013   6.716
 8905WAT     H226958   7.864   4.066   6.574
 8906WAT      O26959   7.714   4.156   6.490
 8906WAT     H126960   7.733   4.199   6.401
 8906WAT     H226961   7.664   4.220   6.548
 8907WAT      O26962   0.425   5.416   9.798
 8907WAT     H126963   0.513   5.462   9.794
 8907WAT     H226964   0.419   5.347   9.725
 8908WAT      O26965   2.040   4.246   7.926
 8908WAT     H126966   2.095   4.329   7.938
 8908WAT     H226967   2.100   4.168   7.912
 8909WAT      O26968   7.267   9.256   5.277
 8909WAT     H126969   7.243   9.338   5.226
 8909WAT     H226970   7.183   9.210   5.307
 8910WAT      O26971   5.854   8.979   4.157
 8910WAT     H126972   5.773   9.012   4.107
 8910WAT     H226973   5.935   8.990   4.099
 8911WAT      O26974   9.589   6.601   3.497
 8911WAT     H126975   9.526   6.548   3.440
 8911WAT     H226976   9.574   6.699   3.481
 8912WAT      O26977   3.147   9.051   9.080
 8912WAT     H126978   3.205   9.102   9.017
 8912WAT     H226979   3.051   9.064   9.055
 8913WAT      O26980   2.530   6.056   2.606
 8913WAT     H126981   2.459   6.041   2.674
 8913WAT     H226982   2.574   5.968   2.583
 8914WAT      O26983   5.303   2.379   5.810
 8914WAT     H126984   5.207   2.358   5.793
 8914WAT     H226985   5.355   2.294   5.817
 8915WAT      O26986   3.945   8.115   8.014
 8915WAT     H126987   3.894   8.080   7.936
 8915WAT     H226988   4.041   8.088   8.006
 8916WAT      O26989   3.332   9.102   7.486
 8916WAT     H126990   3.328   9.193   7.527
 8916WAT     H226991   3.262   9.044   7.528
 8917WAT      O26992   6.790   5.869   8.363
 8917WAT     H126993   6.719   5.825   8.308
 8917WAT     H226994   6.794   5.967   8.342
 8918WAT      O26995   7.385   3.797   7.833
 8918WAT     H126996   7.467   3.747   7.862
 8918WAT     H226997   7.306   3.735   7.835
 8919WAT      O26998   8.500   4.733   6.966
 8919WAT     H126999   8.442   4.758   6.889
 8919WAT     H227000   8.562   4.660   6.938
 8920WAT      O27001   2.800   8.547   0.948
 8920WAT     H127002   2.830   8.452   0.954
 8920WAT     H227003   2.778   8.569   0.853
 8921WAT      O27004   7.081   4.965   7.824
 8921WAT     H127005   7.014   5.020   7.775
 8921WAT     H227006   7.044   4.939   7.913
 8922WAT      O27007   4.374   8.666   7.093
 8922WAT     H127008   4.388   8.715   7.007
 8922WAT     H227009   4.410   8.721   7.168
 8923WAT      O27010   6.978   1.592   6.500
 8923WAT     H127011   7.012   1.552   6.415
 8923WAT     H227012   7.047   1.579   6.572
 8924WAT      O27013   6.312   4.034   8.578
 8924WAT     H127014   6.269   4.115   8.619
 8924WAT     H227015   6.310   3.959   8.644
 8925WAT      O27016   1.127   5.530   1.451
 8925WAT     H127017   1.096   5.541   1.546
 8925WAT     H227018   1.197   5.458   1.448
 8926WAT      O27019   1.600   0.846   8.257
 8926WAT     H127020   1.506   0.855   8.224
 8926WAT     H227021   1.655   0.922   8.223
 8927WAT      O27022   7.871   4.908   3.178
 8927WAT     H127023   7.857   4.906   3.277
 8927WAT     H227024   7.902   4.999   3.150
 8928WAT      O27025   4.080   8.030   3.875
 8928WAT     H127026   4.069   8.033   3.775
 8928WAT     H227027   4.065   8.121   3.913
 8929WAT      O27028   2.188   7.395   2.821
 8929WAT     H127029   2.179   7.493   2.804
 8929WAT     H227030   2.104   7.349   2.792
 8930WAT      O27031   1.985   1.841   4.835
 8930WAT     H127032   2.021   1.935   4.841
 8930WAT     H227033   2.059   1.777   4.853
 8931WAT      O27034   0.273   3.690   6.198
 8931WAT     H127035   0.351   3.719   6.142
 8931WAT     H227036   0.225   3.771   6.232
 8932WAT      O27037   4.343   1.445   0.746
 8932WAT     H127038   4.296   1.357   0.733
 8932WAT     H227039   4.440   1.433   0.727
 8933WAT      O27040   6.311   1.802   6.292
 8933WAT     H127041   6.325   1.898   6.264
 8933WAT     H227042   6.392   1.770   6.341
 8934WAT      O27043   6.533   9.206   7.440
 8934WAT     H127044   6.610   9.179   7.497
 8934WAT     H227045   6.488   9.123   7.405
 8935WAT      O27046   4.031   2.863   4.202
 8935WAT     H127047   4.097   2.796   4.167
 8935WAT     H227048   4.044   2.950   4.155
 8936WAT      O27049   8.956   6.571   0.564
 8936WAT     H127050   8.951   6.472   0.562
 8936WAT     H227051   9.046   6.600   0.598
 8937WAT      O27052   2.070   2.236   3.759
 8937WAT     H127053   2.148   2.185   3.722
 8937WAT     H227054   2.012   2.267   3.684
 8938WAT      O27055   2.051   7.776   1.743
 8938WAT     H127056   1.988   7.779   1.820
 8938WAT     H227057   2.126   7.713   1.764
 8939WAT      O27058   4.679   3.085   6.771
 8939WAT     H127059   4.768   3.079   6.816
 8939WAT     H227060   4.691   3.076   6.672
 8940WAT      O27061   4.181   2.508   5.552
 8940WAT     H127062   4.154   2.593   5.598
 8940WAT     H227063   4.280   2.504   5.544
 8941WAT      O27064   2.530   6.212   5.542
 8941WAT     H127065   2.628   6.198   5.527
 8941WAT     H227066   2.504   6.175   5.631
 8942WAT      O27067   0.779   1.068   5.940
 8942WAT     H127068   0.837   0.988   5.931
 8942WAT     H227069   0.835   1.150   5.945
 8943WAT      O27070   9.201   4.269   2.147
 8943WAT     H127071   9.199   4.235   2.241
 8943WAT     H227072   9.139   4.347   2.138
 8944WAT      O27073   3.393   2.756   1.786
 8944WAT     H127074   3.478   2.778   1.833
 8944WAT     H227075   3.319   2.749   1.853
 8945WAT      O27076   1.133   9.167   6.667
 8945WAT     H127077   1.109   9.083   6.618
 8945WAT     H227078   1.226   9.158   6.704
 8946WAT      O27079   0.717   4.032   5.359
 8946WAT     H127080   0.718   4.127   5.330
 8946WAT     H227081   0.737   4.026   5.456
 8947WAT      O27082   5.546   0.232   3.151
 8947WAT     H127083   5.587   0.140   3.154
 8947WAT     H227084   5.457   0.227   3.107
 8948WAT      O27085   9.606   1.744   4.445
 8948WAT     H127086   9.531   1.725   4.508
 8948WAT     H227087   9.611   1.842   4.429
 8949WAT      O27088   7.574   0.240   5.882
 8949WAT     H127089   7.570   0.156   5.936
 8949WAT     H227090   7.646   0.299   5.918
 8950WAT      O27091   2.500   8.622   5.446
 8950WAT     H127092   2.512   8.611   5.347
 8950WAT     H227093   2.453   8.542   5.483
 8951WAT      O27094   0.276   0.618   3.956
 8951WAT     H127095   0.281   0.523   3.987
 8951WAT     H227096   0.344   0.672   4.006
 8952WAT      O27097   5.287   7.741   2.372
 8952WAT     H127098   5.330   7.710   2.287
 8952WAT     H227099   5.188   7.733   2.364
 8953WAT      O27100   5.393   4.125   0.187
 8953WAT     H127101   5.431   4.048   0.239
 8953WAT     H227102   5.294   4.115   0.180
 8954WAT      O27103   5.748   2.744   8.381
 8954WAT     H127104   5.770   2.707   8.472
 8954WAT     H227105   5.805   2.824   8.364
 8955WAT      O27106   0.539   5.553   8.894
 8955WAT     H127107   0.586   5.485   8.837
 8955WAT     H227108   0.593   5.637   8.896
 8956WAT      O27109   5.714   0.625   6.635
 8956WAT     H127110   5.660   0.613   6.552
 8956WAT     H227111   5.773   0.545   6.649
 8957WAT      O27112   7.036   4.112   4.017
 8957WAT     H127113   7.108   4.178   3.994
 8957WAT     H227114   6.978   4.097   3.937
 8958WAT      O27115   4.679   4.060   0.678
 8958WAT     H127116   4.633   4.148   0.689
 8958WAT     H227117   4.727   4.036   0.763
 8959WAT      O27118   8.175   2.835   8.777
 8959WAT     H127119   8.197   2.909   8.840
 8959WAT     H227120   8.246   2.830   8.706
 8960WAT      O27121   8.524   8.773   4.704
 8960WAT     H127122   8.458   8.763   4.629
 8960WAT     H227123   8.478   8.815   4.783
 8961WAT      O27124   2.860   1.550   1.703
 8961WAT     H127125   2.770   1.509   1.686
 8961WAT     H227126   2.872   1.564   1.801
 8962WAT      O27127   0.774   3.722   6.541
 8962WAT     H127128   0.863   3.714   6.497
 8962WAT     H227129   0.754   3.639   6.593
 8963WAT      O27130   9.857   1.824   8.445
 8963WAT     H127131   9.919   1.878   8.388
 8963WAT     H227132   9.892   1.731   8.454
 8964WAT      O27133   5.411   4.191   1.203
 8964WAT     H127134   5.391   4.205   1.299
 8964WAT     H227135   5.332   4.217   1.148
 8965WAT      O27136   3.348   2.199   4.094
 8965WAT     H127137   3.265   2.189   4.147
 8965WAT     H227138   3.394   2.285   4.118
 8966WAT      O27139   8.271   0.688   8.635
 8966WAT     H127140   8.353   0.681   8.579
 8966WAT     H227141   8.292   0.738   8.719
 8967WAT      O27142   0.698   4.718   1.157
 8967WAT     H127143   0.717   4.723   1.255
 8967WAT     H227144   0.680   4.623   1.131
 8968WAT      O27145   3.448   6.333   0.808
 8968WAT     H127146   3.544   6.321   0.837
 8968WAT     H227147   3.403   6.243   0.808
 8969WAT      O27148   0.361   5.886   0.059
 8969WAT     H127149   0.264   5.866   0.074
 8969WAT     H227150   0.394   5.833  -0.019
 8970WAT      O27151   3.000   1.738   3.882
 8970WAT     H127152   3.052   1.818   3.854
 8970WAT     H227153   3.055   1.681   3.944
 8971WAT      O27154   2.285   2.182   3.486
 8971WAT     H127155   2.287   2.109   3.555
 8971WAT     H227156   2.344   2.156   3.409
 8972WAT      O27157   7.279   7.173   0.818
 8972WAT     H127158   7.340   7.251   0.823
 8972WAT     H227159   7.271   7.142   0.723
 8973WAT      O27160   6.067   7.969   1.855
 8973WAT     H127161   6.112   8.015   1.931
 8973WAT     H227162   6.080   8.023   1.771
 8974WAT      O27163   7.643   8.935   3.698
 8974WAT     H127164   7.692   9.021   3.706
 8974WAT     H227165   7.616   8.904   3.790
 8975WAT      O27166   6.821   8.634   6.191
 8975WAT     H127167   6.809   8.732   6.172
 8975WAT     H227168   6.735   8.596   6.223
 8976WAT      O27169   5.119   6.587   6.314
 8976WAT     H127170   5.093   6.496   6.346
 8976WAT     H227171   5.111   6.653   6.389
 8977WAT      O27172   5.903   9.209   6.440
 8977WAT     H127173   5.928   9.273   6.367
 8977WAT     H227174   5.867   9.125   6.401
 8978WAT      O27175   8.925   5.229   9.591
 8978WAT     H127176   8.835   5.235   9.548
 8978WAT     H227177   8.948   5.133   9.607
 8979WAT      O27178   7.963   1.476   6.728
 8979WAT     H127179   8.017   1.420   6.665
 8979WAT     H227180   7.984   1.573   6.713
 8980WAT      O27181   3.496   6.286   1.191
 8980WAT     H127182   3.584   6.333   1.201
 8980WAT     H227183   3.509   6.188   1.200
 8981WAT      O27184   3.643   4.782   6.200
 8981WAT     H127185   3.642   4.841   6.280
 8981WAT     H227186   3.720   4.805   6.141
 8982WAT      O27187   8.358   8.051   2.812
 8982WAT     H127188   8.424   8.054   2.737
 8982WAT     H227189   8.294   7.977   2.797
 8983WAT      O27190   8.029   2.886   8.311
 8983WAT     H127191   8.090   2.965   8.304
 8983WAT     H227192   8.083   2.803   8.322
 8984WAT      O27193   0.870   1.914   5.771
 8984WAT     H127194   0.775   1.897   5.797
 8984WAT     H227195   0.923   1.830   5.784
 8985WAT      O27196   6.248   9.416   6.409
 8985WAT     H127197   6.268   9.328   6.365
 8985WAT     H227198   6.318   9.483   6.383
 8986WAT      O27199   7.190   8.237   2.105
 8986WAT     H127200   7.190   8.258   2.203
 8986WAT     H227201   7.104   8.193   2.081
 8987WAT      O27202   8.289   3.128   5.356
 8987WAT     H127203   8.367   3.165   5.407
 8987WAT     H227204   8.205   3.174   5.385
 8988WAT      O27205   9.155   6.035   2.501
 8988WAT     H127206   9.238   5.995   2.462
 8988WAT     H227207   9.114   6.098   2.434
 8989WAT      O27208   8.261   2.035   9.047
 8989WAT     H127209   8.176   2.087   9.045
 8989WAT     H227210   8.339   2.097   9.038
 8990WAT      O27211   1.207   0.473   6.986
 8990WAT     H127212   1.270   0.404   6.949
 8990WAT     H227213   1.117   0.461   6.944
 8991WAT      O27214   4.848   5.134   6.968
 8991WAT     H127215   4.823   5.120   6.873
 8991WAT     H227216   4.942   5.170   6.973
 8992WAT      O27217   6.804   9.592   6.851
 8992WAT     H127218   6.830   9.501   6.819
 8992WAT     H227219   6.843   9.608   6.941
 8993WAT      O27220   4.151   6.207   2.040
 8993WAT     H127221   4.195   6.289   2.077
 8993WAT     H227222   4.106   6.157   2.113
 8994WAT      O27223   9.873   2.424   2.666
 8994WAT     H127224   9.862   2.494   2.736
 8994WAT     H227225   9.785   2.377   2.652
 8995WAT      O27226   2.680   8.864   9.791
 8995WAT     H127227   2.673   8.876   9.692
 8995WAT     H227228   2.673   8.954   9.835
 8996WAT      O27229   5.752   5.044   1.668
 8996WAT     H127230   5.848   5.042   1.694
 8996WAT     H227231   5.741   5.007   1.576
 8997WAT      O27232   6.993   9.062   9.649
 8997WAT     H127233   6.982   8.985   9.712
 8997WAT     H227234   6.929   9.135   9.673
 8998WAT      O27235   6.375   3.935   5.317
 8998WAT     H127236   6.310   3.965   5.247
 8998WAT     H227237   6.424   4.014   5.353
 8999WAT      O27238   4.936   6.873   1.661
 8999WAT     H127239   5.012   6.874   1.726
 8999WAT     H227240   4.957   6.932   1.583
 9000WAT      O27241   1.642   8.971   5.702
 9000WAT     H127242   1.572   8.902   5.720
 9000WAT     H227243   1.637   8.999   5.606
 9001WAT      O27244   1.938   3.346   7.740
 9001WAT     H127245   1.965   3.439   7.763
 9001WAT     H227246   2.008   3.304   7.683
 9002WAT      O27247   0.509   3.882   4.954
 9002WAT     H127248   0.548   3.969   4.922
 9002WAT     H227249   0.532   3.869   5.050
 9003WAT      O27250   1.734   1.444   8.821
 9003WAT     H127251   1.712   1.506   8.746
 9003WAT     H227252   1.820   1.398   8.802
 9004WAT      O27253   5.398   6.819   3.707
 9004WAT     H127254   5.357   6.903   3.742
 9004WAT     H227255   5.446   6.772   3.781
 9005WAT      O27256   8.736   2.055   0.759
 9005WAT     H127257   8.752   1.968   0.805
 9005WAT     H227258   8.760   2.046   0.662
 9006WAT      O27259   5.225   5.406   9.756
 9006WAT     H127260   5.277   5.491   9.755
 9006WAT     H227261   5.148   5.415   9.819
 9007WAT      O27262   5.007   4.879   3.217
 9007WAT     H127263   5.045   4.790   3.194
 9007WAT     H227264   5.055   4.916   3.297
 9008WAT      O27265   7.055   4.505   8.583
 9008WAT     H127266   7.153   4.495   8.600
 9008WAT     H227267   7.039   4.509   8.484
 9009WAT      O27268   2.434   5.081   7.571
 9009WAT     H127269   2.389   5.015   7.510
 9009WAT     H227270   2.386   5.083   7.659
 9010WAT      O27271   7.743   2.660   2.166
 9010WAT     H127272   7.724   2.697   2.257
 9010WAT     H227273   7.840   2.636   2.159
 9011WAT      O27274   4.128   9.000   8.126
 9011WAT     H127275   4.074   9.047   8.196
 9011WAT     H227276   4.205   9.058   8.100
 9012WAT      O27277   9.339   2.833   2.252
 9012WAT     H127278   9.340   2.740   2.215
 9012WAT     H227279   9.314   2.898   2.180
 9013WAT      O27280   3.616   7.325   2.678
 9013WAT     H127281   3.707   7.303   2.715
 9013WAT     H227282   3.623   7.408   2.621
 9014WAT      O27283   5.182   0.677   6.815
 9014WAT     H127284   5.082   0.671   6.815
 9014WAT     H227285   5.221   0.586   6.833
 9015WAT      O27286   2.071   0.455   1.910
 9015WAT     H127287   2.020   0.476   1.827
 9015WAT     H227288   2.008   0.428   1.982
 9016WAT      O27289   2.801   2.652   6.918
 9016WAT     H127290   2.760   2.716   6.982
 9016WAT     H227291   2.848   2.579   6.968
 9017WAT      O27292   4.633   9.531   7.694
 9017WAT     H127293   4.678   9.620   7.691
 9017WAT     H227294   4.546   9.535   7.645
 9018WAT      O27295   4.216   0.396   3.142
 9018WAT     H127296   4.314   0.416   3.139
 9018WAT     H227297   4.194   0.344   3.224
 9019WAT      O27298   6.523   0.224   0.246
 9019WAT     H127299   6.597   0.157   0.253
 9019WAT     H227300   6.454   0.190   0.182
 9020WAT      O27301   4.471   8.272   6.885
 9020WAT     H127302   4.397   8.304   6.944
 9020WAT     H227303   4.453   8.299   6.790
 9021WAT      O27304   3.198   3.146   6.190
 9021WAT     H127305   3.131   3.073   6.179
 9021WAT     H227306   3.289   3.107   6.200
 9022WAT      O27307   5.578   8.975   4.737
 9022WAT     H127308   5.668   8.990   4.696
 9022WAT     H227309   5.581   9.000   4.834
 9023WAT      O27310   0.416   2.427   6.624
 9023WAT     H127311   0.390   2.330   6.626
 9023WAT     H227312   0.348   2.481   6.673
 9024WAT      O27313   6.083   5.610   8.081
 9024WAT     H127314   6.141   5.627   8.160
 9024WAT     H227315   6.101   5.680   8.011
 9025WAT      O27316   6.774   1.607   2.732
 9025WAT     H127317   6.763   1.704   2.710
 9025WAT     H227318   6.866   1.592   2.770
 9026WAT      O27319   9.871   4.336   8.661
 9026WAT     H127320   9.907   4.374   8.746
 9026WAT     H227321   9.827   4.248   8.680
 9027WAT      O27322   3.354   2.280   0.098
 9027WAT     H127323   3.452   2.296   0.105
 9027WAT     H227324   3.311   2.354   0.046
 9028WAT      O27325   1.089   8.227   4.948
 9028WAT     H127326   1.021   8.300   4.939
 9028WAT     H227327   1.108   8.188   4.859
 9029WAT      O27328   5.012   1.918   8.753
 9029WAT     H127329   4.937   1.956   8.699
 9029WAT     H227330   4.975   1.864   8.828
 9030WAT      O27331   8.818   9.170   5.806
 9030WAT     H127332   8.719   9.160   5.796
 9030WAT     H227333   8.855   9.214   5.725
 9031WAT      O27334   1.054   3.945   1.110
 9031WAT     H127335   1.150   3.925   1.090
 9031WAT     H227336   1.040   3.946   1.210
 9032WAT      O27337   6.042   4.298   0.565
 9032WAT     H127338   6.010   4.223   0.622
 9032WAT     H227339   6.139   4.284   0.544
 9033WAT      O27340   3.613   2.444   0.187
 9033WAT     H127341   3.638   2.358   0.142
 9033WAT     H227342   3.649   2.520   0.133
 9034WAT      O27343   8.661   2.995   9.183
 9034WAT     H127344   8.610   2.941   9.250
 9034WAT     H227345   8.625   2.976   9.092
 9035WAT      O27346   0.572   4.985   8.322
 9035WAT     H127347   0.541   5.073   8.358
 9035WAT     H227348   0.494   4.932   8.291
 9036WAT      O27349   0.031   6.647   6.174
 9036WAT     H127350  -0.055   6.677   6.214
 9036WAT     H227351   0.105   6.709   6.201
 9037WAT      O27352   8.262   8.586   4.013
 9037WAT     H127353   8.317   8.556   4.091
 9037WAT     H227354   8.265   8.516   3.941
 9038WAT      O27355   1.907   2.245   5.983
 9038WAT     H127356   1.991   2.229   5.931
 9038WAT     H227357   1.858   2.159   5.995
 9039WAT      O27358   5.530   4.022   3.317
 9039WAT     H127359   5.542   3.923   3.324
 9039WAT     H227360   5.567   4.054   3.230
 9040WAT      O27361   8.238   5.634   3.398
 9040WAT     H127362   8.191   5.617   3.311
 9040WAT     H227363   8.287   5.552   3.427
 9041WAT      O27364   2.992   0.837   7.014
 9041WAT     H127365   2.932   0.798   6.945
 9041WAT     H227366   2.943   0.904   7.068
 9042WAT      O27367   4.842   3.900   4.964
 9042WAT     H127368   4.787   3.820   4.990
 9042WAT     H227369   4.938   3.872   4.954
 9043WAT      O27370   3.070   8.447   7.845
 9043WAT     H127371   3.082   8.510   7.922
 9043WAT     H227372   2.975   8.447   7.816
 9044WAT      O27373   4.794   5.173   0.131
 9044WAT     H127374   4.753   5.252   0.086
 9044WAT     H227375   4.757   5.165   0.224
 9045WAT      O27376   1.341   1.910   1.146
 9045WAT     H127377   1.367   1.854   1.067
 9045WAT     H227378   1.420   1.963   1.177
 9046WAT      O27379   0.759   7.538   9.739
 9046WAT     H127380   0.778   7.527   9.837
 9046WAT     H227381   0.822   7.481   9.686
 9047WAT      O27382   0.833   2.130   2.663
 9047WAT     H127383   0.895   2.199   2.625
 9047WAT     H227384   0.846   2.126   2.762
 9048WAT      O27385   1.167   4.302   7.257
 9048WAT     H127386   1.106   4.222   7.254
 9048WAT     H227387   1.133   4.373   7.196
 9049WAT      O27388   0.062   3.488   0.611
 9049WAT     H127389   0.034   3.442   0.695
 9049WAT     H227390  -0.019   3.514   0.558
 9050WAT      O27391   8.178   5.352   3.155
 9050WAT     H127392   8.160   5.305   3.241
 9050WAT     H227393   8.092   5.384   3.116
 9051WAT      O27394   2.025   3.565   3.634
 9051WAT     H127395   1.935   3.524   3.621
 9051WAT     H227396   2.046   3.570   3.732
 9052WAT      O27397   6.565   4.238   0.934
 9052WAT     H127398   6.572   4.233   1.034
 9052WAT     H227399   6.480   4.195   0.904
 9053WAT      O27400   7.780   7.766   9.102
 9053WAT     H127401   7.790   7.855   9.058
 9053WAT     H227402   7.720   7.775   9.182
 9054WAT      O27403   5.888   5.838   9.355
 9054WAT     H127404   5.922   5.880   9.271
 9054WAT     H227405   5.954   5.771   9.389
 9055WAT      O27406   7.155   0.681   1.345
 9055WAT     H127407   7.115   0.765   1.381
 9055WAT     H227408   7.253   0.695   1.328
 9056WAT      O27409   2.540   9.371   9.579
 9056WAT     H127410   2.618   9.343   9.634
 9056WAT     H227411   2.457   9.367   9.634
 9057WAT      O27412   6.132   0.312   8.755
 9057WAT     H127413   6.042   0.331   8.716
 9057WAT     H227414   6.157   0.217   8.737
 9058WAT      O27415   2.430   1.494   5.514
 9058WAT     H127416   2.474   1.580   5.486
 9058WAT     H227417   2.498   1.433   5.552
 9059WAT      O27418   6.287   0.745   1.585
 9059WAT     H127419   6.198   0.779   1.554
 9059WAT     H227420   6.310   0.789   1.672
 9060WAT      O27421   7.345   2.692   4.746
 9060WAT     H127422   7.289   2.624   4.795
 9060WAT     H227423   7.285   2.757   4.700
 9061WAT      O27424   0.729   6.638   9.292
 9061WAT     H127425   0.698   6.724   9.251
 9061WAT     H227426   0.824   6.621   9.264
 9062WAT      O27427   4.035   5.960   1.367
 9062WAT     H127428   4.132   5.981   1.374
 9062WAT     H227429   3.988   6.036   1.321
 9063WAT      O27430   7.167   6.890   3.790
 9063WAT     H127431   7.100   6.959   3.816
 9063WAT     H227432   7.259   6.928   3.801
 9064WAT      O27433   9.723   3.704   4.920
 9064WAT     H127434   9.800   3.728   4.980
 9064WAT     H227435   9.656   3.778   4.922
 9065WAT      O27436   8.010   8.170   2.549
 9065WAT     H127437   7.953   8.205   2.475
 9065WAT     H227438   7.963   8.095   2.595
 9066WAT      O27439   0.760   4.380   5.443
 9066WAT     H127440   0.730   4.364   5.349
 9066WAT     H227441   0.681   4.378   5.504
 9067WAT      O27442   2.264   2.566   5.800
 9067WAT     H127443   2.345   2.590   5.745
 9067WAT     H227444   2.248   2.468   5.793
 9068WAT      O27445   3.898   0.118   7.077
 9068WAT     H127446   3.799   0.122   7.082
 9068WAT     H227447   3.937   0.141   7.166
 9069WAT      O27448   8.695   3.205   1.554
 9069WAT     H127449   8.767   3.273   1.542
 9069WAT     H227450   8.729   3.115   1.525
 9070WAT      O27451   5.249   0.544   0.972
 9070WAT     H127452   5.190   0.606   1.024
 9070WAT     H227453   5.337   0.535   1.018
 9071WAT      O27454   8.736   5.460   0.320
 9071WAT     H127455   8.707   5.555   0.333
 9071WAT     H227456   8.814   5.441   0.379
 9072WAT      O27457   9.213   7.137   3.427
 9072WAT     H127458   9.235   7.041   3.446
 9072WAT     H227459   9.226   7.156   3.330
 9073WAT      O27460   4.839   3.699   3.980
 9073WAT     H127461   4.755   3.673   4.029
 9073WAT     H227462   4.918   3.659   4.026
 9074WAT      O27463   7.747   0.346   9.127
 9074WAT     H127464   7.811   0.423   9.132
 9074WAT     H227465   7.713   0.324   9.218
 9075WAT      O27466   3.073   0.518   5.473
 9075WAT     H127467   3.021   0.467   5.542
 9075WAT     H227468   3.119   0.595   5.517
 9076WAT      O27469   0.285   6.078   9.023
 9076WAT     H127470   0.324   6.019   8.952
 9076WAT     H227471   0.352   6.148   9.048
 9077WAT      O27472   5.259   2.164   8.572
 9077WAT     H127473   5.169   2.206   8.561
 9077WAT     H227474   5.288   2.173   8.667
 9078WAT      O27475   3.419   8.766   7.694
 9078WAT     H127476   3.441   8.741   7.788
 9078WAT     H227477   3.450   8.694   7.632
 9079WAT      O27478   3.483   5.745   4.343
 9079WAT     H127479   3.419   5.728   4.418
 9079WAT     H227480   3.433   5.744   4.256
 9080WAT      O27481   2.374   9.382   6.539
 9080WAT     H127482   2.388   9.385   6.440
 9080WAT     H227483   2.387   9.474   6.577
 9081WAT      O27484   2.095   0.921   5.849
 9081WAT     H127485   2.073   0.852   5.919
 9081WAT     H227486   2.194   0.926   5.837
 9082WAT      O27487   7.039   5.454   5.648
 9082WAT     H127488   7.131   5.442   5.610
 9082WAT     H227489   7.039   5.427   5.744
 9083WAT      O27490   8.695   4.881   6.083
 9083WAT     H127491   8.770   4.851   6.140
 9083WAT     H227492   8.609   4.845   6.119
 9084WAT      O27493   3.595   3.551   8.704
 9084WAT     H127494   3.587   3.651   8.714
 9084WAT     H227495   3.533   3.507   8.769
 9085WAT      O27496   4.618   8.083   8.928
 9085WAT     H127497   4.543   8.082   8.994
 9085WAT     H227498   4.658   7.992   8.920
 9086WAT      O27499   9.500   1.550   5.082
 9086WAT     H127500   9.430   1.536   5.012
 9086WAT     H227501   9.466   1.613   5.152
 9087WAT      O27502   2.448   2.356   2.238
 9087WAT     H127503   2.477   2.260   2.240
 9087WAT     H227504   2.529   2.415   2.232
 9088WAT      O27505   0.144   1.241   6.542
 9088WAT     H127506   0.214   1.190   6.593
 9088WAT     H227507   0.122   1.192   6.458
 9089WAT      O27508   7.472   1.651   7.244
 9089WAT     H127509   7.475   1.746   7.274
 9089WAT     H227510   7.534   1.638   7.166
 9090WAT      O27511   0.693   8.469   8.111
 9090WAT     H127512   0.605   8.517   8.100
 9090WAT     H227513   0.704   8.404   8.036
 9091WAT      O27514   0.546   9.370   7.992
 9091WAT     H127515   0.506   9.278   7.984
 9091WAT     H227516   0.615   9.369   8.064
 9092WAT      O27517   0.183   8.191   8.829
 9092WAT     H127518   0.267   8.148   8.862
 9092WAT     H227519   0.147   8.139   8.752
 9093WAT      O27520   5.130   7.936   1.777
 9093WAT     H127521   5.055   7.892   1.729
 9093WAT     H227522   5.161   7.878   1.852
 9094WAT      O27523   5.858   9.254   5.391
 9094WAT     H127524   5.779   9.300   5.431
 9094WAT     H227525   5.870   9.164   5.433
 9095WAT      O27526   1.110   1.465   1.708
 9095WAT     H127527   1.202   1.499   1.729
 9095WAT     H227528   1.067   1.527   1.642
 9096WAT      O27529   5.199   1.449   6.358
 9096WAT     H127530   5.219   1.425   6.453
 9096WAT     H227531   5.118   1.400   6.327
 9097WAT      O27532   4.002   3.476   5.571
 9097WAT     H127533   4.044   3.436   5.652
 9097WAT     H227534   4.058   3.553   5.540
 9098WAT      O27535   7.729   0.681   5.936
 9098WAT     H127536   7.645   0.663   5.985
 9098WAT     H227537   7.785   0.598   5.933
 9099WAT      O27538   2.184   2.089   1.388
 9099WAT     H127539   2.236   2.151   1.329
 9099WAT     H227540   2.237   2.068   1.470
 9100WAT      O27541   4.877   0.865   9.287
 9100WAT     H127542   4.874   0.934   9.215
 9100WAT     H227543   4.785   0.849   9.321
 9101WAT      O27544   6.590   2.411   6.160
 9101WAT     H127545   6.610   2.386   6.255
 9101WAT     H227546   6.656   2.480   6.129
 9102WAT      O27547   4.876   4.763   1.625
 9102WAT     H127548   4.897   4.851   1.666
 9102WAT     H227549   4.871   4.693   1.697
 9103WAT      O27550   4.374   3.158   1.555
 9103WAT     H127551   4.451   3.105   1.519
 9103WAT     H227552   4.361   3.240   1.500
 9104WAT      O27553   9.049   5.666   5.928
 9104WAT     H127554   8.976   5.734   5.935
 9104WAT     H227555   9.085   5.667   5.835
 9105WAT      O27556   4.305   0.659   6.935
 9105WAT     H127557   4.252   0.575   6.933
 9105WAT     H227558   4.333   0.679   7.029
 9106WAT      O27559   1.111   4.906   9.332
 9106WAT     H127560   1.091   4.917   9.430
 9106WAT     H227561   1.125   4.996   9.291
 9107WAT      O27562   9.126   8.525   1.846
 9107WAT     H127563   9.082   8.435   1.853
 9107WAT     H227564   9.154   8.555   1.937
 9108WAT      O27565   7.774   4.253   4.645
 9108WAT     H127566   7.865   4.295   4.651
 9108WAT     H227567   7.778   4.160   4.681
 9109WAT      O27568   7.536   7.209   0.469
 9109WAT     H127569   7.623   7.214   0.419
 9109WAT     H227570   7.553   7.196   0.566
 9110WAT      O27571   6.686   6.458   7.613
 9110WAT     H127572   6.660   6.416   7.700
 9110WAT     H227573   6.779   6.493   7.620
 9111WAT      O27574   4.373   8.205   4.733
 9111WAT     H127575   4.467   8.202   4.769
 9111WAT     H227576   4.323   8.280   4.775
 9112WAT      O27577   8.475   1.579   4.535
 9112WAT     H127578   8.474   1.654   4.470
 9112WAT     H227579   8.537   1.508   4.503
 9113WAT      O27580   7.479   0.079   0.353
 9113WAT     H127581   7.461  -0.016   0.380
 9113WAT     H227582   7.397   0.117   0.311
 9114WAT      O27583   6.797   6.645   0.890
 9114WAT     H127584   6.717   6.590   0.869
 9114WAT     H227585   6.879   6.600   0.856
 9115WAT      O27586   7.463   2.456   4.478
 9115WAT     H127587   7.561   2.443   4.469
 9115WAT     H227588   7.433   2.422   4.567
 9116WAT      O27589   7.403   0.260   5.664
 9116WAT     H127590   7.370   0.352   5.645
 9116WAT     H227591   7.468   0.263   5.740
 9117WAT      O27592   8.246   0.494   2.324
 9117WAT     H127593   8.285   0.491   2.232
 9117WAT     H227594   8.152   0.459   2.322
 9118WAT      O27595   3.739   7.613   2.766
 9118WAT     H127596   3.775   7.703   2.741
 9118WAT     H227597   3.648   7.623   2.805
 9119WAT      O27598   3.110   3.223   5.162
 9119WAT     H127599   3.118   3.180   5.251
 9119WAT     H227600   3.069   3.159   5.097
 9120WAT      O27601   4.607   9.042   6.957
 9120WAT     H127602   4.598   9.083   6.867
 9120WAT     H227603   4.667   8.962   6.952
 9121WAT      O27604   1.488   1.216   6.003
 9121WAT     H127605   1.530   1.126   6.018
 9121WAT     H227606   1.409   1.226   6.063
 9122WAT      O27607   3.520   5.739   1.242
 9122WAT     H127608   3.442   5.696   1.288
 9122WAT     H227609   3.509   5.728   1.143
 9123WAT      O27610   6.607   4.303   6.646
 9123WAT     H127611   6.582   4.333   6.738
 9123WAT     H227612   6.609   4.203   6.642
 9124WAT      O27613   9.392   7.936   8.271
 9124WAT     H127614   9.454   7.935   8.350
 9124WAT     H227615   9.386   7.844   8.232
 9125WAT      O27616   8.640   0.832   7.680
 9125WAT     H127617   8.707   0.826   7.754
 9125WAT     H227618   8.555   0.870   7.715
 9126WAT      O27619   1.455   2.738   7.841
 9126WAT     H127620   1.515   2.662   7.865
 9126WAT     H227621   1.509   2.821   7.828
 9127WAT      O27622   6.574   9.567   6.697
 9127WAT     H127623   6.602   9.510   6.620
 9127WAT     H227624   6.653   9.587   6.754
 9128WAT      O27625   4.000   6.980   4.256
 9128WAT     H127626   4.024   6.903   4.314
 9128WAT     H227627   3.993   7.063   4.312
 9129WAT      O27628   4.405   4.130   8.778
 9129WAT     H127629   4.473   4.203   8.783
 9129WAT     H227630   4.448   4.043   8.803
 9130WAT      O27631   8.185   1.947   4.359
 9130WAT     H127632   8.202   1.969   4.455
 9130WAT     H227633   8.271   1.923   4.314
 9131WAT      O27634   3.816   8.593   4.336
 9131WAT     H127635   3.768   8.509   4.357
 9131WAT     H227636   3.905   8.572   4.295
 9132WAT      O27637   2.390   8.693   3.455
 9132WAT     H127638   2.332   8.766   3.418
 9132WAT     H227639   2.486   8.721   3.452
 9133WAT      O27640   6.523   2.793   2.814
 9133WAT     H127641   6.560   2.885   2.831
 9133WAT     H227642   6.472   2.793   2.728
 9134WAT      O27643   7.997   7.679   8.169
 9134WAT     H127644   7.941   7.756   8.200
 9134WAT     H227645   7.958   7.593   8.203
 9135WAT      O27646   3.163   5.636   0.332
 9135WAT     H127647   3.133   5.716   0.384
 9135WAT     H227648   3.151   5.554   0.388
 9136WAT      O27649   0.201   2.201   7.916
 9136WAT     H127650   0.215   2.266   7.991
 9136WAT     H227651   0.289   2.176   7.876
 9137WAT      O27652   9.341   0.573   9.446
 9137WAT     H127653   9.382   0.512   9.514
 9137WAT     H227654   9.364   0.541   9.354
 9138WAT      O27655   1.828   4.877   3.397
 9138WAT     H127656   1.861   4.811   3.463
 9138WAT     H227657   1.728   4.880   3.400
 9139WAT      O27658   8.996   1.113   9.251
 9139WAT     H127659   8.907   1.156   9.265
 9139WAT     H227660   9.042   1.101   9.339
 9140WAT      O27661   0.312   3.950   7.815
 9140WAT     H127662   0.295   3.856   7.785
 9140WAT     H227663   0.410   3.966   7.818
 9141WAT      O27664   9.239   0.175   4.394
 9141WAT     H127665   9.266   0.079   4.405
 9141WAT     H227666   9.146   0.181   4.358
 9142WAT      O27667   2.897   5.402   6.318
 9142WAT     H127668   2.800   5.424   6.318
 9142WAT     H227669   2.924   5.364   6.406
 9143WAT      O27670   8.151   4.589   8.947
 9143WAT     H127671   8.053   4.597   8.964
 9143WAT     H227672   8.169   4.513   8.885
 9144WAT      O27673   2.061   7.048   7.790
 9144WAT     H127674   1.967   7.014   7.785
 9144WAT     H227675   2.070   7.108   7.870
 9145WAT      O27676   1.997   4.625   0.125
 9145WAT     H127677   2.070   4.587   0.068
 9145WAT     H227678   2.032   4.641   0.217
 9146WAT      O27679   8.978   2.692   7.155
 9146WAT     H127680   8.954   2.596   7.166
 9146WAT     H227681   9.070   2.699   7.116
 9147WAT      O27682   3.861   3.472   3.761
 9147WAT     H127683   3.923   3.549   3.778
 9147WAT     H227684   3.837   3.429   3.848
 9148WAT      O27685   8.851   3.617   1.798
 9148WAT     H127686   8.872   3.702   1.750
 9148WAT     H227687   8.846   3.634   1.897
 9149WAT      O27688   2.327   1.951   5.534
 9149WAT     H127689   2.294   1.935   5.627
 9149WAT     H227690   2.261   1.915   5.469
 9150WAT      O27691   7.681   7.350   7.135
 9150WAT     H127692   7.631   7.385   7.056
 9150WAT     H227693   7.632   7.373   7.219
 9151WAT      O27694   5.238   4.137   0.835
 9151WAT     H127695   5.332   4.143   0.802
 9151WAT     H227696   5.210   4.042   0.837
 9152WAT      O27697   4.748   6.369   2.540
 9152WAT     H127698   4.679   6.366   2.613
 9152WAT     H227699   4.780   6.462   2.527
 9153WAT      O27700   3.641   8.881   2.111
 9153WAT     H127701   3.595   8.807   2.064
 9153WAT     H227702   3.633   8.965   2.058
 9154WAT      O27703   3.878   3.733   3.821
 9154WAT     H127704   3.830   3.793   3.886
 9154WAT     H227705   3.853   3.758   3.728
 9155WAT      O27706   1.747   5.159   2.377
 9155WAT     H127707   1.691   5.143   2.295
 9155WAT     H227708   1.770   5.072   2.419
 9156WAT      O27709   3.839   6.497   9.113
 9156WAT     H127710   3.917   6.502   9.051
 9156WAT     H227711   3.768   6.438   9.074
 9157WAT      O27712   0.961   6.290   1.987
 9157WAT     H127713   0.959   6.369   1.925
 9157WAT     H227714   0.986   6.208   1.936
 9158WAT      O27715   7.206   8.017   5.085
 9158WAT     H127716   7.301   8.008   5.115
 9158WAT     H227717   7.154   8.069   5.153
 9159WAT      O27718   9.618   2.249   5.209
 9159WAT     H127719   9.582   2.340   5.189
 9159WAT     H227720   9.606   2.228   5.306
 9160WAT      O27721   3.499   2.313   6.787
 9160WAT     H127722   3.594   2.290   6.808
 9160WAT     H227723   3.496   2.390   6.723
 9161WAT      O27724   7.166   9.739   5.534
 9161WAT     H127725   7.162   9.681   5.615
 9161WAT     H227726   7.167   9.835   5.561
 9162WAT      O27727   1.340   3.815   7.810
 9162WAT     H127728   1.349   3.777   7.902
 9162WAT     H227729   1.366   3.912   7.812
 9163WAT      O27730   5.981   2.007   3.215
 9163WAT     H127731   5.897   2.044   3.254
 9163WAT     H227732   6.060   2.054   3.253
 9164WAT      O27733   5.194   9.458   9.451
 9164WAT     H127734   5.158   9.366   9.469
 9164WAT     H227735   5.200   9.509   9.536
 9165WAT      O27736   0.527   2.526   2.524
 9165WAT     H127737   0.572   2.567   2.603
 9165WAT     H227738   0.559   2.571   2.440
 9166WAT      O27739   0.459   2.821   0.763
 9166WAT     H127740   0.397   2.744   0.750
 9166WAT     H227741   0.440   2.891   0.695
 9167WAT      O27742   7.611   4.515   7.853
 9167WAT     H127743   7.624   4.588   7.921
 9167WAT     H227744   7.571   4.435   7.897
 9168WAT      O27745   7.061   1.986   4.158
 9168WAT     H127746   7.093   2.037   4.079
 9168WAT     H227747   7.073   2.041   4.241
 9169WAT      O27748   2.665   5.103   1.560
 9169WAT     H127749   2.746   5.152   1.594
 9169WAT     H227750   2.677   5.005   1.576
 9170WAT      O27751   6.832   0.426   4.105
 9170WAT     H127752   6.843   0.460   4.012
 9170WAT     H227753   6.895   0.349   4.120
 9171WAT      O27754   7.449   1.127   6.449
 9171WAT     H127755   7.468   1.040   6.495
 9171WAT     H227756   7.351   1.137   6.436
 9172WAT      O27757   3.139   0.129   6.032
 9172WAT     H127758   3.075   0.055   6.053
 9172WAT     H227759   3.233   0.095   6.037
 9173WAT      O27760   3.369   0.887   3.567
 9173WAT     H127761   3.324   0.935   3.492
 9173WAT     H227762   3.301   0.836   3.619
 9174WAT      O27763   0.414   0.527   1.300
 9174WAT     H127764   0.405   0.625   1.281
 9174WAT     H227765   0.434   0.479   1.214
 9175WAT      O27766   8.331   5.391   3.425
 9175WAT     H127767   8.236   5.387   3.394
 9175WAT     H227768   8.378   5.306   3.400
 9176WAT      O27769   9.137   9.563   7.260
 9176WAT     H127770   9.136   9.480   7.317
 9176WAT     H227771   9.158   9.538   7.166
 9177WAT      O27772   4.469   9.053   9.175
 9177WAT     H127773   4.539   9.105   9.225
 9177WAT     H227774   4.444   9.103   9.092
 9178WAT      O27775   3.009   6.250   4.806
 9178WAT     H127776   2.943   6.198   4.860
 9178WAT     H227777   3.081   6.285   4.866
 9179WAT      O27778   6.152   0.967   1.395
 9179WAT     H127779   6.146   1.008   1.304
 9179WAT     H227780   6.217   1.020   1.450
 9180WAT      O27781   0.054   7.656   5.395
 9180WAT     H127782  -0.027   7.623   5.444
 9180WAT     H227783   0.069   7.599   5.314
 9181WAT      O27784   5.370   3.761   8.530
 9181WAT     H127785   5.453   3.767   8.585
 9181WAT     H227786   5.386   3.697   8.454
 9182WAT      O27787   6.061   5.813   7.610
 9182WAT     H127788   6.011   5.820   7.524
 9182WAT     H227789   6.158   5.796   7.592
 9183WAT      O27790   1.481   1.499   1.166
 9183WAT     H127791   1.514   1.405   1.160
 9183WAT     H227792   1.529   1.556   1.100
 9184WAT      O27793   0.330   0.897   4.782
 9184WAT     H127794   0.398   0.837   4.826
 9184WAT     H227795   0.276   0.844   4.717
 9185WAT      O27796   4.197   0.839   3.455
 9185WAT     H127797   4.162   0.760   3.506
 9185WAT     H227798   4.279   0.874   3.501
 9186WAT      O27799   3.214   6.782   3.759
 9186WAT     H127800   3.164   6.815   3.839
 9186WAT     H227801   3.166   6.703   3.721
 9187WAT      O27802   1.090   5.090   7.084
 9187WAT     H127803   1.013   5.126   7.137
 9187WAT     H227804   1.086   4.990   7.082
 9188WAT      O27805   1.920   5.788   7.354
 9188WAT     H127806   1.954   5.846   7.428
 9188WAT     H227807   1.992   5.724   7.326
 9189WAT      O27808   4.659   7.508   5.820
 9189WAT     H127809   4.642   7.526   5.917
 9189WAT     H227810   4.753   7.478   5.807
 9190WAT      O27811   7.115   1.051   9.228
 9190WAT     H127812   7.056   0.997   9.289
 9190WAT     H227813   7.086   1.038   9.133
 9191WAT      O27814   2.062   9.185   3.950
 9191WAT     H127815   2.011   9.229   3.876
 9191WAT     H227816   2.077   9.251   4.024
 9192WAT      O27817   4.094   1.012   4.916
 9192WAT     H127818   4.131   1.087   4.971
 9192WAT     H227819   4.025   1.047   4.854
 9193WAT      O27820   6.705   8.076   0.924
 9193WAT     H127821   6.796   8.083   0.882
 9193WAT     H227822   6.636   8.107   0.859
 9194WAT      O27823   7.577   7.129   1.659
 9194WAT     H127824   7.659   7.141   1.715
 9194WAT     H227825   7.515   7.206   1.675
 9195WAT      O27826   8.248   7.916   8.208
 9195WAT     H127827   8.313   7.946   8.138
 9195WAT     H227828   8.173   7.866   8.165
 9196WAT      O27829   8.582   6.223   6.672
 9196WAT     H127830   8.562   6.179   6.759
 9196WAT     H227831   8.680   6.241   6.666
 9197WAT      O27832   6.445   0.432   5.754
 9197WAT     H127833   6.377   0.384   5.810
 9197WAT     H227834   6.517   0.469   5.813
 9198WAT      O27835   8.782   1.500   6.253
 9198WAT     H127836   8.858   1.560   6.276
 9198WAT     H227837   8.749   1.522   6.161
 9199WAT      O27838   8.587   3.842   6.712
 9199WAT     H127839   8.515   3.781   6.745
 9199WAT     H227840   8.676   3.810   6.745
 9200WAT      O27841   5.852   9.050   7.377
 9200WAT     H127842   5.872   8.992   7.456
 9200WAT     H227843   5.808   8.995   7.306
 9201WAT      O27844   2.343   0.725   3.755
 9201WAT     H127845   2.430   0.770   3.734
 9201WAT     H227846   2.327   0.651   3.690
 9202WAT      O27847   8.151   8.959   3.828
 9202WAT     H127848   8.223   9.004   3.880
 9202WAT     H227849   8.188   8.928   3.740
 9203WAT      O27850   4.381   9.470   1.641
 9203WAT     H127851   4.448   9.459   1.568
 9203WAT     H227852   4.359   9.566   1.652
 9204WAT      O27853   3.376   7.682   6.402
 9204WAT     H127854   3.350   7.585   6.398
 9204WAT     H227855   3.387   7.718   6.310
 9205WAT      O27856   9.310   9.405   8.066
 9205WAT     H127857   9.393   9.461   8.068
 9205WAT     H227858   9.336   9.308   8.065
 9206WAT      O27859   9.349   8.988   6.698
 9206WAT     H127860   9.310   8.989   6.605
 9206WAT     H227861   9.410   8.909   6.707
 9207WAT      O27862   3.553   1.056   3.137
 9207WAT     H127863   3.511   1.121   3.200
 9207WAT     H227864   3.587   0.977   3.188
 9208WAT      O27865   6.405   1.405   0.079
 9208WAT     H127866   6.428   1.329   0.140
 9208WAT     H227867   6.307   1.403   0.059
 9209WAT      O27868   1.010   3.319   8.667
 9209WAT     H127869   0.918   3.358   8.653
 9209WAT     H227870   1.002   3.221   8.682
 9210WAT      O27871   9.228   2.230   0.909
 9210WAT     H127872   9.295   2.296   0.876
 9210WAT     H227873   9.274   2.143   0.928
 9211WAT      O27874   4.682   6.134   8.195
 9211WAT     H127875   4.744   6.210   8.211
 9211WAT     H227876   4.602   6.143   8.255
 9212WAT      O27877   4.200   3.313   7.638
 9212WAT     H127878   4.115   3.363   7.620
 9212WAT     H227879   4.180   3.215   7.642
 9213WAT      O27880   5.649   4.447   7.321
 9213WAT     H127881   5.695   4.528   7.285
 9213WAT     H227882   5.700   4.365   7.295
 9214WAT      O27883   2.739   1.900   6.764
 9214WAT     H127884   2.677   1.959   6.713
 9214WAT     H227885   2.696   1.810   6.777
 9215WAT      O27886   2.889   3.110   4.857
 9215WAT     H127887   2.904   3.186   4.794
 9215WAT     H227888   2.973   3.057   4.866
 9216WAT      O27889   1.931   7.299   4.964
 9216WAT     H127890   1.912   7.292   5.062
 9216WAT     H227891   1.890   7.220   4.917
 9217WAT      O27892   1.328   8.602   2.584
 9217WAT     H127893   1.337   8.702   2.591
 9217WAT     H227894   1.391   8.568   2.514
 9218WAT      O27895   3.043   2.229   2.779
 9218WAT     H127896   3.125   2.202   2.829
 9218WAT     H227897   2.962   2.194   2.826
 9219WAT      O27898   3.889   5.633   7.553
 9219WAT     H127899   3.964   5.659   7.614
 9219WAT     H227900   3.847   5.715   7.516
 9220WAT      O27901   9.780   8.996   3.670
 9220WAT     H127902   9.701   9.056   3.684
 9220WAT     H227903   9.841   9.002   3.749
 9221WAT      O27904   4.516   7.476   1.446
 9221WAT     H127905   4.552   7.516   1.531
 9221WAT     H227906   4.437   7.419   1.467
 9222WAT      O27907   1.337   6.186   8.800
 9222WAT     H127908   1.354   6.284   8.809
 9222WAT     H227909   1.292   6.168   8.713
 9223WAT      O27910   4.254   0.216   5.955
 9223WAT     H127911   4.297   0.132   5.987
 9223WAT     H227912   4.161   0.195   5.922
 9224WAT      O27913   2.918   3.608   6.521
 9224WAT     H127914   2.995   3.557   6.560
 9224WAT     H227915   2.872   3.551   6.452
 9225WAT      O27916   8.797   9.704   1.734
 9225WAT     H127917   8.745   9.620   1.749
 9225WAT     H227918   8.888   9.695   1.774
 9226WAT      O27919   1.583   9.128   9.026
 9226WAT     H127920   1.661   9.072   8.998
 9226WAT     H227921   1.519   9.072   9.079
 9227WAT      O27922   9.059   0.006   7.602
 9227WAT     H127923   9.034  -0.047   7.521
 9227WAT     H227924   9.159   0.003   7.614
 9228WAT      O27925   3.560   2.866   9.887
 9228WAT     H127926   3.580   2.929   9.963
 9228WAT     H227927   3.468   2.829   9.898
 9229WAT      O27928   5.310   4.051   8.814
 9229WAT     H127929   5.228   4.016   8.768
 9229WAT     H227930   5.284   4.126   8.875
 9230WAT      O27931   5.382   0.887   0.795
 9230WAT     H127932   5.457   0.821   0.792
 9230WAT     H227933   5.306   0.853   0.739
 9231WAT      O27934   8.495   0.489   7.329
 9231WAT     H127935   8.577   0.470   7.274
 9231WAT     H227936   8.477   0.412   7.390
 9232WAT      O27937   2.079   4.322   3.307
 9232WAT     H127938   2.004   4.277   3.355
 9232WAT     H227939   2.127   4.383   3.369
 9233WAT      O27940   6.946   0.055   0.999
 9233WAT     H127941   7.043   0.069   1.015
 9233WAT     H227942   6.932  -0.029   0.946
 9234WAT      O27943   8.620   2.764   7.442
 9234WAT     H127944   8.637   2.671   7.410
 9234WAT     H227945   8.637   2.768   7.541
 9235WAT      O27946   7.847   1.112   4.825
 9235WAT     H127947   7.878   1.113   4.730
 9235WAT     H227948   7.793   1.194   4.844
 9236WAT      O27949   8.491   5.822   6.997
 9236WAT     H127950   8.454   5.794   6.909
 9236WAT     H227951   8.568   5.763   7.021
 9237WAT      O27952   2.514   5.892   7.711
 9237WAT     H127953   2.515   5.986   7.675
 9237WAT     H227954   2.445   5.885   7.783
 9238WAT      O27955   2.491   3.463   0.300
 9238WAT     H127956   2.571   3.519   0.324
 9238WAT     H227957   2.499   3.374   0.346
 9239WAT      O27958   2.911   7.791   4.671
 9239WAT     H127959   2.976   7.723   4.704
 9239WAT     H227960   2.950   7.839   4.592
 9240WAT      O27961   1.484   1.491   0.708
 9240WAT     H127962   1.556   1.428   0.737
 9240WAT     H227963   1.526   1.574   0.672
 9241WAT      O27964   4.731   1.439   4.887
 9241WAT     H127965   4.801   1.510   4.882
 9241WAT     H227966   4.643   1.476   4.857
 9242WAT      O27967   7.194   4.202   7.303
 9242WAT     H127968   7.140   4.167   7.227
 9242WAT     H227969   7.145   4.188   7.389
 9243WAT      O27970   0.312   9.577   5.628
 9243WAT     H127971   0.274   9.495   5.584
 9243WAT     H227972   0.296   9.573   5.726
 9244WAT      O27973   2.750   3.295   5.529
 9244WAT     H127974   2.736   3.321   5.433
 9244WAT     H227975   2.729   3.199   5.541
 9245WAT      O27976   9.546   8.037   1.830
 9245WAT     H127977   9.508   7.949   1.800
 9245WAT     H227978   9.476   8.108   1.820
 9246WAT      O27979   0.054   7.242   9.430
 9246WAT     H127980   0.013   7.276   9.345
 9246WAT     H227981   0.150   7.268   9.434
 9247WAT      O27982   8.095   3.596   7.478
 9247WAT     H127983   8.038   3.611   7.559
 9247WAT     H227984   8.080   3.671   7.414
 9248WAT      O27985   1.604   7.724   1.174
 9248WAT     H127986   1.676   7.721   1.104
 9248WAT     H227987   1.519   7.686   1.136
 9249WAT      O27988   3.006   5.349   4.409
 9249WAT     H127989   2.947   5.366   4.488
 9249WAT     H227990   2.994   5.255   4.378
 9250WAT      O27991   5.645   3.235   0.800
 9250WAT     H127992   5.718   3.286   0.846
 9250WAT     H227993   5.671   3.139   0.792
 9251WAT      O27994   2.514   0.745   6.451
 9251WAT     H127995   2.506   0.646   6.461
 9251WAT     H227996   2.423   0.785   6.447
 9252WAT      O27997   0.047   6.110   9.131
 9252WAT     H127998   0.060   6.095   9.229
 9252WAT     H227999   0.135   6.100   9.084
 9253WAT      O28000   3.756   2.945   1.061
 9253WAT     H128001   3.827   2.914   0.997
 9253WAT     H228002   3.786   3.029   1.105
 9254WAT      O28003   9.762   9.692   1.212
 9254WAT     H128004   9.771   9.600   1.175
 9254WAT     H228005   9.790   9.693   1.308
 9255WAT      O28006   7.806   2.491   0.019
 9255WAT     H128007   7.818   2.439  -0.066
 9255WAT     H228008   7.711   2.521   0.027
 9256WAT      O28009   0.572   8.729   5.793
 9256WAT     H128010   0.541   8.664   5.861
 9256WAT     H228011   0.662   8.701   5.758
 9257WAT      O28012   4.405   3.865   8.872
 9257WAT     H128013   4.395   3.856   8.772
 9257WAT     H228014   4.315   3.857   8.915
 9258WAT      O28015   6.892   0.035   0.095
 9258WAT     H128016   6.896   0.129   0.060
 9258WAT     H228017   6.870  -0.027   0.019
 9259WAT      O28018   1.830   0.968   6.519
 9259WAT     H128019   1.806   1.061   6.546
 9259WAT     H228020   1.751   0.908   6.533
 9260WAT      O28021   1.148   3.471   8.848
 9260WAT     H128022   1.178   3.412   8.923
 9260WAT     H228023   1.117   3.415   8.771
 9261WAT      O28024   7.632   7.258   1.077
 9261WAT     H128025   7.688   7.281   0.998
 9261WAT     H228026   7.678   7.288   1.160
 9262WAT      O28027   5.174   1.589   2.674
 9262WAT     H128028   5.104   1.583   2.602
 9262WAT     H228029   5.234   1.667   2.656
 9263WAT      O28030   7.495   1.494   2.501
 9263WAT     H128031   7.594   1.507   2.510
 9263WAT     H228032   7.470   1.498   2.404
 9264WAT      O28033   4.969   5.915   4.819
 9264WAT     H128034   5.037   5.849   4.788
 9264WAT     H228035   4.892   5.916   4.755
 9265WAT      O28036   3.334   0.524   6.806
 9265WAT     H128037   3.283   0.453   6.758
 9265WAT     H228038   3.372   0.588   6.739
 9266WAT      O28039   9.101   3.109   7.278
 9266WAT     H128040   9.157   3.086   7.198
 9266WAT     H228041   9.152   3.172   7.337
 9267WAT      O28042   3.151   9.496   4.572
 9267WAT     H128043   3.061   9.463   4.600
 9267WAT     H228044   3.141   9.578   4.516
 9268WAT      O28045   4.906   0.970   8.359
 9268WAT     H128046   4.865   0.894   8.309
 9268WAT     H228047   4.873   1.057   8.322
 9269WAT      O28048   6.251   0.869   2.668
 9269WAT     H128049   6.254   0.965   2.641
 9269WAT     H228050   6.308   0.816   2.605
 9270WAT      O28051   6.100   2.749   0.408
 9270WAT     H128052   6.059   2.822   0.354
 9270WAT     H228053   6.108   2.666   0.353
 9271WAT      O28054   5.572   2.965   1.510
 9271WAT     H128055   5.488   2.964   1.563
 9271WAT     H228056   5.571   2.888   1.445
 9272WAT      O28057   6.287   5.263   7.881
 9272WAT     H128058   6.286   5.204   7.962
 9272WAT     H228059   6.349   5.224   7.812
 9273WAT      O28060   3.181   4.062   0.263
 9273WAT     H128061   3.181   3.962   0.261
 9273WAT     H228062   3.145   4.097   0.176
 9274WAT      O28063   7.610   1.593   2.808
 9274WAT     H128064   7.528   1.649   2.804
 9274WAT     H228065   7.623   1.559   2.902
 9275WAT      O28066   4.036   2.558   9.828
 9275WAT     H128067   4.015   2.612   9.746
 9275WAT     H228068   4.134   2.539   9.832
 9276WAT      O28069   5.080   7.354   5.199
 9276WAT     H128070   5.103   7.345   5.102
 9276WAT     H228071   5.154   7.403   5.246
 9277WAT      O28072   1.545   4.115   6.528
 9277WAT     H128073   1.494   4.201   6.533
 9277WAT     H228074   1.485   4.043   6.494
 9278WAT      O28075   8.189   1.215   0.576
 9278WAT     H128076   8.270   1.238   0.522
 9278WAT     H228077   8.217   1.189   0.668
 9279WAT      O28078   1.842   8.935   3.504
 9279WAT     H128079   1.877   8.907   3.594
 9279WAT     H228080   1.747   8.963   3.512
 9280WAT      O28081   6.370   7.709   1.617
 9280WAT     H128082   6.284   7.697   1.666
 9280WAT     H228083   6.366   7.790   1.559
 9281WAT      O28084   6.984   5.306   7.241
 9281WAT     H128085   6.925   5.299   7.322
 9281WAT     H228086   6.928   5.323   7.160
 9282WAT      O28087   6.619   9.071   6.019
 9282WAT     H128088   6.648   9.166   6.016
 9282WAT     H228089   6.520   9.065   6.001
 9283WAT      O28090   5.899   7.765   2.018
 9283WAT     H128091   5.929   7.825   1.944
 9283WAT     H228092   5.806   7.790   2.046
 9284WAT      O28093   4.742   2.344   0.924
 9284WAT     H128094   4.666   2.399   0.889
 9284WAT     H228095   4.723   2.247   0.909
 9285WAT      O28096   4.261   5.835   0.070
 9285WAT     H128097   4.261   5.931   0.100
 9285WAT     H228098   4.299   5.778   0.142
 9286WAT      O28099   2.106   8.872   9.333
 9286WAT     H128100   2.194   8.913   9.310
 9286WAT     H228101   2.109   8.835   9.425
 9287WAT      O28102   6.863   5.015   1.005
 9287WAT     H128103   6.939   5.001   1.069
 9287WAT     H228104   6.804   5.088   1.039
 9288WAT      O28105   4.081   5.199   0.081
 9288WAT     H128106   4.165   5.148   0.102
 9288WAT     H228107   4.084   5.289   0.125
 9289WAT      O28108   6.920   6.381   2.813
 9289WAT     H128109   6.996   6.429   2.771
 9289WAT     H228110   6.834   6.427   2.789
 9290WAT      O28111   8.189   9.678   1.056
 9290WAT     H128112   8.251   9.676   1.134
 9290WAT     H228113   8.185   9.771   1.019
 9291WAT      O28114   6.047   2.905   6.150
 9291WAT     H128115   6.079   2.811   6.137
 9291WAT     H228116   6.083   2.942   6.235
 9292WAT      O28117   1.458   2.755   9.096
 9292WAT     H128118   1.483   2.716   9.185
 9292WAT     H228119   1.417   2.846   9.110
 9293WAT      O28120   1.409   7.301   7.275
 9293WAT     H128121   1.410   7.360   7.194
 9293WAT     H228122   1.318   7.300   7.315
 9294WAT      O28123   5.461   0.673   9.576
 9294WAT     H128124   5.366   0.674   9.607
 9294WAT     H228125   5.484   0.761   9.535
 9295WAT      O28126   0.022   6.991   6.980
 9295WAT     H128127   0.049   7.077   7.025
 9295WAT     H228128   0.091   6.967   6.912
 9296WAT      O28129   9.346   8.687   3.810
 9296WAT     H128130   9.265   8.644   3.848
 9296WAT     H228131   9.328   8.716   3.716
 9297WAT      O28132   5.653   2.270   5.638
 9297WAT     H128133   5.686   2.193   5.584
 9297WAT     H228134   5.584   2.321   5.586
 9298WAT      O28135   3.087   2.746   3.833
 9298WAT     H128136   3.141   2.804   3.893
 9298WAT     H228137   3.138   2.726   3.750
 9299WAT      O28138   6.260   7.784   2.994
 9299WAT     H128139   6.324   7.719   3.036
 9299WAT     H228140   6.257   7.769   2.895
 9300WAT      O28141   8.131   6.801   6.566
 9300WAT     H128142   8.033   6.797   6.585
 9300WAT     H228143   8.176   6.862   6.632
 9301WAT      O28144   8.693   1.100   8.476
 9301WAT     H128145   8.643   1.185   8.490
 9301WAT     H228146   8.629   1.027   8.454
 9302WAT      O28147   6.374   4.107   1.847
 9302WAT     H128148   6.358   4.131   1.751
 9302WAT     H228149   6.447   4.164   1.884
 9303WAT      O28150   6.091   4.707   1.467
 9303WAT     H128151   6.013   4.697   1.529
 9303WAT     H228152   6.174   4.674   1.512
 9304WAT      O28153   1.667   9.110   4.724
 9304WAT     H128154   1.700   9.016   4.727
 9304WAT     H228155   1.735   9.171   4.766
 9305WAT      O28156   4.629   2.046   7.265
 9305WAT     H128157   4.667   1.966   7.311
 9305WAT     H228158   4.637   2.126   7.325
 9306WAT      O28159   3.162   8.164   9.841
 9306WAT     H128160   3.102   8.244   9.836
 9306WAT     H228161   3.128   8.092   9.781
 9307WAT      O28162   7.531   8.845   7.861
 9307WAT     H128163   7.631   8.835   7.856
 9307WAT     H228164   7.495   8.862   7.769
 9308WAT      O28165   8.902   4.492   8.689
 9308WAT     H128166   8.889   4.454   8.597
 9308WAT     H228167   8.876   4.424   8.757
 9309WAT      O28168   6.024   6.173   0.963
 9309WAT     H128169   5.975   6.129   0.888
 9309WAT     H228170   5.984   6.144   1.050
 9310WAT      O28171   3.424   3.682   6.588
 9310WAT     H128172   3.375   3.637   6.514
 9310WAT     H228173   3.359   3.717   6.655
 9311WAT      O28174   3.870   7.989   9.153
 9311WAT     H128175   3.903   8.055   9.086
 9311WAT     H228176   3.937   7.915   9.164
 9312WAT      O28177   9.519   1.947   0.777
 9312WAT     H128178   9.611   1.960   0.813
 9312WAT     H228179   9.518   1.867   0.716
 9313WAT      O28180   1.829   2.982   1.654
 9313WAT     H128181   1.921   3.022   1.659
 9313WAT     H228182   1.834   2.884   1.672
 9314WAT      O28183   2.212   4.286   2.876
 9314WAT     H128184   2.119   4.310   2.848
 9314WAT     H228185   2.218   4.285   2.976
 9315WAT      O28186   1.214   1.141   6.523
 9315WAT     H128187   1.129   1.190   6.502
 9315WAT     H228188   1.278   1.204   6.567
 9316WAT      O28189   8.001   8.627   9.739
 9316WAT     H128190   7.906   8.596   9.734
 9316WAT     H228191   8.003   8.727   9.744
 9317WAT      O28192   9.837   7.416   2.450
 9317WAT     H128193   9.798   7.494   2.401
 9317WAT     H228194   9.924   7.391   2.408
 9318WAT      O28195   4.025   5.087   0.411
 9318WAT     H128196   4.104   5.062   0.468
 9318WAT     H228197   4.012   5.186   0.414
 9319WAT      O28198   5.096   4.556   8.163
 9319WAT     H128199   5.175   4.617   8.157
 9319WAT     H228200   5.043   4.562   8.078
 9320WAT      O28201   7.229   3.027   9.708
 9320WAT     H128202   7.224   3.087   9.627
 9320WAT     H228203   7.160   2.955   9.700
 9321WAT      O28204   4.882   2.082   2.994
 9321WAT     H128205   4.979   2.102   2.980
 9321WAT     H228206   4.854   2.115   3.084
 9322WAT      O28207   5.032   4.232   2.225
 9322WAT     H128208   5.044   4.152   2.285
 9322WAT     H228209   4.935   4.255   2.219
 9323WAT      O28210   6.447   8.801   0.773
 9323WAT     H128211   6.526   8.740   0.765
 9323WAT     H228212   6.445   8.840   0.865
 9324WAT      O28213   4.779   8.819   8.328
 9324WAT     H128214   4.711   8.886   8.298
 9324WAT     H228215   4.770   8.736   8.274
 9325WAT      O28216   9.379   2.159   3.849
 9325WAT     H128217   9.429   2.072   3.856
 9325WAT     H228218   9.340   2.167   3.758
 9326WAT      O28219   1.579   8.652   7.212
 9326WAT     H128220   1.493   8.602   7.217
 9326WAT     H228221   1.626   8.630   7.127
 9327WAT      O28222   4.831   3.350   9.483
 9327WAT     H128223   4.834   3.258   9.444
 9327WAT     H228224   4.912   3.400   9.456
 9328WAT      O28225   8.589   9.163   8.562
 9328WAT     H128226   8.614   9.104   8.638
 9328WAT     H228227   8.541   9.243   8.597
 9329WAT      O28228   9.145   5.614   2.919
 9329WAT     H128229   9.082   5.690   2.905
 9329WAT     H228230   9.093   5.532   2.943
 9330WAT      O28231   4.215   3.634   5.683
 9330WAT     H128232   4.261   3.570   5.744
 9330WAT     H228233   4.246   3.620   5.589
 9331WAT      O28234   5.906   2.974   8.367
 9331WAT     H128235   5.944   3.063   8.392
 9331WAT     H228236   5.979   2.915   8.331
 9332WAT      O28237   4.817   1.456   4.150
 9332WAT     H128238   4.801   1.456   4.249
 9332WAT     H228239   4.876   1.379   4.126
 9333WAT      O28240   6.471   7.859   5.228
 9333WAT     H128241   6.561   7.822   5.248
 9333WAT     H228242   6.424   7.800   5.163
 9334WAT      O28243   5.279   0.177   9.524
 9334WAT     H128244   5.327   0.108   9.579
 9334WAT     H228245   5.316   0.177   9.431
 9335WAT      O28246   1.266   0.233   2.968
 9335WAT     H128247   1.197   0.300   2.996
 9335WAT     H228248   1.242   0.196   2.879
 9336WAT      O28249   4.209   4.444   6.828
 9336WAT     H128250   4.130   4.473   6.775
 9336WAT     H228251   4.293   4.466   6.779
 9337WAT      O28252   7.559   1.655   0.658
 9337WAT     H128253   7.551   1.607   0.745
 9337WAT     H228254   7.638   1.620   0.608
 9338WAT      O28255   0.763   4.191   5.852
 9338WAT     H128256   0.673   4.187   5.895
 9338WAT     H228257   0.834   4.189   5.922
 9339WAT      O28258   5.027   0.223   6.820
 9339WAT     H128259   4.965   0.285   6.771
 9339WAT     H228260   4.973   0.157   6.872
 9340WAT      O28261   1.244   2.084   1.895
 9340WAT     H128262   1.210   1.990   1.897
 9340WAT     H228263   1.328   2.088   1.840
 9341WAT      O28264   8.630   8.846   8.255
 9341WAT     H128265   8.574   8.779   8.303
 9341WAT     H228266   8.683   8.801   8.184
 9342WAT      O28267   7.865   0.343   8.459
 9342WAT     H128268   7.833   0.251   8.483
 9342WAT     H228269   7.900   0.389   8.540
 9343WAT      O28270   0.194   1.708   0.819
 9343WAT     H128271   0.134   1.757   0.756
 9343WAT     H228272   0.289   1.721   0.791
 9344WAT      O28273   5.115   0.650   4.140
 9344WAT     H128274   5.107   0.711   4.061
 9344WAT     H228275   5.205   0.660   4.181
 9345WAT      O28276   3.754   6.251   7.934
 9345WAT     H128277   3.802   6.191   7.871
 9345WAT     H228278   3.780   6.229   8.028
 9346WAT      O28279   4.158   1.347   3.236
 9346WAT     H128280   4.233   1.373   3.175
 9346WAT     H228281   4.093   1.422   3.242
 9347WAT      O28282   6.767   1.330   3.929
 9347WAT     H128283   6.775   1.235   3.959
 9347WAT     H228284   6.693   1.375   3.981
 9348WAT      O28285   5.600   0.609   4.088
 9348WAT     H128286   5.551   0.694   4.105
 9348WAT     H228287   5.535   0.533   4.083
 9349WAT      O28288   7.102   8.039   2.432
 9349WAT     H128289   7.079   8.077   2.521
 9349WAT     H228290   7.074   7.943   2.429
 9350WAT      O28291   0.891   9.738   1.908
 9350WAT     H128292   0.930   9.658   1.953
 9350WAT     H228293   0.807   9.713   1.861
 9351WAT      O28294   4.181   9.305   3.152
 9351WAT     H128295   4.130   9.239   3.096
 9351WAT     H228296   4.277   9.306   3.123
 9352WAT      O28297   2.591   5.288   0.641
 9352WAT     H128298   2.585   5.261   0.737
 9352WAT     H228299   2.677   5.335   0.624
 9353WAT      O28300   9.193   3.246   3.144
 9353WAT     H128301   9.178   3.303   3.062
 9353WAT     H228302   9.105   3.224   3.186
 9354WAT      O28303   2.131   3.704   2.346
 9354WAT     H128304   2.152   3.649   2.427
 9354WAT     H228305   2.103   3.796   2.374
 9355WAT      O28306   3.474   3.761   7.944
 9355WAT     H128307   3.418   3.726   7.870
 9355WAT     H228308   3.535   3.689   7.977
 9356WAT      O28309   9.171   3.604   0.247
 9356WAT     H128310   9.193   3.666   0.172
 9356WAT     H228311   9.252   3.550   0.269
 9357WAT      O28312   8.587   3.353   2.052
 9357WAT     H128313   8.612   3.431   1.995
 9357WAT     H228314   8.649   3.347   2.130
 9358WAT      O28315   1.425   8.571   3.926
 9358WAT     H128316   1.486   8.571   4.005
 9358WAT     H228317   1.424   8.661   3.883
 9359WAT      O28318   7.822   1.212   1.505
 9359WAT     H128319   7.917   1.211   1.536
 9359WAT     H228320   7.762   1.185   1.581
 9360WAT      O28321   1.448   5.028   6.350
 9360WAT     H128322   1.410   4.949   6.399
 9360WAT     H228323   1.456   5.105   6.412
 9361WAT      O28324   5.854   6.383   7.866
 9361WAT     H128325   5.899   6.300   7.834
 9361WAT     H228326   5.922   6.447   7.901
 9362WAT      O28327   0.079   6.418   8.040
 9362WAT     H128328   0.119   6.478   8.109
 9362WAT     H228329   0.149   6.355   8.006
 9363WAT      O28330   7.981   2.121   2.650
 9363WAT     H128331   7.995   2.180   2.571
 9363WAT     H228332   7.884   2.119   2.673
 9364WAT      O28333   2.743   5.590   4.475
 9364WAT     H128334   2.758   5.681   4.512
 9364WAT     H228335   2.788   5.522   4.532
 9365WAT      O28336   3.009   0.527   3.013
 9365WAT     H128337   3.084   0.578   3.056
 9365WAT     H228338   3.010   0.543   2.915
 9366WAT      O28339   1.148   6.937   3.664
 9366WAT     H128340   1.130   6.981   3.752
 9366WAT     H228341   1.093   6.981   3.593
 9367WAT      O28342   4.208   7.792   3.762
 9367WAT     H128343   4.192   7.883   3.724
 9367WAT     H228344   4.121   7.748   3.780
 9368WAT      O28345   6.597   1.940   6.152
 9368WAT     H128346   6.676   1.982   6.196
 9368WAT     H228347   6.619   1.847   6.124
 9369WAT      O28348   1.023   4.608   8.724
 9369WAT     H128349   1.047   4.695   8.766
 9369WAT     H228350   0.947   4.566   8.775
 9370WAT      O28351   7.943   4.437   3.399
 9370WAT     H128352   7.883   4.412   3.323
 9370WAT     H228353   7.915   4.526   3.436
 9371WAT      O28354   1.742   7.210   1.685
 9371WAT     H128355   1.703   7.145   1.619
 9371WAT     H228356   1.669   7.265   1.725
 9372WAT      O28357   5.559   2.240   7.861
 9372WAT     H128358   5.578   2.149   7.898
 9372WAT     H228359   5.554   2.234   7.761
 9373WAT      O28360   6.957   7.498   5.976
 9373WAT     H128361   7.001   7.537   6.057
 9373WAT     H228362   6.867   7.461   6.001
 9374WAT      O28363   2.946   6.650   6.296
 9374WAT     H128364   2.878   6.620   6.363
 9374WAT     H228365   3.017   6.580   6.287
 9375WAT      O28366   2.399   3.522   8.388
 9375WAT     H128367   2.426   3.560   8.299
 9375WAT     H228368   2.460   3.447   8.412
 9376WAT      O28369   1.046   1.922   6.584
 9376WAT     H128370   1.024   2.012   6.547
 9376WAT     H228371   1.004   1.851   6.528
 9377WAT      O28372   0.880   8.926   9.806
 9377WAT     H128373   0.860   8.874   9.723
 9377WAT     H228374   0.978   8.917   9.828
 9378WAT      O28375   7.111   6.011   1.790
 9378WAT     H128376   7.198   5.963   1.806
 9378WAT     H228377   7.088   6.065   1.870
 9379WAT      O28378   8.467   4.860   9.028
 9379WAT     H128379   8.556   4.890   8.994
 9379WAT     H228380   8.439   4.919   9.104
 9380WAT      O28381   6.146   1.719   6.833
 9380WAT     H128382   6.122   1.805   6.878
 9380WAT     H228383   6.239   1.692   6.859
 9381WAT      O28384   5.356   7.620   5.097
 9381WAT     H128385   5.442   7.623   5.046
 9381WAT     H228386   5.361   7.546   5.165
 9382WAT      O28387   5.146   1.391   5.550
 9382WAT     H128388   5.076   1.462   5.560
 9382WAT     H228389   5.105   1.301   5.561
 9383WAT      O28390   9.816   4.982   8.340
 9383WAT     H128391   9.743   5.047   8.316
 9383WAT     H228392   9.808   4.958   8.437
 9384WAT      O28393   7.980   5.255   3.889
 9384WAT     H128394   7.915   5.178   3.881
 9384WAT     H228395   7.941   5.336   3.845
 9385WAT      O28396   0.827   5.853   3.831
 9385WAT     H128397   0.848   5.905   3.914
 9385WAT     H228398   0.906   5.797   3.807
 9386WAT      O28399   4.530   2.441   6.054
 9386WAT     H128400   4.597   2.419   5.984
 9386WAT     H228401   4.460   2.501   6.015
 9387WAT      O28402   5.764   9.382   4.826
 9387WAT     H128403   5.804   9.426   4.746
 9387WAT     H228404   5.801   9.290   4.836
 9388WAT      O28405   7.148   8.023   7.886
 9388WAT     H128406   7.060   8.005   7.931
 9388WAT     H228407   7.131   8.072   7.800
 9389WAT      O28408   3.934   8.690   8.398
 9389WAT     H128409   3.965   8.669   8.490
 9389WAT     H228410   3.987   8.636   8.332
 9390WAT      O28411   2.743   4.709   6.997
 9390WAT     H128412   2.672   4.641   6.980
 9390WAT     H228413   2.823   4.664   7.036
 9391WAT      O28414   7.474   8.450   4.943
 9391WAT     H128415   7.387   8.403   4.924
 9391WAT     H228416   7.545   8.383   4.962
 9392WAT      O28417   6.214   3.486   3.949
 9392WAT     H128418   6.294   3.546   3.946
 9392WAT     H228419   6.187   3.463   3.855
 9393WAT      O28420   7.566   7.402   1.927
 9393WAT     H128421   7.554   7.480   1.989
 9393WAT     H228422   7.610   7.433   1.843
 9394WAT      O28423   9.027   3.891   7.347
 9394WAT     H128424   8.954   3.836   7.387
 9394WAT     H228425   9.100   3.832   7.313
 9395WAT      O28426   6.273   1.385   5.591
 9395WAT     H128427   6.238   1.448   5.522
 9395WAT     H228428   6.201   1.367   5.658
 9396WAT      O28429   0.094   5.267   9.004
 9396WAT     H128430   0.058   5.186   8.957
 9396WAT     H228431   0.041   5.347   8.976
 9397WAT      O28432   6.618   4.254   6.150
 9397WAT     H128433   6.587   4.298   6.234
 9397WAT     H228434   6.712   4.221   6.163
 9398WAT      O28435   9.479   4.233   6.026
 9398WAT     H128436   9.499   4.290   6.105
 9398WAT     H228437   9.391   4.187   6.038
 9399WAT      O28438   6.260   2.351   4.724
 9399WAT     H128439   6.188   2.411   4.688
 9399WAT     H228440   6.278   2.376   4.820
 9400WAT      O28441   1.165   7.114   6.752
 9400WAT     H128442   1.255   7.072   6.738
 9400WAT     H228443   1.129   7.086   6.840
 9401WAT      O28444   8.355   8.823   1.882
 9401WAT     H128445   8.427   8.893   1.887
 9401WAT     H228446   8.383   8.742   1.934
 9402WAT      O28447   1.612   3.619   3.164
 9402WAT     H128448   1.599   3.667   3.250
 9402WAT     H228449   1.689   3.555   3.172
 9403WAT      O28450   8.651   2.052   5.368
 9403WAT     H128451   8.580   2.064   5.437
 9403WAT     H228452   8.688   1.959   5.374
 9404WAT      O28453   2.481   5.972   3.715
 9404WAT     H128454   2.455   5.884   3.754
 9404WAT     H228455   2.506   5.961   3.619
 9405WAT      O28456   9.001   7.127   3.924
 9405WAT     H128457   8.921   7.095   3.975
 9405WAT     H228458   9.067   7.052   3.915
 9406WAT      O28459   2.235   5.854   9.243
 9406WAT     H128460   2.183   5.845   9.158
 9406WAT     H228461   2.332   5.870   9.221
 9407WAT      O28462   9.074   2.686   3.768
 9407WAT     H128463   9.014   2.663   3.845
 9407WAT     H228464   9.168   2.695   3.800
 9408WAT      O28465   9.879   1.744   3.773
 9408WAT     H128466   9.829   1.662   3.746
 9408WAT     H228467   9.977   1.725   3.773
 9409WAT      O28468   9.070   4.376   3.373
 9409WAT     H128469   9.014   4.437   3.316
 9409WAT     H228470   9.166   4.390   3.353
 9410WAT      O28471   1.943   0.416   6.634
 9410WAT     H128472   1.984   0.408   6.543
 9410WAT     H228473   2.001   0.472   6.693
 9411WAT      O28474   9.814   3.016   9.336
 9411WAT     H128475   9.780   3.096   9.288
 9411WAT     H228476   9.860   3.044   9.421
 9412WAT      O28477   4.537   2.714   8.800
 9412WAT     H128478   4.637   2.713   8.791
 9412WAT     H228479   4.511   2.670   8.886
 9413WAT      O28480   2.794   9.197   5.426
 9413WAT     H128481   2.727   9.132   5.389
 9413WAT     H228482   2.880   9.187   5.376
 9414WAT      O28483   7.240   5.366   1.776
 9414WAT     H128484   7.200   5.330   1.692
 9414WAT     H228485   7.184   5.441   1.811
 9415WAT      O28486   3.965   9.660   3.120
 9415WAT     H128487   4.004   9.607   3.195
 9415WAT     H228488   3.989   9.756   3.132
 9416WAT      O28489   3.444   1.107   6.121
 9416WAT     H128490   3.510   1.032   6.128
 9416WAT     H228491   3.352   1.068   6.114
 9417WAT      O28492   2.757   1.464   8.612
 9417WAT     H128493   2.790   1.438   8.521
 9417WAT     H228494   2.719   1.557   8.608
 9418WAT      O28495   3.132   4.399   7.984
 9418WAT     H128496   3.160   4.418   7.890
 9418WAT     H228497   3.039   4.433   7.998
 9419WAT      O28498   6.506   1.225   3.795
 9419WAT     H128499   6.490   1.139   3.747
 9419WAT     H228500   6.564   1.284   3.738
 9420WAT      O28501   8.257   0.488   3.457
 9420WAT     H128502   8.322   0.561   3.436
 9420WAT     H228503   8.277   0.407   3.402
 9421WAT      O28504   3.608   7.852   3.007
 9421WAT     H128505   3.564   7.867   3.095
 9421WAT     H228506   3.613   7.939   2.956
 9422WAT      O28507   9.861   6.421   9.123
 9422WAT     H128508   9.843   6.333   9.169
 9422WAT     H228509   9.790   6.437   9.055
 9423WAT      O28510   6.918   8.397   7.730
 9423WAT     H128511   6.931   8.412   7.828
 9423WAT     H228512   6.943   8.480   7.680
 9424WAT      O28513   6.554   7.113   2.936
 9424WAT     H128514   6.592   7.026   2.968
 9424WAT     H228515   6.563   7.119   2.837
 9425WAT      O28516   4.011   1.562   2.194
 9425WAT     H128517   3.931   1.621   2.188
 9425WAT     H228518   3.986   1.470   2.164
 9426WAT      O28519   8.455   2.190   7.192
 9426WAT     H128520   8.406   2.102   7.188
 9426WAT     H228521   8.422   2.243   7.270
 9427WAT      O28522   3.411   9.248   6.895
 9427WAT     H128523   3.483   9.180   6.881
 9427WAT     H228524   3.427   9.295   6.982
 9428WAT      O28525   4.444   5.639   7.627
 9428WAT     H128526   4.475   5.672   7.717
 9428WAT     H228527   4.516   5.655   7.559
 9429WAT      O28528   5.698   7.114   0.158
 9429WAT     H128529   5.648   7.031   0.184
 9429WAT     H228530   5.760   7.140   0.232
 9430WAT      O28531   5.459   3.423   6.929
 9430WAT     H128532   5.404   3.352   6.974
 9430WAT     H228533   5.515   3.469   6.997
 9431WAT      O28534   0.121   3.786   8.584
 9431WAT     H128535   0.165   3.869   8.618
 9431WAT     H228536   0.060   3.750   8.654
 9432WAT      O28537   7.605   8.229   6.445
 9432WAT     H128538   7.679   8.290   6.416
 9432WAT     H228539   7.582   8.166   6.371
 9433WAT      O28540   5.297   9.725   3.704
 9433WAT     H128541   5.209   9.724   3.751
 9433WAT     H228542   5.361   9.782   3.756
 9434WAT      O28543   6.572   4.245   9.667
 9434WAT     H128544   6.656   4.218   9.620
 9434WAT     H228545   6.572   4.344   9.679
 9435WAT      O28546   6.167   3.362   3.690
 9435WAT     H128547   6.250   3.308   3.678
 9435WAT     H228548   6.087   3.305   3.675
 9436WAT      O28549   9.517   4.935   7.512
 9436WAT     H128550   9.610   4.913   7.481
 9436WAT     H228551   9.506   5.034   7.517
 9437WAT      O28552   1.932   7.782   0.290
 9437WAT     H128553   1.843   7.736   0.291
 9437WAT     H228554   1.979   7.766   0.376
 9438WAT      O28555   4.071   0.711   0.632
 9438WAT     H128556   3.972   0.722   0.631
 9438WAT     H228557   4.103   0.704   0.726
 9439WAT      O28558   8.116   7.250   1.016
 9439WAT     H128559   8.146   7.157   1.038
 9439WAT     H228560   8.159   7.279   0.930
 9440WAT      O28561   2.316   1.767   9.473
 9440WAT     H128562   2.256   1.846   9.457
 9440WAT     H228563   2.348   1.768   9.567
 9441WAT      O28564   4.045   5.634   8.945
 9441WAT     H128565   4.070   5.614   9.040
 9441WAT     H228566   4.110   5.588   8.884
 9442WAT      O28567   4.603   4.894   4.320
 9442WAT     H128568   4.672   4.840   4.369
 9442WAT     H228569   4.512   4.860   4.342
 9443WAT      O28570   1.493   3.523   2.938
 9443WAT     H128571   1.549   3.522   2.855
 9443WAT     H228572   1.548   3.552   3.016
 9444WAT      O28573   0.461   1.788   5.650
 9444WAT     H128574   0.386   1.804   5.585
 9444WAT     H228575   0.510   1.704   5.625
 9445WAT      O28576   3.397   5.353   6.406
 9445WAT     H128577   3.316   5.301   6.381
 9445WAT     H228578   3.464   5.292   6.448
 9446WAT      O28579   9.221   4.219   2.647
 9446WAT     H128580   9.179   4.134   2.616
 9446WAT     H228581   9.320   4.205   2.658
 9447WAT      O28582   4.229   9.375   8.809
 9447WAT     H128583   4.170   9.300   8.838
 9447WAT     H228584   4.313   9.375   8.864
 9448WAT      O28585   7.467   8.018   8.183
 9448WAT     H128586   7.421   8.081   8.120
 9448WAT     H228587   7.558   7.997   8.149
 9449WAT      O28588   0.893   3.069   3.048
 9449WAT     H128589   0.916   2.985   3.097
 9449WAT     H228590   0.795   3.070   3.027
 9450WAT      O28591   9.719   9.556   5.307
 9450WAT     H128592   9.647   9.496   5.342
 9450WAT     H228593   9.682   9.609   5.229
 9451WAT      O28594   2.554   2.673   0.825
 9451WAT     H128595   2.508   2.593   0.862
 9451WAT     H228596   2.653   2.657   0.823
 9452WAT      O28597   5.607   5.824   4.611
 9452WAT     H128598   5.605   5.765   4.692
 9452WAT     H228599   5.551   5.783   4.538
 9453WAT      O28600   6.564   4.149   1.382
 9453WAT     H128601   6.549   4.219   1.312
 9453WAT     H228602   6.620   4.187   1.456
 9454WAT      O28603   3.274   0.936   3.101
 9454WAT     H128604   3.254   0.982   3.015
 9454WAT     H228605   3.365   0.962   3.133
 9455WAT      O28606   5.273   9.138   7.829
 9455WAT     H128607   5.345   9.207   7.822
 9455WAT     H228608   5.297   9.073   7.901
 9456WAT      O28609   1.048   2.659   6.764
 9456WAT     H128610   0.982   2.658   6.689
 9456WAT     H228611   1.021   2.727   6.831
 9457WAT      O28612   2.516   3.812   2.872
 9457WAT     H128613   2.490   3.844   2.781
 9457WAT     H228614   2.454   3.740   2.902
 9458WAT      O28615   1.736   7.979   5.601
 9458WAT     H128616   1.809   7.979   5.668
 9458WAT     H228617   1.767   7.933   5.518
 9459WAT      O28618   7.213   2.834   4.588
 9459WAT     H128619   7.118   2.813   4.567
 9459WAT     H228620   7.266   2.839   4.503
 9460WAT      O28621   2.265   5.494   6.921
 9460WAT     H128622   2.311   5.579   6.947
 9460WAT     H228623   2.236   5.500   6.826
 9461WAT      O28624   9.876   3.933   8.313
 9461WAT     H128625   9.822   3.869   8.368
 9461WAT     H228626   9.814   3.994   8.264
 9462WAT      O28627   7.706   1.050   2.454
 9462WAT     H128628   7.722   1.130   2.513
 9462WAT     H228629   7.676   0.973   2.510
 9463WAT      O28630   1.799   9.646   5.044
 9463WAT     H128631   1.785   9.716   4.975
 9463WAT     H228632   1.896   9.626   5.053
 9464WAT      O28633   9.836   3.749   9.201
 9464WAT     H128634   9.863   3.701   9.118
 9464WAT     H228635   9.912   3.746   9.266
 9465WAT      O28636   3.321   2.850   9.104
 9465WAT     H128637   3.365   2.760   9.108
 9465WAT     H228638   3.362   2.904   9.032
 9466WAT      O28639   4.571   8.684   0.877
 9466WAT     H128640   4.655   8.701   0.825
 9466WAT     H228641   4.577   8.732   0.965
 9467WAT      O28642   9.679   7.113   3.300
 9467WAT     H128643   9.632   7.169   3.231
 9467WAT     H228644   9.762   7.160   3.330
 9468WAT      O28645   1.424   2.943   0.756
 9468WAT     H128646   1.414   2.950   0.855
 9468WAT     H228647   1.402   3.031   0.713
 9469WAT      O28648   5.439   1.665   7.034
 9469WAT     H128649   5.474   1.725   6.962
 9469WAT     H228650   5.345   1.691   7.057
 9470WAT      O28651   6.070   7.284   4.290
 9470WAT     H128652   6.053   7.187   4.306
 9470WAT     H228653   6.167   7.304   4.303
 9471WAT      O28654   2.092   8.261   9.038
 9471WAT     H128655   2.192   8.255   9.041
 9471WAT     H228656   2.065   8.344   8.989
 9472WAT      O28657   6.244   0.401   7.226
 9472WAT     H128658   6.298   0.327   7.267
 9472WAT     H228659   6.194   0.366   7.147
 9473WAT      O28660   8.793   1.712   4.372
 9473WAT     H128661   8.816   1.616   4.359
 9473WAT     H228662   8.695   1.725   4.354
 9474WAT      O28663   2.540   5.669   1.069
 9474WAT     H128664   2.493   5.639   0.986
 9474WAT     H228665   2.587   5.591   1.112
 9475WAT      O28666   5.905   3.747   3.352
 9475WAT     H128667   5.937   3.715   3.263
 9475WAT     H228668   5.952   3.697   3.424
 9476WAT      O28669   5.649   5.729   7.290
 9476WAT     H128670   5.727   5.693   7.342
 9476WAT     H228671   5.577   5.660   7.286
 9477WAT      O28672   0.070   0.134   7.280
 9477WAT     H128673   0.060   0.223   7.324
 9477WAT     H228674   0.060   0.143   7.181
 9478WAT      O28675   4.997   7.955   1.526
 9478WAT     H128676   4.944   7.881   1.485
 9478WAT     H228677   5.066   7.987   1.461
 9479WAT      O28678   5.820   0.521   3.399
 9479WAT     H128679   5.825   0.422   3.391
 9479WAT     H228680   5.872   0.551   3.480
 9480WAT      O28681   9.684   3.251   8.794
 9480WAT     H128682   9.712   3.162   8.831
 9480WAT     H228683   9.747   3.278   8.722
 9481WAT      O28684   6.210   9.722   7.882
 9481WAT     H128685   6.267   9.658   7.830
 9481WAT     H228686   6.136   9.671   7.927
 9482WAT      O28687   3.461   7.102   2.716
 9482WAT     H128688   3.506   7.191   2.712
 9482WAT     H228689   3.515   7.035   2.664
 9483WAT      O28690   4.179   7.707   3.210
 9483WAT     H128691   4.258   7.660   3.250
 9483WAT     H228692   4.103   7.705   3.275
 9484WAT      O28693   2.874   7.300   4.339
 9484WAT     H128694   2.778   7.323   4.330
 9484WAT     H228695   2.922   7.373   4.387
 9485WAT      O28696   6.097   1.885   4.068
 9485WAT     H128697   6.047   1.947   4.128
 9485WAT     H228698   6.098   1.924   3.975
 9486WAT      O28699   4.361   4.625   4.987
 9486WAT     H128700   4.449   4.616   4.940
 9486WAT     H228701   4.307   4.542   4.971
 9487WAT      O28702   3.276   1.166   6.495
 9487WAT     H128703   3.225   1.144   6.412
 9487WAT     H228704   3.222   1.229   6.551
 9488WAT      O28705   6.272   7.178   5.976
 9488WAT     H128706   6.200   7.129   5.928
 9488WAT     H228707   6.298   7.259   5.923
 9489WAT      O28708   4.616   2.552   0.028
 9489WAT     H128709   4.661   2.604  -0.044
 9489WAT     H228710   4.561   2.614   0.084
 9490WAT      O28711   6.814   4.082   2.787
 9490WAT     H128712   6.815   4.090   2.688
 9490WAT     H228713   6.830   3.987   2.814
 9491WAT      O28714   9.120   9.731   4.221
 9491WAT     H128715   9.186   9.793   4.179
 9491WAT     H228716   9.052   9.784   4.272
 9492WAT      O28717   7.590   7.239   3.298
 9492WAT     H128718   7.592   7.205   3.392
 9492WAT     H228719   7.511   7.299   3.286
 9493WAT      O28720   3.435   9.625   8.702
 9493WAT     H128721   3.482   9.567   8.636
 9493WAT     H228722   3.418   9.715   8.661
 9494WAT      O28723   7.713   8.147   6.954
 9494WAT     H128724   7.708   8.075   6.886
 9494WAT     H228725   7.695   8.235   6.911
 9495WAT      O28726   5.937   8.589   5.385
 9495WAT     H128727   5.962   8.663   5.322
 9495WAT     H228728   5.849   8.610   5.428
 9496WAT      O28729   9.506   0.108   1.338
 9496WAT     H128730   9.554   0.121   1.251
 9496WAT     H228731   9.412   0.140   1.329
 9497WAT      O28732   9.135   4.361   0.366
 9497WAT     H128733   9.199   4.293   0.401
 9497WAT     H228734   9.186   4.438   0.327
 9498WAT      O28735   1.783   7.649   8.990
 9498WAT     H128736   1.737   7.614   9.072
 9498WAT     H228737   1.742   7.737   8.965
 9499WAT      O28738   6.770   5.222   9.370
 9499WAT     H128739   6.699   5.262   9.428
 9499WAT     H228740   6.825   5.158   9.423
 9500WAT      O28741   7.140   3.167   9.258
 9500WAT     H128742   7.083   3.222   9.197
 9500WAT     H228743   7.187   3.096   9.204
 9501WAT      O28744   5.711   2.336   7.180
 9501WAT     H128745   5.662   2.253   7.204
 9501WAT     H228746   5.648   2.414   7.182
 9502WAT      O28747   7.326   2.508   1.421
 9502WAT     H128748   7.239   2.552   1.445
 9502WAT     H228749   7.394   2.578   1.401
 9503WAT      O28750   1.389   9.374   3.082
 9503WAT     H128751   1.411   9.454   3.027
 9503WAT     H228752   1.326   9.315   3.032
 9504WAT      O28753   0.741   3.797   4.268
 9504WAT     H128754   0.724   3.706   4.232
 9504WAT     H228755   0.833   3.827   4.241
 9505WAT      O28756   6.552   3.259   7.786
 9505WAT     H128757   6.486   3.327   7.757
 9505WAT     H228758   6.509   3.195   7.849
 9506WAT      O28759   3.004   1.661   0.731
 9506WAT     H128760   3.063   1.741   0.724
 9506WAT     H228761   2.997   1.632   0.826
 9507WAT      O28762   8.256   7.908   5.713
 9507WAT     H128763   8.183   7.947   5.657
 9507WAT     H228764   8.255   7.809   5.705
 9508WAT      O28765   3.765   2.963   8.087
 9508WAT     H128766   3.711   3.026   8.031
 9508WAT     H228767   3.708   2.884   8.111
 9509WAT      O28768   0.979   5.970   0.188
 9509WAT     H128769   1.026   6.052   0.156
 9509WAT     H228770   1.039   5.919   0.249
 9510WAT      O28771   8.190   8.323   6.486
 9510WAT     H128772   8.196   8.230   6.450
 9510WAT     H228773   8.122   8.326   6.560
 9511WAT      O28774   8.502   5.238   5.406
 9511WAT     H128775   8.581   5.235   5.467
 9511WAT     H228776   8.420   5.260   5.459
 9512WAT      O28777   9.411   2.298   5.564
 9512WAT     H128778   9.463   2.225   5.609
 9512WAT     H228779   9.474   2.370   5.536
 9513WAT      O28780   4.478   4.780   8.092
 9513WAT     H128781   4.499   4.740   8.181
 9513WAT     H228782   4.487   4.880   8.097
 9514WAT      O28783   4.467   7.544   7.472
 9514WAT     H128784   4.453   7.550   7.571
 9514WAT     H228785   4.404   7.476   7.434
 9515WAT      O28786   1.342   3.375   3.309
 9515WAT     H128787   1.286   3.458   3.307
 9515WAT     H228788   1.384   3.361   3.219
 9516WAT      O28789   1.605   3.017   3.915
 9516WAT     H128790   1.538   2.947   3.890
 9516WAT     H228791   1.644   2.995   4.005
 9517WAT      O28792   6.886   9.095   0.863
 9517WAT     H128793   6.971   9.148   0.863
 9517WAT     H228794   6.900   9.011   0.811
 9518WAT      O28795   7.850   0.616   3.644
 9518WAT     H128796   7.805   0.533   3.678
 9518WAT     H228797   7.943   0.594   3.615
 9519WAT      O28798   5.925   1.804   9.622
 9519WAT     H128799   5.857   1.731   9.618
 9519WAT     H228800   5.946   1.836   9.530
 9520WAT      O28801   1.043   1.715   5.178
 9520WAT     H128802   0.945   1.735   5.180
 9520WAT     H228803   1.092   1.779   5.237
 9521WAT      O28804   0.535   4.656   7.260
 9521WAT     H128805   0.490   4.620   7.178
 9521WAT     H228806   0.488   4.739   7.291
 9522WAT      O28807   8.523   1.560   8.515
 9522WAT     H128808   8.455   1.602   8.454
 9522WAT     H228809   8.535   1.619   8.595
 9523WAT      O28810   5.539   7.890   4.691
 9523WAT     H128811   5.468   7.888   4.762
 9523WAT     H228812   5.595   7.808   4.697
 9524WAT      O28813   4.985   3.389   3.600
 9524WAT     H128814   4.923   3.311   3.607
 9524WAT     H228815   4.932   3.473   3.590
 9525WAT      O28816   8.183   3.668   8.128
 9525WAT     H128817   8.205   3.761   8.156
 9525WAT     H228818   8.122   3.626   8.196
 9526WAT      O28819   5.313   9.793   2.729
 9526WAT     H128820   5.233   9.753   2.684
 9526WAT     H228821   5.314   9.892   2.714
 9527WAT      O28822   8.568   7.541   6.358
 9527WAT     H128823   8.523   7.454   6.338
 9527WAT     H228824   8.644   7.525   6.421
 9528WAT      O28825   8.474   7.167   4.825
 9528WAT     H128826   8.432   7.175   4.735
 9528WAT     H228827   8.407   7.128   4.889
 9529WAT      O28828   9.217   9.253   2.502
 9529WAT     H128829   9.253   9.240   2.595
 9529WAT     H228830   9.121   9.279   2.506
 9530WAT      O28831   5.341   5.669   3.510
 9530WAT     H128832   5.400   5.670   3.429
 9530WAT     H228833   5.255   5.623   3.488
 9531WAT      O28834   6.662   1.032   5.136
 9531WAT     H128835   6.729   0.984   5.192
 9531WAT     H228836   6.596   1.079   5.195
 9532WAT      O28837   2.365   9.837   4.897
 9532WAT     H128838   2.376   9.827   4.996
 9532WAT     H228839   2.451   9.867   4.856
 9533WAT      O28840   7.324   8.320   3.022
 9533WAT     H128841   7.395   8.379   3.058
 9533WAT     H228842   7.354   8.225   3.025
 9534WAT      O28843   3.494   1.446   2.749
 9534WAT     H128844   3.477   1.525   2.690
 9534WAT     H228845   3.505   1.364   2.692
 9535WAT      O28846   5.298   9.780   6.461
 9535WAT     H128847   5.216   9.819   6.502
 9535WAT     H228848   5.376   9.794   6.523
 9536WAT      O28849   8.985   5.008   1.596
 9536WAT     H128850   8.919   5.082   1.578
 9536WAT     H228851   9.063   5.017   1.535
 9537WAT      O28852   9.132   6.510   7.721
 9537WAT     H128853   9.041   6.470   7.737
 9537WAT     H228854   9.174   6.534   7.808
 9538WAT      O28855   2.578   5.159   6.715
 9538WAT     H128856   2.586   5.062   6.740
 9538WAT     H228857   2.647   5.212   6.764
 9539WAT      O28858   7.428   8.285   3.948
 9539WAT     H128859   7.402   8.200   3.903
 9539WAT     H228860   7.499   8.331   3.894
 9540WAT      O28861   6.104   0.637   6.236
 9540WAT     H128862   6.018   0.687   6.231
 9540WAT     H228863   6.145   0.631   6.145
 9541WAT      O28864   2.111   8.987   2.408
 9541WAT     H128865   2.020   8.970   2.370
 9541WAT     H228866   2.163   9.042   2.343
 9542WAT      O28867   2.404   3.173   5.718
 9542WAT     H128868   2.409   3.269   5.747
 9542WAT     H228869   2.481   3.153   5.658
 9543WAT      O28870   6.670   2.574   4.966
 9543WAT     H128871   6.591   2.578   4.904
 9543WAT     H228872   6.753   2.599   4.917
 9544WAT      O28873   7.190   3.170   4.186
 9544WAT     H128874   7.128   3.163   4.108
 9544WAT     H228875   7.233   3.082   4.203
 9545WAT      O28876   3.250   2.309   8.124
 9545WAT     H128877   3.253   2.309   8.024
 9545WAT     H228878   3.334   2.269   8.160
 9546WAT      O28879   1.018   4.219   4.667
 9546WAT     H128880   1.031   4.319   4.671
 9546WAT     H228881   0.969   4.189   4.749
 9547WAT      O28882   6.787   5.539   2.020
 9547WAT     H128883   6.866   5.498   2.065
 9547WAT     H228884   6.804   5.546   1.922
 9548WAT      O28885   6.852   5.298   6.154
 9548WAT     H128886   6.843   5.237   6.075
 9548WAT     H228887   6.819   5.389   6.130
 9549WAT      O28888   6.575   7.469   9.138
 9549WAT     H128889   6.506   7.468   9.066
 9549WAT     H228890   6.661   7.504   9.101
 9550WAT      O28891   2.115   4.924   4.447
 9550WAT     H128892   2.047   4.963   4.385
 9550WAT     H228893   2.205   4.961   4.425
 9551WAT      O28894   4.221   6.611   2.560
 9551WAT     H128895   4.272   6.634   2.643
 9551WAT     H228896   4.266   6.654   2.481
 9552WAT      O28897   8.706   5.539   5.760
 9552WAT     H128898   8.747   5.626   5.730
 9552WAT     H228899   8.715   5.531   5.860
 9553WAT      O28900   4.197   1.669   7.236
 9553WAT     H128901   4.227   1.678   7.141
 9553WAT     H228902   4.176   1.573   7.255
 9554WAT      O28903   0.309   9.585   5.922
 9554WAT     H128904   0.394   9.557   5.967
 9554WAT     H228905   0.296   9.684   5.933
 9555WAT      O28906   0.617   3.579   9.169
 9555WAT     H128907   0.631   3.647   9.242
 9555WAT     H228908   0.608   3.488   9.209
 9556WAT      O28909   5.326   8.475   6.225
 9556WAT     H128910   5.287   8.443   6.311
 9556WAT     H228911   5.278   8.558   6.195
 9557WAT      O28912   5.794   6.703   1.356
 9557WAT     H128913   5.830   6.795   1.371
 9557WAT     H228914   5.742   6.701   1.270
 9558WAT      O28915   1.827   1.291   3.292
 9558WAT     H128916   1.821   1.388   3.313
 9558WAT     H228917   1.846   1.240   3.376
 9559WAT      O28918   2.883   5.106   4.339
 9559WAT     H128919   2.857   5.019   4.383
 9559WAT     H228920   2.805   5.140   4.286
 9560WAT      O28921   1.296   3.625   6.323
 9560WAT     H128922   1.305   3.533   6.284
 9560WAT     H228923   1.299   3.692   6.249
 9561WAT      O28924   6.338   1.425   4.399
 9561WAT     H128925   6.416   1.488   4.397
 9561WAT     H228926   6.267   1.458   4.337
 9562WAT      O28927   4.407   4.848   6.023
 9562WAT     H128928   4.440   4.936   6.058
 9562WAT     H228929   4.373   4.792   6.099
 9563WAT      O28930   6.792   4.010   1.888
 9563WAT     H128931   6.807   3.958   1.972
 9563WAT     H228932   6.879   4.045   1.853
 9564WAT      O28933   1.116   4.526   2.060
 9564WAT     H128934   1.095   4.480   1.973
 9564WAT     H228935   1.065   4.483   2.134
 9565WAT      O28936   2.125   1.394   7.363
 9565WAT     H128937   2.207   1.451   7.361
 9565WAT     H228938   2.151   1.299   7.383
 9566WAT      O28939   1.836   9.009   3.962
 9566WAT     H128940   1.915   9.071   3.963
 9566WAT     H228941   1.757   9.057   3.923
 9567WAT      O28942   2.255   5.276   2.481
 9567WAT     H128943   2.156   5.287   2.468
 9567WAT     H228944   2.304   5.315   2.403
 9568WAT      O28945   1.789   5.343   4.450
 9568WAT     H128946   1.831   5.396   4.523
 9568WAT     H228947   1.731   5.403   4.394
 9569WAT      O28948   8.521   3.070   0.963
 9569WAT     H128949   8.458   3.005   1.004
 9569WAT     H228950   8.478   3.113   0.884
 9570WAT      O28951   1.150   6.220   0.675
 9570WAT     H128952   1.074   6.156   0.670
 9570WAT     H228953   1.167   6.245   0.770
 9571WAT      O28954   1.092   9.634   0.684
 9571WAT     H128955   1.153   9.713   0.696
 9571WAT     H228956   1.035   9.623   0.765
 9572WAT      O28957   7.195   2.352   2.488
 9572WAT     H128958   7.125   2.389   2.548
 9572WAT     H228959   7.192   2.252   2.489
 9573WAT      O28960   8.181   4.467   6.150
 9573WAT     H128961   8.089   4.488   6.184
 9573WAT     H228962   8.196   4.513   6.063
 9574WAT      O28963   3.832   7.876   9.456
 9574WAT     H128964   3.821   7.954   9.393
 9574WAT     H228965   3.902   7.815   9.421
 9575WAT      O28966   6.042   8.319   4.376
 9575WAT     H128967   6.043   8.287   4.471
 9575WAT     H228968   5.948   8.343   4.350
 9576WAT      O28969   3.775   1.680   4.155
 9576WAT     H128970   3.705   1.609   4.164
 9576WAT     H228971   3.852   1.644   4.103
 9577WAT      O28972   5.720   5.381   3.270
 9577WAT     H128973   5.690   5.421   3.357
 9577WAT     H228974   5.776   5.300   3.288
 9578WAT      O28975   5.345   0.199   3.564
 9578WAT     H128976   5.404   0.142   3.622
 9578WAT     H228977   5.401   0.260   3.509
 9579WAT      O28978   9.855   9.647   6.173
 9579WAT     H128979   9.897   9.563   6.139
 9579WAT     H228980   9.823   9.702   6.095
 9580WAT      O28981   1.569   9.061   2.569
 9580WAT     H128982   1.648   9.077   2.627
 9580WAT     H228983   1.585   8.981   2.511
 9581WAT      O28984   9.225   4.001   2.055
 9581WAT     H128985   9.218   4.099   2.075
 9581WAT     H228986   9.268   3.955   2.132
 9582WAT      O28987   3.927   6.698   7.364
 9582WAT     H128988   3.843   6.692   7.418
 9582WAT     H228989   3.904   6.710   7.268
 9583WAT      O28990   5.241   8.347   5.645
 9583WAT     H128991   5.317   8.310   5.592
 9583WAT     H228992   5.208   8.277   5.709
 9584WAT      O28993   2.800   5.352   6.581
 9584WAT     H128994   2.886   5.399   6.598
 9584WAT     H228995   2.743   5.355   6.664
 9585WAT      O28996   9.372   3.969   4.179
 9585WAT     H128997   9.307   3.973   4.255
 9585WAT     H228998   9.345   4.034   4.108
 9586WAT      O28999   7.102   9.253   0.861
 9586WAT     H129000   7.195   9.255   0.824
 9586WAT     H229001   7.041   9.305   0.802
 9587WAT      O29002   7.257   4.727   1.663
 9587WAT     H129003   7.332   4.731   1.729
 9587WAT     H229004   7.189   4.797   1.686
 9588WAT      O29005   9.055   8.190   7.250
 9588WAT     H129006   8.962   8.225   7.257
 9588WAT     H229007   9.110   8.251   7.192
 9589WAT      O29008   7.604   7.919   5.821
 9589WAT     H129009   7.548   7.883   5.895
 9589WAT     H229010   7.550   7.924   5.737
 9590WAT      O29011   3.727   1.544   7.324
 9590WAT     H129012   3.808   1.499   7.287
 9590WAT     H229013   3.673   1.477   7.376
 9591WAT      O29014   5.468   5.898   0.073
 9591WAT     H129015   5.459   5.998   0.075
 9591WAT     H229016   5.389   5.858   0.029
 9592WAT      O29017   7.672   8.318   7.611
 9592WAT     H129018   7.670   8.254   7.688
 9592WAT     H229019   7.607   8.289   7.541
 9593WAT      O29020   7.440   2.421   5.245
 9593WAT     H129021   7.511   2.490   5.233
 9593WAT     H229022   7.462   2.340   5.190
 9594WAT      O29023   3.535   8.253   5.007
 9594WAT     H129024   3.460   8.318   4.998
 9594WAT     H229025   3.542   8.198   4.924
 9595WAT      O29026   7.677   7.515   4.704
 9595WAT     H129027   7.717   7.523   4.795
 9595WAT     H229028   7.701   7.426   4.665
 9596WAT      O29029   2.869   0.614   9.582
 9596WAT     H129030   2.884   0.705   9.545
 9596WAT     H229031   2.957   0.568   9.595
 9597WAT      O29032   3.066   7.370   2.630
 9597WAT     H129033   3.075   7.390   2.728
 9597WAT     H229034   3.140   7.307   2.602
 9598WAT      O29035   9.023   6.917   8.345
 9598WAT     H129036   9.016   7.001   8.399
 9598WAT     H229037   9.106   6.868   8.370
 9599WAT      O29038   5.446   5.907   2.454
 9599WAT     H129039   5.354   5.936   2.427
 9599WAT     H229040   5.459   5.923   2.552
 9600WAT      O29041   9.686   9.039   9.001
 9600WAT     H129042   9.598   9.015   9.041
 9600WAT     H229043   9.694   9.139   8.995
 9601WAT      O29044   7.145   3.172   5.343
 9601WAT     H129045   7.083   3.236   5.387
 9601WAT     H229046   7.098   3.085   5.326
 9602WAT      O29047   1.355   1.570   5.921
 9602WAT     H129048   1.356   1.520   6.007
 9602WAT     H229049   1.289   1.528   5.859
 9603WAT      O29050   7.629   0.815   6.916
 9603WAT     H129051   7.541   0.782   6.883
 9603WAT     H229052   7.665   0.884   6.854
 9604WAT      O29053   7.294   8.750   2.799
 9604WAT     H129054   7.264   8.659   2.829
 9604WAT     H229055   7.290   8.755   2.700
 9605WAT      O29056   6.756   4.451   0.445
 9605WAT     H129057   6.756   4.526   0.512
 9605WAT     H229058   6.725   4.486   0.356
 9606WAT      O29059   6.854   2.571   5.317
 9606WAT     H129060   6.938   2.619   5.343
 9606WAT     H229061   6.776   2.612   5.364
 9607WAT      O29062   4.130   3.999   3.621
 9607WAT     H129063   4.091   3.980   3.531
 9607WAT     H229064   4.063   4.049   3.676
 9608WAT      O29065   9.172   1.177   8.472
 9608WAT     H129066   9.164   1.183   8.572
 9608WAT     H229067   9.080   1.173   8.432
 9609WAT      O29068   0.371   5.017   3.006
 9609WAT     H129069   0.392   4.941   2.944
 9609WAT     H229070   0.274   5.040   2.998
 9610WAT      O29071   3.985   0.085   3.100
 9610WAT     H129072   3.898   0.108   3.145
 9610WAT     H229073   3.980   0.109   3.003
 9611WAT      O29074   4.295   5.808   6.953
 9611WAT     H129075   4.289   5.740   6.880
 9611WAT     H229076   4.372   5.785   7.013
 9612WAT      O29077   7.860   2.461   8.495
 9612WAT     H129078   7.952   2.442   8.530
 9612WAT     H229079   7.808   2.376   8.491
 9613WAT      O29080   3.532   5.215   8.961
 9613WAT     H129081   3.600   5.146   8.936
 9613WAT     H229082   3.486   5.248   8.879
 9614WAT      O29083   0.761   7.166   1.433
 9614WAT     H129084   0.674   7.127   1.401
 9614WAT     H229085   0.792   7.236   1.368
 9615WAT      O29086   1.062   2.418   3.888
 9615WAT     H129087   1.011   2.429   3.803
 9615WAT     H229088   1.160   2.429   3.870
 9616WAT      O29089   4.487   6.571   1.477
 9616WAT     H129090   4.445   6.480   1.476
 9616WAT     H229091   4.526   6.588   1.567
 9617WAT      O29092   4.535   4.474   0.361
 9617WAT     H129093   4.603   4.406   0.390
 9617WAT     H229094   4.461   4.428   0.312
 9618WAT      O29095   1.449   1.436   2.499
 9618WAT     H129096   1.383   1.460   2.571
 9618WAT     H229097   1.542   1.449   2.534
 9619WAT      O29098   3.453   6.691   1.236
 9619WAT     H129099   3.355   6.686   1.256
 9619WAT     H229100   3.474   6.636   1.156
 9620WAT      O29101   5.781   5.697   2.153
 9620WAT     H129102   5.862   5.682   2.210
 9620WAT     H229103   5.724   5.614   2.154
 9621WAT      O29104   0.698   8.659   3.422
 9621WAT     H129105   0.751   8.579   3.448
 9621WAT     H229106   0.735   8.697   3.337
 9622WAT      O29107   3.659   0.873   0.040
 9622WAT     H129108   3.597   0.804   0.002
 9622WAT     H229109   3.745   0.872  -0.011
 9623WAT      O29110   8.036   5.044   4.908
 9623WAT     H129111   7.963   4.976   4.914
 9623WAT     H229112   8.115   5.003   4.861
 9624WAT      O29113   1.185   7.537   3.594
 9624WAT     H129114   1.183   7.451   3.645
 9624WAT     H229115   1.181   7.614   3.658
 9625WAT      O29116   3.643   8.516   5.782
 9625WAT     H129117   3.643   8.445   5.711
 9625WAT     H229118   3.676   8.602   5.743
 9626WAT      O29119   4.845   0.362   8.051
 9626WAT     H129120   4.799   0.371   7.962
 9626WAT     H229121   4.909   0.438   8.064
 9627WAT      O29122   1.053   6.677   7.169
 9627WAT     H129123   1.014   6.717   7.086
 9627WAT     H229124   1.137   6.726   7.193
 9628WAT      O29125   1.476   5.434   2.947
 9628WAT     H129126   1.459   5.422   2.849
 9628WAT     H229127   1.574   5.446   2.963
 9629WAT      O29128   4.125   7.012   7.876
 9629WAT     H129129   4.201   6.955   7.847
 9629WAT     H229130   4.129   7.099   7.826
 9630WAT      O29131   4.886   6.541   7.760
 9630WAT     H129132   4.903   6.470   7.692
 9630WAT     H229133   4.964   6.603   7.763
 9631WAT      O29134   3.289   2.266   6.999
 9631WAT     H129135   3.287   2.331   7.075
 9631WAT     H229136   3.370   2.284   6.942
 9632WAT      O29137   0.904   2.297   8.929
 9632WAT     H129138   0.908   2.296   9.028
 9632WAT     H229139   0.843   2.370   8.898
 9633WAT      O29140   2.967   1.068   7.589
 9633WAT     H129141   2.885   1.118   7.560
 9633WAT     H229142   3.010   1.025   7.509
 9634WAT      O29143   8.451   5.045   1.345
 9634WAT     H129144   8.423   4.965   1.398
 9634WAT     H229145   8.497   5.110   1.405
 9635WAT      O29146   0.551   4.445   3.085
 9635WAT     H129147   0.466   4.395   3.101
 9635WAT     H229148   0.584   4.483   3.172
 9636WAT      O29149   7.764   9.604   6.419
 9636WAT     H129150   7.669   9.574   6.430
 9636WAT     H229151   7.812   9.542   6.356
 9637WAT      O29152   3.692   6.191   6.724
 9637WAT     H129153   3.669   6.109   6.671
 9637WAT     H229154   3.666   6.177   6.820
 9638WAT      O29155   9.516   9.153   2.486
 9638WAT     H129156   9.452   9.159   2.409
 9638WAT     H229157   9.550   9.060   2.495
 9639WAT      O29158   5.866   7.693   6.172
 9639WAT     H129159   5.836   7.605   6.209
 9639WAT     H229160   5.914   7.744   6.243
 9640WAT      O29161   0.512   4.104   5.950
 9640WAT     H129162   0.510   4.131   6.046
 9640WAT     H229163   0.503   4.004   5.943
 9641WAT      O29164   5.274   8.294   9.602
 9641WAT     H129165   5.316   8.295   9.511
 9641WAT     H229166   5.237   8.203   9.620
 9642WAT      O29167   9.217   4.805   6.215
 9642WAT     H129168   9.258   4.756   6.137
 9642WAT     H229169   9.235   4.903   6.205
 9643WAT      O29170   4.211   0.433   7.290
 9643WAT     H129171   4.241   0.351   7.339
 9643WAT     H229172   4.227   0.513   7.347
 9644WAT      O29173   1.413   4.702   2.936
 9644WAT     H129174   1.439   4.655   2.852
 9644WAT     H229175   1.328   4.662   2.972
 9645WAT      O29176   7.540   3.023   9.505
 9645WAT     H129177   7.533   2.923   9.515
 9645WAT     H229178   7.449   3.064   9.516
 9646WAT      O29179   7.033   0.660   9.104
 9646WAT     H129180   6.999   0.663   9.010
 9646WAT     H229181   6.960   0.627   9.164
 9647WAT      O29182   1.880   4.218   3.435
 9647WAT     H129183   1.891   4.119   3.423
 9647WAT     H229184   1.783   4.241   3.436
 9648WAT      O29185   7.043   3.790   5.829
 9648WAT     H129186   7.025   3.692   5.823
 9648WAT     H229187   6.971   3.841   5.783
 9649WAT      O29188   4.365   6.509   8.467
 9649WAT     H129189   4.359   6.472   8.559
 9649WAT     H229190   4.446   6.472   8.421
 9650WAT      O29191   8.182   1.799   2.329
 9650WAT     H129192   8.164   1.832   2.422
 9650WAT     H229193   8.168   1.874   2.264
 9651WAT      O29194   9.481   5.933   1.666
 9651WAT     H129195   9.474   5.956   1.763
 9651WAT     H229196   9.390   5.912   1.630
 9652WAT      O29197   0.784   0.402   4.569
 9652WAT     H129198   0.867   0.457   4.560
 9652WAT     H229199   0.756   0.401   4.666
 9653WAT      O29200   4.587   3.976   7.684
 9653WAT     H129201   4.600   3.914   7.606
 9653WAT     H229202   4.559   4.066   7.651
 9654WAT      O29203   5.508   5.970   4.199
 9654WAT     H129204   5.597   5.940   4.235
 9654WAT     H229205   5.497   6.068   4.215
 9655WAT      O29206   2.866   7.599   8.657
 9655WAT     H129207   2.883   7.540   8.736
 9655WAT     H229208   2.886   7.548   8.573
 9656WAT      O29209   7.415   6.955   1.347
 9656WAT     H129210   7.373   6.865   1.354
 9656WAT     H229211   7.461   6.977   1.433
 9657WAT      O29212   0.124   3.017   6.817
 9657WAT     H129213   0.191   2.967   6.873
 9657WAT     H229214   0.062   2.953   6.773
 9658WAT      O29215   2.395   5.901   0.246
 9658WAT     H129216   2.398   5.811   0.289
 9658WAT     H229217   2.425   5.971   0.311
 9659WAT      O29218   0.935   4.767   8.329
 9659WAT     H129219   1.011   4.719   8.373
 9659WAT     H229220   0.967   4.809   8.244
 9660WAT      O29221   0.129   3.223   5.119
 9660WAT     H129222   0.093   3.267   5.037
 9660WAT     H229223   0.152   3.128   5.098
 9661WAT      O29224   2.218   1.125   0.447
 9661WAT     H129225   2.151   1.074   0.393
 9661WAT     H229226   2.310   1.090   0.428
 9662WAT      O29227   9.206   2.288   5.143
 9662WAT     H129228   9.214   2.262   5.239
 9662WAT     H229229   9.191   2.387   5.137
 9663WAT      O29230   1.185   3.709   7.621
 9663WAT     H129231   1.175   3.777   7.548
 9663WAT     H229232   1.234   3.750   7.698
 9664WAT      O29233   1.771   3.098   9.805
 9664WAT     H129234   1.691   3.058   9.850
 9664WAT     H229235   1.795   3.183   9.851
 9665WAT      O29236   0.771   7.477   1.072
 9665WAT     H129237   0.824   7.482   0.988
 9665WAT     H229238   0.702   7.406   1.064
 9666WAT      O29239   8.931   3.134   4.250
 9666WAT     H129240   8.964   3.205   4.187
 9666WAT     H229241   8.934   3.045   4.204
 9667WAT      O29242   0.017   8.893   8.633
 9667WAT     H129243  -0.071   8.868   8.673
 9667WAT     H229244   0.082   8.914   8.707
 9668WAT      O29245   0.963   0.709   4.253
 9668WAT     H129246   0.989   0.617   4.224
 9668WAT     H229247   0.957   0.769   4.173
 9669WAT      O29248   2.391   8.894   1.039
 9669WAT     H129249   2.435   8.960   0.978
 9669WAT     H229250   2.349   8.821   0.984
 9670WAT      O29251   4.183   0.657   0.884
 9670WAT     H129252   4.114   0.644   0.955
 9670WAT     H229253   4.270   0.685   0.926
 9671WAT      O29254   9.596   6.507   3.739
 9671WAT     H129255   9.503   6.495   3.772
 9671WAT     H229256   9.595   6.549   3.648
 9672WAT      O29257   1.524   6.940   7.582
 9672WAT     H129258   1.586   6.862   7.596
 9672WAT     H229259   1.529   6.968   7.486
 9673WAT      O29260   3.921   6.505   2.297
 9673WAT     H129261   3.848   6.510   2.229
 9673WAT     H229262   3.883   6.472   2.383
 9674WAT      O29263   6.465   7.860   7.266
 9674WAT     H129264   6.473   7.914   7.350
 9674WAT     H229265   6.553   7.858   7.219
 9675WAT      O29266   3.133   7.938   2.440
 9675WAT     H129267   3.192   7.881   2.498
 9675WAT     H229268   3.038   7.922   2.464
 9676WAT      O29269   0.537   0.656   0.008
 9676WAT     H129270   0.515   0.677  -0.087
 9676WAT     H229271   0.454   0.623   0.054
 9677WAT      O29272   5.447   9.686   0.685
 9677WAT     H129273   5.421   9.710   0.592
 9677WAT     H229274   5.538   9.722   0.705
 9678WAT      O29275   6.740   2.711   1.056
 9678WAT     H129276   6.772   2.627   1.013
 9678WAT     H229277   6.673   2.688   1.127
 9679WAT      O29278   5.777   6.683   2.582
 9679WAT     H129279   5.820   6.611   2.636
 9679WAT     H229280   5.792   6.771   2.625
 9680WAT      O29281   9.650   2.115   0.353
 9680WAT     H129282   9.651   2.055   0.273
 9680WAT     H229283   9.655   2.211   0.323
 9681WAT      O29284   8.598   1.123   3.245
 9681WAT     H129285   8.688   1.084   3.225
 9681WAT     H229286   8.591   1.214   3.203
 9682WAT      O29287   8.198   0.544   7.940
 9682WAT     H129288   8.286   0.555   7.893
 9682WAT     H229289   8.138   0.486   7.885
 9683WAT      O29290   1.981   3.787   6.709
 9683WAT     H129291   1.989   3.879   6.671
 9683WAT     H229292   2.035   3.723   6.654
 9684WAT      O29293   6.353   7.371   0.051
 9684WAT     H129294   6.424   7.398  -0.013
 9684WAT     H229295   6.342   7.441   0.121
 9685WAT      O29296   8.689   3.453   9.256
 9685WAT     H129297   8.676   3.361   9.218
 9685WAT     H229298   8.606   3.483   9.302
 9686WAT      O29299   1.837   3.299   8.670
 9686WAT     H129300   1.771   3.368   8.641
 9686WAT     H229301   1.882   3.328   8.754
 9687WAT      O29302   2.081   1.245   7.712
 9687WAT     H129303   2.098   1.343   7.712
 9687WAT     H229304   2.128   1.202   7.634
 9688WAT      O29305   4.357   4.843   7.622
 9688WAT     H129306   4.425   4.786   7.667
 9688WAT     H229307   4.366   4.938   7.653
 9689WAT      O29308   0.937   8.139   3.132
 9689WAT     H129309   0.881   8.187   3.064
 9689WAT     H229310   1.031   8.131   3.098
 9690WAT      O29311   1.291   9.370   3.352
 9690WAT     H129312   1.299   9.361   3.253
 9690WAT     H229313   1.382   9.362   3.394
 9691WAT      O29314   6.166   5.949   1.538
 9691WAT     H129315   6.109   5.916   1.613
 9691WAT     H229316   6.165   5.882   1.464
 9692WAT      O29317   4.676   2.208   3.485
 9692WAT     H129318   4.641   2.120   3.452
 9692WAT     H229319   4.696   2.202   3.583
 9693WAT      O29320   5.867   5.886   0.410
 9693WAT     H129321   5.908   5.958   0.465
 9693WAT     H229322   5.788   5.922   0.360
 9694WAT      O29323   8.845   4.690   2.922
 9694WAT     H129324   8.763   4.653   2.966
 9694WAT     H229325   8.925   4.639   2.952
 9695WAT      O29326   8.448   0.987   9.293
 9695WAT     H129327   8.468   1.085   9.293
 9695WAT     H229328   8.528   0.936   9.326
 9696WAT      O29329   4.901   7.264   8.930
 9696WAT     H129330   4.822   7.219   8.970
 9696WAT     H229331   4.872   7.348   8.884
 9697WAT      O29332   3.678   0.297   5.351
 9697WAT     H129333   3.587   0.312   5.313
 9697WAT     H229334   3.747   0.310   5.280
 9698WAT      O29335   8.975   8.663   5.123
 9698WAT     H129336   8.960   8.687   5.219
 9698WAT     H229337   9.072   8.669   5.101
 9699WAT      O29338   4.188   4.069   7.437
 9699WAT     H129339   4.232   4.158   7.451
 9699WAT     H229340   4.247   4.011   7.381
 9700WAT      O29341   5.408   7.906   8.411
 9700WAT     H129342   5.457   7.841   8.353
 9700WAT     H229343   5.382   7.986   8.357
 9701WAT      O29344   9.410   3.898   1.537
 9701WAT     H129345   9.415   3.942   1.627
 9701WAT     H229346   9.493   3.845   1.521
 9702WAT      O29347   2.754   6.574   7.200
 9702WAT     H129348   2.684   6.640   7.229
 9702WAT     H229349   2.844   6.606   7.232
 9703WAT      O29350   9.516   7.249   3.148
 9703WAT     H129351   9.524   7.235   3.049
 9703WAT     H229352   9.421   7.235   3.175
 9704WAT      O29353   9.393   1.420   6.814
 9704WAT     H129354   9.444   1.435   6.730
 9704WAT     H229355   9.298   1.447   6.802
 9705WAT      O29356   5.028   0.561   8.115
 9705WAT     H129357   5.014   0.660   8.116
 9705WAT     H229358   5.101   0.538   8.051
 9706WAT      O29359   7.956   5.253   2.440
 9706WAT     H129360   7.958   5.200   2.355
 9706WAT     H229361   7.863   5.257   2.475
 9707WAT      O29362   7.683   5.911   9.061
 9707WAT     H129363   7.739   5.840   9.104
 9707WAT     H229364   7.713   5.924   8.966
 9708WAT      O29365   1.184   5.191   4.057
 9708WAT     H129366   1.118   5.210   3.984
 9708WAT     H229367   1.138   5.194   4.145
 9709WAT      O29368   4.818   0.230   0.727
 9709WAT     H129369   4.817   0.315   0.781
 9709WAT     H229370   4.890   0.170   0.762
 9710WAT      O29371   7.087   0.960   8.960
 9710WAT     H129372   7.161   0.904   8.996
 9710WAT     H229373   7.091   0.959   8.860
 9711WAT      O29374   5.583   4.442   1.604
 9711WAT     H129375   5.661   4.407   1.552
 9711WAT     H229376   5.596   4.419   1.701
 9712WAT      O29377   7.490   7.425   5.397
 9712WAT     H129378   7.467   7.463   5.307
 9712WAT     H229379   7.559   7.483   5.441
 9713WAT      O29380   0.829   8.865   1.799
 9713WAT     H129381   0.898   8.901   1.736
 9713WAT     H229382   0.845   8.768   1.814
 9714WAT      O29383   3.831   7.598   3.652
 9714WAT     H129384   3.762   7.663   3.685
 9714WAT     H229385   3.790   7.507   3.643
 9715WAT      O29386   3.439   6.746   3.900
 9715WAT     H129387   3.482   6.833   3.923
 9715WAT     H229388   3.385   6.756   3.817
 9716WAT      O29389   4.941   0.888   0.885
 9716WAT     H129390   4.926   0.809   0.826
 9716WAT     H229391   4.988   0.959   0.834
 9717WAT      O29392   3.120   2.450   1.683
 9717WAT     H129393   3.147   2.539   1.648
 9717WAT     H229394   3.132   2.381   1.612
 9718WAT      O29395   0.278   7.056   7.114
 9718WAT     H129396   0.221   6.996   7.170
 9718WAT     H229397   0.360   7.006   7.086
 9719WAT      O29398   7.412   1.305   4.672
 9719WAT     H129399   7.387   1.211   4.695
 9719WAT     H229400   7.406   1.318   4.573
 9720WAT      O29401   8.256   5.168   1.228
 9720WAT     H129402   8.311   5.110   1.288
 9720WAT     H229403   8.316   5.233   1.182
 9721WAT      O29404   2.406   2.859   4.879
 9721WAT     H129405   2.388   2.788   4.811
 9721WAT     H229406   2.415   2.948   4.834
 9722WAT      O29407   1.811   8.668   3.937
 9722WAT     H129408   1.905   8.686   3.908
 9722WAT     H229409   1.805   8.675   4.037
 9723WAT      O29410   1.928   4.525   2.352
 9723WAT     H129411   1.853   4.592   2.348
 9723WAT     H229412   1.892   4.436   2.379
 9724WAT      O29413   7.027   1.001   5.655
 9724WAT     H129414   6.961   0.953   5.712
 9724WAT     H229415   7.108   0.943   5.643
 9725WAT      O29416   8.745   2.570   5.201
 9725WAT     H129417   8.748   2.669   5.215
 9725WAT     H229418   8.670   2.531   5.255
 9726WAT      O29419   5.209   7.018   0.001
 9726WAT     H129420   5.277   6.946  -0.017
 9726WAT     H229421   5.218   7.050   0.095
 9727WAT      O29422   7.858   6.376   0.366
 9727WAT     H129423   7.828   6.431   0.288
 9727WAT     H229424   7.864   6.433   0.447
 9728WAT      O29425   3.540   0.807   2.713
 9728WAT     H129426   3.474   0.788   2.642
 9728WAT     H229427   3.516   0.892   2.760
 9729WAT      O29428   0.493   4.654   4.234
 9729WAT     H129429   0.397   4.683   4.231
 9729WAT     H229430   0.498   4.556   4.253
 9730WAT      O29431   5.917   8.178   0.770
 9730WAT     H129432   5.979   8.134   0.705
 9730WAT     H229433   5.925   8.133   0.859
 9731WAT      O29434   4.192   2.873   7.111
 9731WAT     H129435   4.183   2.776   7.134
 9731WAT     H229436   4.114   2.903   7.055
 9732WAT      O29437   4.988   8.549   0.284
 9732WAT     H129438   4.957   8.639   0.256
 9732WAT     H229439   4.992   8.489   0.205
 9733WAT      O29440   5.119   5.455   3.520
 9733WAT     H129441   5.114   5.426   3.425
 9733WAT     H229442   5.038   5.509   3.543
 9734WAT      O29443   8.946   5.689   7.499
 9734WAT     H129444   8.943   5.702   7.400
 9734WAT     H229445   9.017   5.748   7.538
 9735WAT      O29446   4.854   2.773   1.204
 9735WAT     H129447   4.759   2.785   1.231
 9735WAT     H229448   4.876   2.675   1.201
 9736WAT      O29449   3.265   1.444   9.729
 9736WAT     H129450   3.363   1.433   9.713
 9736WAT     H229451   3.246   1.536   9.761
 9737WAT      O29452   4.725   8.786   9.447
 9737WAT     H129453   4.720   8.823   9.540
 9737WAT     H229454   4.806   8.728   9.438
 9738WAT      O29455   8.823   4.814   0.921
 9738WAT     H129456   8.888   4.816   0.844
 9738WAT     H229457   8.784   4.723   0.930
 9739WAT      O29458   1.255   6.833   2.223
 9739WAT     H129459   1.209   6.785   2.297
 9739WAT     H229460   1.191   6.895   2.179
 9740WAT      O29461   6.713   0.675   9.516
 9740WAT     H129462   6.626   0.714   9.484
 9740WAT     H229463   6.697   0.582   9.549
 9741WAT      O29464   2.586   6.631   1.143
 9741WAT     H129465   2.675   6.623   1.098
 9741WAT     H229466   2.599   6.636   1.242
 9742WAT      O29467   7.021   7.255   4.771
 9742WAT     H129468   7.069   7.308   4.840
 9742WAT     H229469   6.960   7.189   4.816
 9743WAT      O29470   9.139   0.319   6.707
 9743WAT     H129471   9.132   0.415   6.679
 9743WAT     H229472   9.130   0.313   6.807
 9744WAT      O29473   6.479   1.280   4.787
 9744WAT     H129474   6.538   1.211   4.828
 9744WAT     H229475   6.410   1.309   4.853
 9745WAT      O29476   8.255   3.324   1.242
 9745WAT     H129477   8.290   3.237   1.275
 9745WAT     H229478   8.332   3.385   1.221
 9746WAT      O29479   0.524   4.813   9.871
 9746WAT     H129480   0.606   4.760   9.894
 9746WAT     H229481   0.460   4.811   9.948
 9747WAT      O29482   4.683   3.965   3.013
 9747WAT     H129483   4.682   3.865   3.008
 9747WAT     H229484   4.762   4.001   2.964
 9748WAT      O29485   7.611   2.508   9.536
 9748WAT     H129486   7.563   2.575   9.593
 9748WAT     H229487   7.657   2.556   9.461
 9749WAT      O29488   8.564   5.617   7.305
 9749WAT     H129489   8.604   5.526   7.312
 9749WAT     H229490   8.563   5.646   7.210
 9750WAT      O29491   1.964   6.114   5.865
 9750WAT     H129492   1.945   6.189   5.928
 9750WAT     H229493   1.959   6.027   5.914
 9751WAT      O29494   5.732   5.282   8.046
 9751WAT     H129495   5.828   5.295   8.071
 9751WAT     H229496   5.726   5.239   7.956
 9752WAT      O29497   3.355   3.376   7.054
 9752WAT     H129498   3.394   3.391   6.963
 9752WAT     H229499   3.380   3.284   7.086
 9753WAT      O29500   6.915   4.802   9.619
 9753WAT     H129501   6.839   4.739   9.605
 9753WAT     H229502   6.992   4.773   9.562
 9754WAT      O29503   6.485   6.008   6.689
 9754WAT     H129504   6.416   5.946   6.727
 9754WAT     H229505   6.443   6.066   6.619
 9755WAT      O29506   4.591   5.580   5.552
 9755WAT     H129507   4.546   5.603   5.465
 9755WAT     H229508   4.535   5.612   5.628
 9756WAT      O29509   8.247   6.847   1.014
 9756WAT     H129510   8.266   6.795   0.931
 9756WAT     H229511   8.312   6.821   1.085
 9757WAT      O29512   3.151   4.851   2.478
 9757WAT     H129513   3.092   4.848   2.397
 9757WAT     H229514   3.238   4.894   2.454
 9758WAT      O29515   7.785   1.837   5.509
 9758WAT     H129516   7.883   1.819   5.525
 9758WAT     H229517   7.732   1.794   5.582
 9759WAT      O29518   3.442   0.819   5.004
 9759WAT     H129519   3.501   0.875   5.062
 9759WAT     H229520   3.441   0.725   5.037
 9760WAT      O29521   2.465   2.711   8.759
 9760WAT     H129522   2.550   2.674   8.720
 9760WAT     H229523   2.468   2.705   8.859
 9761WAT      O29524   3.068   0.974   2.557
 9761WAT     H129525   3.118   0.973   2.470
 9761WAT     H229526   3.111   1.040   2.619
 9762WAT      O29527   6.284   6.603   1.964
 9762WAT     H129528   6.275   6.531   2.034
 9762WAT     H229529   6.194   6.622   1.925
 9763WAT      O29530   5.083   7.044   6.412
 9763WAT     H129531   5.045   7.022   6.322
 9763WAT     H229532   5.149   7.118   6.403
 9764WAT      O29533   9.499   5.278   6.859
 9764WAT     H129534   9.575   5.214   6.867
 9764WAT     H229535   9.456   5.268   6.769
 9765WAT      O29536   2.741   7.617   2.456
 9765WAT     H129537   2.804   7.539   2.455
 9765WAT     H229538   2.696   7.624   2.367
 9766WAT      O29539   4.289   8.574   1.713
 9766WAT     H129540   4.229   8.495   1.701
 9766WAT     H229541   4.251   8.653   1.665
 9767WAT      O29542   5.903   1.349   9.627
 9767WAT     H129543   5.819   1.301   9.601
 9767WAT     H229544   5.980   1.313   9.574
 9768WAT      O29545   6.199   2.032   9.669
 9768WAT     H129546   6.133   2.090   9.620
 9768WAT     H229547   6.290   2.073   9.663
 9769WAT      O29548   3.236   0.849   4.812
 9769WAT     H129549   3.288   0.844   4.898
 9769WAT     H229550   3.263   0.930   4.761
 9770WAT      O29551   9.470   3.183   2.290
 9770WAT     H129552   9.540   3.122   2.253
 9770WAT     H229553   9.450   3.254   2.223
 9771WAT      O29554   2.203   0.806   8.091
 9771WAT     H129555   2.227   0.758   8.175
 9771WAT     H229556   2.112   0.777   8.061
 9772WAT      O29557   3.801   6.739   7.098
 9772WAT     H129558   3.831   6.802   7.026
 9772WAT     H229559   3.750   6.664   7.057
 9773WAT      O29560   2.074   6.881   5.846
 9773WAT     H129561   2.165   6.840   5.838
 9773WAT     H229562   2.051   6.894   5.942
 9774WAT      O29563   4.749   9.198   0.515
 9774WAT     H129564   4.818   9.270   0.523
 9774WAT     H229565   4.728   9.182   0.418
 9775WAT      O29566   1.677   3.850   7.121
 9775WAT     H129567   1.722   3.823   7.206
 9775WAT     H229568   1.746   3.863   7.049
 9776WAT      O29569   0.094   6.553   1.151
 9776WAT     H129570   0.051   6.477   1.201
 9776WAT     H229571   0.187   6.566   1.185
 9777WAT      O29572   2.842   3.957   9.259
 9777WAT     H129573   2.827   3.910   9.172
 9777WAT     H229574   2.833   4.056   9.246
 9778WAT      O29575   7.677   1.734   3.315
 9778WAT     H129576   7.605   1.794   3.281
 9778WAT     H229577   7.709   1.767   3.404
 9779WAT      O29578   2.651   0.198   9.676
 9779WAT     H129579   2.639   0.244   9.588
 9779WAT     H229580   2.712   0.251   9.734
 9780WAT      O29581   5.808   0.551   4.361
 9780WAT     H129582   5.742   0.499   4.308
 9780WAT     H229583   5.901   0.519   4.340
 9781WAT      O29584   9.828   6.589   4.452
 9781WAT     H129585   9.797   6.512   4.508
 9781WAT     H229586   9.790   6.674   4.489
 9782WAT      O29587   1.477   4.890   0.254
 9782WAT     H129588   1.441   4.969   0.204
 9782WAT     H229589   1.577   4.896   0.257
 9783WAT      O29590   3.162   2.844   1.111
 9783WAT     H129591   3.168   2.748   1.140
 9783WAT     H229592   3.233   2.862   1.043
 9784WAT      O29593   8.526   6.966   9.081
 9784WAT     H129594   8.435   6.960   9.038
 9784WAT     H229595   8.582   7.033   9.032
 9785WAT      O29596   9.113   1.797   5.603
 9785WAT     H129597   9.024   1.752   5.608
 9785WAT     H229598   9.158   1.790   5.692
 9786WAT      O29599   8.798   3.464   1.543
 9786WAT     H129600   8.780   3.545   1.487
 9786WAT     H229601   8.826   3.492   1.634
 9787WAT      O29602   5.253   3.272   2.721
 9787WAT     H129603   5.339   3.282   2.771
 9787WAT     H229604   5.259   3.321   2.634
 9788WAT      O29605   9.134   8.439   7.833
 9788WAT     H129606   9.129   8.451   7.734
 9788WAT     H229607   9.158   8.345   7.855
 9789WAT      O29608   6.257   0.768   4.851
 9789WAT     H129609   6.168   0.737   4.818
 9789WAT     H229610   6.319   0.689   4.858
 9790WAT      O29611   3.915   1.774   1.091
 9790WAT     H129612   4.014   1.770   1.104
 9790WAT     H229613   3.870   1.794   1.178
 9791WAT      O29614   5.811   8.970   4.574
 9791WAT     H129615   5.737   9.013   4.522
 9791WAT     H229616   5.899   9.005   4.541
 9792WAT      O29617   1.403   5.337   2.285
 9792WAT     H129618   1.401   5.351   2.186
 9792WAT     H229619   1.494   5.360   2.320
 9793WAT      O29620   6.699   3.503   3.016
 9793WAT     H129621   6.758   3.483   3.094
 9793WAT     H229622   6.681   3.601   3.012
 9794WAT      O29623   8.201   0.681   4.294
 9794WAT     H129624   8.184   0.772   4.257
 9794WAT     H229625   8.114   0.634   4.308
 9795WAT      O29626   2.162   7.525   2.162
 9795WAT     H129627   2.233   7.557   2.100
 9795WAT     H229628   2.138   7.431   2.140
 9796WAT      O29629   7.242   7.402   6.651
 9796WAT     H129630   7.307   7.345   6.702
 9796WAT     H229631   7.149   7.371   6.671
 9797WAT      O29632   2.467   8.779   8.594
 9797WAT     H129633   2.504   8.687   8.578
 9797WAT     H229634   2.371   8.771   8.623
 9798WAT      O29635   3.752   6.286   1.707
 9798WAT     H129636   3.741   6.190   1.735
 9798WAT     H229637   3.842   6.319   1.736
 9799WAT      O29638   9.046   1.722   9.324
 9799WAT     H129639   9.121   1.662   9.354
 9799WAT     H229640   9.059   1.813   9.363
 9800WAT      O29641   6.788   1.068   2.594
 9800WAT     H129642   6.812   1.124   2.673
 9800WAT     H229643   6.691   1.080   2.573
 9801WAT      O29644   3.790   5.807   0.377
 9801WAT     H129645   3.804   5.903   0.353
 9801WAT     H229646   3.842   5.749   0.313
 9802WAT      O29647   7.727   2.722   9.003
 9802WAT     H129648   7.816   2.714   8.957
 9802WAT     H229649   7.714   2.817   9.034
 9803WAT      O29650   3.376   8.164   4.063
 9803WAT     H129651   3.410   8.256   4.047
 9803WAT     H229652   3.288   8.168   4.110
 9804WAT      O29653   3.669   3.518   3.080
 9804WAT     H129654   3.624   3.481   3.161
 9804WAT     H229655   3.765   3.536   3.100
 9805WAT      O29656   7.847   3.999   4.773
 9805WAT     H129657   7.758   3.998   4.818
 9805WAT     H229658   7.907   3.932   4.816
 9806WAT      O29659   7.171   3.280   6.247
 9806WAT     H129660   7.267   3.305   6.260
 9806WAT     H229661   7.116   3.319   6.321
 9807WAT      O29662   6.439   3.578   8.772
 9807WAT     H129663   6.482   3.618   8.854
 9807WAT     H229664   6.341   3.566   8.788
 9808WAT      O29665   8.344   3.654   1.427
 9808WAT     H129666   8.413   3.725   1.411
 9808WAT     H229667   8.389   3.570   1.456
 9809WAT      O29668   0.646   8.863   2.154
 9809WAT     H129669   0.602   8.944   2.118
 9809WAT     H229670   0.655   8.871   2.253
 9810WAT      O29671   7.202   5.626   0.874
 9810WAT     H129672   7.200   5.532   0.909
 9810WAT     H229673   7.159   5.687   0.940
 9811WAT      O29674   6.029   2.007   5.885
 9811WAT     H129675   6.097   1.941   5.917
 9811WAT     H229676   5.960   2.022   5.957
 9812WAT      O29677   8.387   5.238   6.919
 9812WAT     H129678   8.348   5.156   6.877
 9812WAT     H229679   8.316   5.307   6.928
 9813WAT      O29680   6.463   0.734   6.937
 9813WAT     H129681   6.544   0.781   6.973
 9813WAT     H229682   6.448   0.759   6.842
 9814WAT      O29683   3.329   5.069   8.107
 9814WAT     H129684   3.416   5.031   8.138
 9814WAT     H229685   3.310   5.154   8.156
 9815WAT      O29686   2.520   8.001   2.737
 9815WAT     H129687   2.514   7.984   2.835
 9815WAT     H229688   2.472   7.928   2.688
 9816WAT      O29689   5.115   1.346   4.457
 9816WAT     H129690   5.073   1.433   4.483
 9816WAT     H229691   5.053   1.271   4.480
 9817WAT      O29692   9.509   8.943   0.166
 9817WAT     H129693   9.522   8.989   0.254
 9817WAT     H229694   9.597   8.924   0.124
 9818WAT      O29695   9.043   0.883   7.094
 9818WAT     H129696   9.000   0.910   7.008
 9818WAT     H229697   8.984   0.906   7.171
 9819WAT      O29698   3.801   4.637   0.772
 9819WAT     H129699   3.780   4.687   0.688
 9819WAT     H229700   3.739   4.666   0.844
 9820WAT      O29701   0.470   3.208   1.055
 9820WAT     H129702   0.449   3.111   1.042
 9820WAT     H229703   0.504   3.222   1.148
 9821WAT      O29704   3.191   1.008   6.130
 9821WAT     H129705   3.113   1.041   6.183
 9821WAT     H229706   3.170   1.015   6.032
 9822WAT      O29707   0.967   5.361   6.833
 9822WAT     H129708   0.901   5.318   6.895
 9822WAT     H229709   1.037   5.293   6.808
 9823WAT      O29710   9.301   1.794   3.120
 9823WAT     H129711   9.227   1.750   3.070
 9823WAT     H229712   9.349   1.858   3.059
 9824WAT      O29713   0.716   4.829   2.326
 9824WAT     H129714   0.690   4.869   2.239
 9824WAT     H229715   0.685   4.888   2.401
 9825WAT      O29716   6.476   7.262   3.137
 9825WAT     H129717   6.385   7.235   3.167
 9825WAT     H229718   6.511   7.195   3.071
 9826WAT      O29719   4.648   4.767   1.091
 9826WAT     H129720   4.600   4.834   1.149
 9826WAT     H229721   4.714   4.716   1.147
 9827WAT      O29722   2.824   2.739   3.870
 9827WAT     H129723   2.920   2.760   3.850
 9827WAT     H229724   2.778   2.710   3.786
 9828WAT      O29725   7.895   6.780   0.297
 9828WAT     H129726   7.908   6.864   0.245
 9828WAT     H229727   7.900   6.800   0.395
 9829WAT      O29728   2.676   7.173   3.192
 9829WAT     H129729   2.769   7.138   3.178
 9829WAT     H229730   2.611   7.099   3.177
 9830WAT      O29731   6.487   7.195   8.998
 9830WAT     H129732   6.392   7.199   9.030
 9830WAT     H229733   6.547   7.169   9.074
 9831WAT      O29734   6.616   0.418   5.419
 9831WAT     H129735   6.542   0.459   5.367
 9831WAT     H229736   6.619   0.459   5.511
 9832WAT      O29737   9.635   3.130   5.274
 9832WAT     H129738   9.701   3.205   5.280
 9832WAT     H229739   9.682   3.045   5.252
 9833WAT      O29740   1.858   2.726   2.972
 9833WAT     H129741   1.949   2.721   2.930
 9833WAT     H229742   1.789   2.712   2.902
 9834WAT      O29743   6.416   7.348   7.688
 9834WAT     H129744   6.411   7.332   7.589
 9834WAT     H229745   6.324   7.353   7.725
 9835WAT      O29746   4.785   2.699   0.911
 9835WAT     H129747   4.700   2.660   0.944
 9835WAT     H229748   4.860   2.636   0.929
 9836WAT      O29749   5.590   6.617   6.622
 9836WAT     H129750   5.549   6.668   6.698
 9836WAT     H229751   5.519   6.568   6.572
 9837WAT      O29752   0.298   3.402   0.489
 9837WAT     H129753   0.382   3.407   0.543
 9837WAT     H229754   0.221   3.436   0.544
 9838WAT      O29755   1.774   8.641   6.727
 9838WAT     H129756   1.677   8.635   6.705
 9838WAT     H229757   1.817   8.551   6.714
 9839WAT      O29758   9.681   9.151   5.953
 9839WAT     H129759   9.738   9.128   6.032
 9839WAT     H229760   9.622   9.228   5.975
 9840WAT      O29761   1.600   2.543   6.887
 9840WAT     H129762   1.614   2.523   6.790
 9840WAT     H229763   1.529   2.612   6.897
 9841WAT      O29764   8.520   9.424   7.471
 9841WAT     H129765   8.486   9.418   7.377
 9841WAT     H229766   8.585   9.351   7.488
 9842WAT      O29767   5.967   2.805   3.264
 9842WAT     H129768   5.966   2.884   3.326
 9842WAT     H229769   6.033   2.821   3.191
 9843WAT      O29770   7.412   5.027   2.681
 9843WAT     H129771   7.335   4.968   2.706
 9843WAT     H229772   7.469   4.981   2.613
 9844WAT      O29773   4.550   5.790   4.018
 9844WAT     H129774   4.643   5.818   4.043
 9844WAT     H229775   4.495   5.871   4.000
 9845WAT      O29776   2.549   4.847   6.864
 9845WAT     H129777   2.613   4.790   6.915
 9845WAT     H229778   2.517   4.921   6.923
 9846WAT      O29779   7.404   5.713   9.874
 9846WAT     H129780   7.463   5.738   9.950
 9846WAT     H229781   7.399   5.788   9.808
 9847WAT      O29782   4.470   0.609   3.995
 9847WAT     H129783   4.377   0.581   3.972
 9847WAT     H229784   4.532   0.583   3.921
 9848WAT      O29785   8.859   0.977   4.081
 9848WAT     H129786   8.861   0.908   4.009
 9848WAT     H229787   8.802   0.945   4.157
 9849WAT      O29788   5.671   1.288   7.157
 9849WAT     H129789   5.591   1.309   7.100
 9849WAT     H229790   5.719   1.209   7.119
 9850WAT      O29791   9.216   7.314   7.890
 9850WAT     H129792   9.293   7.296   7.829
 9850WAT     H229793   9.166   7.229   7.907
 9851WAT      O29794   6.339   8.807   2.350
 9851WAT     H129795   6.379   8.790   2.260
 9851WAT     H229796   6.386   8.751   2.418
 9852WAT      O29797   6.985   2.950   5.288
 9852WAT     H129798   6.886   2.965   5.293
 9852WAT     H229799   7.018   2.978   5.198
 9853WAT      O29800   1.147   0.160   3.466
 9853WAT     H129801   1.094   0.098   3.408
 9853WAT     H229802   1.099   0.173   3.553
 9854WAT      O29803   0.788   8.172   4.647
 9854WAT     H129804   0.810   8.114   4.726
 9854WAT     H229805   0.723   8.123   4.588
 9855WAT      O29806   1.219   8.683   5.975
 9855WAT     H129807   1.125   8.656   5.954
 9855WAT     H229808   1.219   8.744   6.054
 9856WAT      O29809   9.068   6.621   1.069
 9856WAT     H129810   9.057   6.694   1.001
 9856WAT     H229811   8.979   6.583   1.093
 9857WAT      O29812   8.416   9.407   7.231
 9857WAT     H129813   8.321   9.385   7.208
 9857WAT     H229814   8.472   9.406   7.148
 9858WAT      O29815   3.369   2.033   0.699
 9858WAT     H129816   3.362   2.044   0.599
 9858WAT     H229817   3.370   1.936   0.722
 9859WAT      O29818   8.942   3.352   1.331
 9859WAT     H129819   8.918   3.385   1.422
 9859WAT     H229820   8.901   3.262   1.315
 9860WAT      O29821   8.668   7.002   8.515
 9860WAT     H129822   8.700   6.999   8.610
 9860WAT     H229823   8.700   6.921   8.467
 9861WAT      O29824   5.861   4.016   6.310
 9861WAT     H129825   5.857   3.989   6.407
 9861WAT     H229826   5.949   4.059   6.291
 9862WAT      O29827   8.326   0.261   3.329
 9862WAT     H129828   8.402   0.294   3.272
 9862WAT     H229829   8.313   0.163   3.314
 9863WAT      O29830   0.162   1.770   9.468
 9863WAT     H129831   0.256   1.743   9.489
 9863WAT     H229832   0.162   1.862   9.428
 9864WAT      O29833   5.148   3.033   4.870
 9864WAT     H129834   5.220   3.075   4.815
 9864WAT     H229835   5.168   2.935   4.882
 9865WAT      O29836   1.457   4.610   9.689
 9865WAT     H129837   1.498   4.631   9.778
 9865WAT     H229838   1.409   4.522   9.694
 9866WAT      O29839   1.030   2.060   8.965
 9866WAT     H129840   0.995   2.150   8.938
 9866WAT     H229841   0.963   1.990   8.940
 9867WAT      O29842   7.050   5.510   5.139
 9867WAT     H129843   7.009   5.593   5.102
 9867WAT     H229844   7.118   5.534   5.208
 9868WAT      O29845   2.902   6.076   0.481
 9868WAT     H129846   2.981   6.103   0.535
 9868WAT     H229847   2.917   6.101   0.385
 9869WAT      O29848   8.176   1.029   3.101
 9869WAT     H129849   8.107   0.980   3.154
 9869WAT     H229850   8.134   1.064   3.017
 9870WAT      O29851   1.118   2.138   8.493
 9870WAT     H129852   1.025   2.125   8.460
 9870WAT     H229853   1.119   2.209   8.563
 9871WAT      O29854   8.922   2.929   0.319
 9871WAT     H129855   8.855   2.916   0.246
 9871WAT     H229856   8.964   2.842   0.342
 9872WAT      O29857   8.754   3.259   6.426
 9872WAT     H129858   8.796   3.218   6.345
 9872WAT     H229859   8.691   3.331   6.398
 9873WAT      O29860   2.316   9.245   1.811
 9873WAT     H129861   2.292   9.188   1.890
 9873WAT     H229862   2.236   9.254   1.751
 9874WAT      O29863   4.393   7.540   5.644
 9874WAT     H129864   4.397   7.554   5.743
 9874WAT     H229865   4.313   7.484   5.621
 9875WAT      O29866   2.445   1.562   3.709
 9875WAT     H129867   2.399   1.650   3.699
 9875WAT     H229868   2.489   1.557   3.799
 9876WAT      O29869   9.512   3.534   2.394
 9876WAT     H129870   9.438   3.593   2.362
 9876WAT     H229871   9.474   3.454   2.440
 9877WAT      O29872   9.769   7.665   1.949
 9877WAT     H129873   9.843   7.686   1.885
 9877WAT     H229874   9.787   7.712   2.036
 9878WAT      O29875   9.516   4.896   3.558
 9878WAT     H129876   9.515   4.870   3.461
 9878WAT     H229877   9.567   4.981   3.570
 9879WAT      O29878   3.185   9.624   6.040
 9879WAT     H129879   3.243   9.700   6.070
 9879WAT     H229880   3.229   9.578   5.962
 9880WAT      O29881   0.875   2.143   1.051
 9880WAT     H129882   0.974   2.130   1.044
 9880WAT     H229883   0.829   2.070   1.001
 9881WAT      O29884   1.032   1.772   1.183
 9881WAT     H129885   1.043   1.691   1.125
 9881WAT     H229886   1.122   1.810   1.204
 9882WAT      O29887   2.178   4.794   2.081
 9882WAT     H129888   2.099   4.849   2.110
 9882WAT     H229889   2.202   4.730   2.154
 9883WAT      O29890   8.402   2.258   9.479
 9883WAT     H129891   8.478   2.321   9.492
 9883WAT     H229892   8.437   2.171   9.444
 9884WAT      O29893   0.406   4.367   5.167
 9884WAT     H129894   0.415   4.411   5.257
 9884WAT     H229895   0.342   4.291   5.174
 9885WAT      O29896   0.164   9.463   3.857
 9885WAT     H129897   0.175   9.491   3.762
 9885WAT     H229898   0.107   9.380   3.861
 9886WAT      O29899   9.515   3.169   6.636
 9886WAT     H129900   9.537   3.198   6.729
 9886WAT     H229901   9.444   3.229   6.598
 9887WAT      O29902   0.274   0.500   5.676
 9887WAT     H129903   0.231   0.410   5.689
 9887WAT     H229904   0.358   0.504   5.730
 9888WAT      O29905   6.548   9.369   5.793
 9888WAT     H129906   6.608   9.345   5.870
 9888WAT     H229907   6.561   9.304   5.719
 9889WAT      O29908   5.589   0.568   5.058
 9889WAT     H129909   5.680   0.581   5.018
 9889WAT     H229910   5.528   0.640   5.025
 9890WAT      O29911   0.207   4.731   2.567
 9890WAT     H129912   0.196   4.671   2.646
 9890WAT     H229913   0.305   4.749   2.553
 9891WAT      O29914   6.659   8.329   0.358
 9891WAT     H129915   6.705   8.398   0.415
 9891WAT     H229916   6.727   8.272   0.313
 9892WAT      O29917   3.224   5.440   0.572
 9892WAT     H129918   3.272   5.353   0.558
 9892WAT     H229919   3.292   5.513   0.582
 9893WAT      O29920   3.410   9.505   0.660
 9893WAT     H129921   3.338   9.493   0.729
 9893WAT     H229922   3.463   9.421   0.652
 9894WAT      O29923   0.268   1.813   1.352
 9894WAT     H129924   0.361   1.827   1.319
 9894WAT     H229925   0.206   1.797   1.275
 9895WAT      O29926   5.752   1.669   7.912
 9895WAT     H129927   5.804   1.584   7.901
 9895WAT     H229928   5.741   1.713   7.823
 9896WAT      O29929   3.163   4.594   2.084
 9896WAT     H129930   3.078   4.562   2.126
 9896WAT     H229931   3.241   4.562   2.138
 9897WAT      O29932   7.011   4.093   7.125
 9897WAT     H129933   7.085   4.109   7.060
 9897WAT     H229934   6.929   4.141   7.095
 9898WAT      O29935   3.979   6.869   0.721
 9898WAT     H129936   3.987   6.781   0.768
 9898WAT     H229937   4.010   6.942   0.782
 9899WAT      O29938   3.880   2.182   3.436
 9899WAT     H129939   3.968   2.142   3.462
 9899WAT     H229940   3.815   2.168   3.511
 9900WAT      O29941   8.432   0.322   6.252
 9900WAT     H129942   8.432   0.421   6.269
 9900WAT     H229943   8.355   0.280   6.301
 9901WAT      O29944   6.090   3.692   4.848
 9901WAT     H129945   6.111   3.767   4.785
 9901WAT     H229946   6.165   3.681   4.914
 9902WAT      O29947   3.348   3.669   9.447
 9902WAT     H129948   3.347   3.757   9.399
 9902WAT     H229949   3.422   3.612   9.411
 9903WAT      O29950   5.808   7.418   8.699
 9903WAT     H129951   5.709   7.424   8.709
 9903WAT     H229952   5.851   7.493   8.750
 9904WAT      O29953   6.783   8.251   4.101
 9904WAT     H129954   6.831   8.325   4.054
 9904WAT     H229955   6.827   8.164   4.080
 9905WAT      O29956   4.592   1.939   6.386
 9905WAT     H129957   4.624   2.024   6.426
 9905WAT     H229958   4.624   1.862   6.441
 9906WAT      O29959   8.464   6.165   5.150
 9906WAT     H129960   8.543   6.227   5.151
 9906WAT     H229961   8.479   6.092   5.084
 9907WAT      O29962   4.345   0.706   7.196
 9907WAT     H129963   4.282   0.674   7.266
 9907WAT     H229964   4.334   0.804   7.184
 9908WAT      O29965   1.993   1.626   8.861
 9908WAT     H129966   1.959   1.540   8.823
 9908WAT     H229967   1.953   1.639   8.952
 9909WAT      O29968   5.714   5.396   9.870
 9909WAT     H129969   5.715   5.406   9.771
 9909WAT     H229970   5.704   5.486   9.913
 9910WAT      O29971   3.566   3.558   5.340
 9910WAT     H129972   3.617   3.472   5.339
 9910WAT     H229973   3.534   3.577   5.432
 9911WAT      O29974   8.647   1.855   6.914
 9911WAT     H129975   8.559   1.858   6.866
 9911WAT     H229976   8.686   1.947   6.917
 9912WAT      O29977   3.611   1.003   9.186
 9912WAT     H129978   3.564   0.931   9.236
 9912WAT     H229979   3.706   1.009   9.217
 9913WAT      O29980   7.469   4.595   7.442
 9913WAT     H129981   7.404   4.537   7.393
 9913WAT     H229982   7.432   4.618   7.532
 9914WAT      O29983   1.481   1.557   8.021
 9914WAT     H129984   1.528   1.474   7.991
 9914WAT     H229985   1.535   1.603   8.091
 9915WAT      O29986   1.270   6.786   7.232
 9915WAT     H129987   1.258   6.885   7.234
 9915WAT     H229988   1.323   6.756   7.311
 9916WAT      O29989   3.887   8.954   1.987
 9916WAT     H129990   3.962   8.937   2.051
 9916WAT     H229991   3.805   8.908   2.020
 9917WAT      O29992   1.902   2.132   4.035
 9917WAT     H129993   1.851   2.048   4.017
 9917WAT     H229994   1.999   2.110   4.047
 9918WAT      O29995   3.396   8.916   4.521
 9918WAT     H129996   3.336   8.921   4.441
 9918WAT     H229997   3.403   9.006   4.563
 9919WAT      O29998   0.667   1.390   3.303
 9919WAT     H129999   0.630   1.479   3.331
 9919WAT     H230000   0.766   1.396   3.295
 9920WAT      O30001   4.456   8.432   8.895
 9920WAT     H130002   4.493   8.431   8.802
 9920WAT     H230003   4.527   8.463   8.959
 9921WAT      O30004   7.051   0.487   7.242
 9921WAT     H130005   7.018   0.396   7.265
 9921WAT     H230006   7.018   0.513   7.151
 9922WAT      O30007   7.856   2.233   8.117
 9922WAT     H130008   7.889   2.324   8.093
 9922WAT     H230009   7.776   2.210   8.062
 9923WAT      O30010   7.642   0.390   4.228
 9923WAT     H130011   7.644   0.331   4.148
 9923WAT     H230012   7.614   0.337   4.308
 9924WAT      O30013   0.412   2.620   4.545
 9924WAT     H130014   0.319   2.630   4.512
 9924WAT     H230015   0.411   2.603   4.644
 9925WAT      O30016   1.000   2.556   2.422
 9925WAT     H130017   1.003   2.486   2.493
 9925WAT     H230018   0.964   2.641   2.459
 9926WAT      O30019   7.349   8.956   7.321
 9926WAT     H130020   7.253   8.964   7.349
 9926WAT     H230021   7.385   9.047   7.299
 9927WAT      O30022   8.605   3.179   8.183
 9927WAT     H130023   8.520   3.129   8.199
 9927WAT     H230024   8.587   3.258   8.123
 9928WAT      O30025   5.078   2.469   6.253
 9928WAT     H130026   5.146   2.463   6.180
 9928WAT     H230027   5.026   2.554   6.242
 9929WAT      O30028   8.601   0.380   3.244
 9929WAT     H130029   8.635   0.314   3.176
 9929WAT     H230030   8.649   0.366   3.330
 9930WAT      O30031   1.374   0.323   6.792
 9930WAT     H130032   1.443   0.367   6.850
 9930WAT     H230033   1.417   0.292   6.708
 9931WAT      O30034   3.224   5.279   9.671
 9931WAT     H130035   3.320   5.285   9.643
 9931WAT     H230036   3.207   5.345   9.745
 9932WAT      O30037   2.185   0.788   7.118
 9932WAT     H130038   2.250   0.815   7.047
 9932WAT     H230039   2.235   0.758   7.200
 9933WAT      O30040   5.832   2.583   9.404
 9933WAT     H130041   5.828   2.669   9.354
 9933WAT     H230042   5.918   2.536   9.383
 9934WAT      O30043   0.871   1.009   1.804
 9934WAT     H130044   0.908   1.095   1.768
 9934WAT     H230045   0.903   0.933   1.747
 9935WAT      O30046   7.455   3.391   7.659
 9935WAT     H130047   7.423   3.458   7.726
 9935WAT     H230048   7.377   3.341   7.622
 9936WAT      O30049   4.929   3.916   0.259
 9936WAT     H130050   4.844   3.903   0.207
 9936WAT     H230051   5.005   3.927   0.195
 9937WAT      O30052   9.560   6.265   9.856
 9937WAT     H130053   9.647   6.301   9.887
 9937WAT     H230054   9.495   6.264   9.933
 9938WAT      O30055   9.646   7.665   3.424
 9938WAT     H130056   9.610   7.650   3.516
 9938WAT     H230057   9.593   7.609   3.359
 9939WAT      O30058   1.123   0.910   2.889
 9939WAT     H130059   1.186   0.856   2.946
 9939WAT     H230060   1.156   0.909   2.794
 9940WAT      O30061   1.419   5.350   9.714
 9940WAT     H130062   1.383   5.292   9.641
 9940WAT     H230063   1.344   5.402   9.755
 9941WAT      O30064   6.877   3.634   7.890
 9941WAT     H130065   6.832   3.689   7.821
 9941WAT     H230066   6.878   3.538   7.862
 9942WAT      O30067   3.679   2.821   8.484
 9942WAT     H130068   3.669   2.919   8.498
 9942WAT     H230069   3.595   2.775   8.516
 9943WAT      O30070   5.939   0.585   4.840
 9943WAT     H130071   5.890   0.652   4.895
 9943WAT     H230072   6.005   0.536   4.897
 9944WAT      O30073   1.288   1.845   1.418
 9944WAT     H130074   1.305   1.871   1.323
 9944WAT     H230075   1.259   1.926   1.470
 9945WAT      O30076   0.332   9.535   6.893
 9945WAT     H130077   0.430   9.554   6.890
 9945WAT     H230078   0.313   9.470   6.967
 9946WAT      O30079   2.810   1.187   3.226
 9946WAT     H130080   2.778   1.176   3.131
 9946WAT     H230081   2.732   1.181   3.288
 9947WAT      O30082   2.338   6.059   5.106
 9947WAT     H130083   2.269   6.082   5.175
 9947WAT     H230084   2.402   6.135   5.096
 9948WAT      O30085   4.177   1.272   9.722
 9948WAT     H130086   4.119   1.296   9.801
 9948WAT     H230087   4.154   1.331   9.645
 9949WAT      O30088   3.081   0.180   5.757
 9949WAT     H130089   3.029   0.263   5.737
 9949WAT     H230090   3.105   0.179   5.854
 9950WAT      O30091   4.708   7.008   1.809
 9950WAT     H130092   4.635   7.070   1.838
 9950WAT     H230093   4.738   7.031   1.717
 9951WAT      O30094   4.710   9.777   2.037
 9951WAT     H130095   4.759   9.837   2.101
 9951WAT     H230096   4.671   9.832   1.963
 9952WAT      O30097   1.979   2.275   4.399
 9952WAT     H130098   1.893   2.269   4.450
 9952WAT     H230099   2.024   2.362   4.420
 9953WAT      O30100   1.434   7.800   1.656
 9953WAT     H130101   1.338   7.776   1.664
 9953WAT     H230102   1.466   7.778   1.563
 9954WAT      O30103   3.093   8.176   7.871
 9954WAT     H130104   2.997   8.154   7.891
 9954WAT     H230105   3.101   8.274   7.852
 9955WAT      O30106   4.812   2.717   8.841
 9955WAT     H130107   4.876   2.664   8.896
 9955WAT     H230108   4.852   2.736   8.752
 9956WAT      O30109   0.242   6.074   3.497
 9956WAT     H130110   0.210   6.095   3.405
 9956WAT     H230111   0.187   6.125   3.564
 9957WAT      O30112   5.920   4.538   6.883
 9957WAT     H130113   5.854   4.493   6.823
 9957WAT     H230114   5.933   4.633   6.854
 9958WAT      O30115   2.273   2.950   6.794
 9958WAT     H130116   2.228   3.005   6.724
 9958WAT     H230117   2.279   3.002   6.879
 9959WAT      O30118   2.341   5.424   0.238
 9959WAT     H130119   2.294   5.397   0.322
 9959WAT     H230120   2.284   5.399   0.159
 9960WAT      O30121   4.934   0.735   5.624
 9960WAT     H130122   4.877   0.805   5.665
 9960WAT     H230123   4.877   0.660   5.592
 9961WAT      O30124   4.939   5.002   8.067
 9961WAT     H130125   5.020   4.944   8.054
 9961WAT     H230126   4.880   4.993   7.987
 9962WAT      O30127   3.750   6.884   2.295
 9962WAT     H130128   3.840   6.869   2.254
 9962WAT     H230129   3.704   6.796   2.307
 9963WAT      O30130   1.774   3.404   1.885
 9963WAT     H130131   1.852   3.418   1.825
 9963WAT     H230132   1.804   3.365   1.972
 9964WAT      O30133   1.320   7.614   0.803
 9964WAT     H130134   1.312   7.517   0.780
 9964WAT     H230135   1.392   7.656   0.748
 9965WAT      O30136   7.068   4.560   9.083
 9965WAT     H130137   7.052   4.476   9.134
 9965WAT     H230138   7.100   4.631   9.145
 9966WAT      O30139   6.327   4.265   4.676
 9966WAT     H130140   6.270   4.337   4.716
 9966WAT     H230141   6.351   4.290   4.582
 9967WAT      O30142   3.454   4.451   0.962
 9967WAT     H130143   3.377   4.449   0.897
 9967WAT     H230144   3.486   4.545   0.972
 9968WAT      O30145   3.920   3.769   4.134
 9968WAT     H130146   3.996   3.737   4.079
 9968WAT     H230147   3.942   3.859   4.171
 9969WAT      O30148   2.787   9.652   0.779
 9969WAT     H130149   2.739   9.575   0.738
 9969WAT     H230150   2.723   9.727   0.793
 9970WAT      O30151   1.064   9.083   1.904
 9970WAT     H130152   1.081   9.061   1.808
 9970WAT     H230153   1.149   9.112   1.948
 9971WAT      O30154   0.516   6.210   9.078
 9971WAT     H130155   0.486   6.284   9.138
 9971WAT     H230156   0.594   6.162   9.120
 9972WAT      O30157   1.875   9.455   7.391
 9972WAT     H130158   1.966   9.462   7.432
 9972WAT     H230159   1.806   9.484   7.457
 9973WAT      O30160   8.401   7.579   3.498
 9973WAT     H130161   8.450   7.503   3.456
 9973WAT     H230162   8.439   7.597   3.589
 9974WAT      O30163   8.764   8.502   0.905
 9974WAT     H130164   8.671   8.466   0.897
 9974WAT     H230165   8.811   8.491   0.817
 9975WAT      O30166   2.539   4.991   2.745
 9975WAT     H130167   2.501   4.999   2.653
 9975WAT     H230168   2.567   5.082   2.777
 9976WAT      O30169   9.670   6.430   3.141
 9976WAT     H130170   9.742   6.364   3.164
 9976WAT     H230171   9.597   6.423   3.208
 9977WAT      O30172   8.169   3.075   0.895
 9977WAT     H130173   8.225   3.002   0.935
 9977WAT     H230174   8.222   3.123   0.826
 9978WAT      O30175   1.746   5.051   8.654
 9978WAT     H130176   1.817   5.023   8.719
 9978WAT     H230177   1.716   4.972   8.601
 9979WAT      O30178   8.759   9.365   4.053
 9979WAT     H130179   8.829   9.306   4.013
 9979WAT     H230180   8.787   9.394   4.145
 9980WAT      O30181   6.722   2.234   5.632
 9980WAT     H130182   6.778   2.253   5.712
 9980WAT     H230183   6.625   2.241   5.658
 9981WAT      O30184   8.472   4.684   0.802
 9981WAT     H130185   8.378   4.681   0.768
 9981WAT     H230186   8.522   4.756   0.754
 9982WAT      O30187   8.533   3.402   6.360
 9982WAT     H130188   8.508   3.349   6.279
 9982WAT     H230189   8.472   3.480   6.369
 9983WAT      O30190   9.085   3.280   3.449
 9983WAT     H130191   9.010   3.332   3.409
 9983WAT     H230192   9.159   3.342   3.476
 9984WAT      O30193   8.960   7.154   1.651
 9984WAT     H130194   9.018   7.175   1.572
 9984WAT     H230195   9.008   7.093   1.713
 9985WAT      O30196   2.110   2.760   5.099
 9985WAT     H130197   2.027   2.707   5.081
 9985WAT     H230198   2.188   2.698   5.108
 9986WAT      O30199   7.703   5.419   6.044
 9986WAT     H130200   7.782   5.476   6.025
 9986WAT     H230201   7.722   5.325   6.015
 9987WAT      O30202   5.780   0.922   3.984
 9987WAT     H130203   5.823   0.992   4.041
 9987WAT     H230204   5.681   0.921   4.001
 9988WAT      O30205   6.231   0.316   1.958
 9988WAT     H130206   6.297   0.242   1.945
 9988WAT     H230207   6.186   0.336   1.872
 9989WAT      O30208   3.568   5.173   6.500
 9989WAT     H130209   3.576   5.183   6.599
 9989WAT     H230210   3.553   5.077   6.478
 9990WAT      O30211   1.381   2.291   4.495
 9990WAT     H130212   1.478   2.314   4.494
 9990WAT     H230213   1.360   2.238   4.577
 9991WAT      O30214   7.420   3.889   6.146
 9991WAT     H130215   7.446   3.815   6.208
 9991WAT     H230216   7.343   3.940   6.184
 9992WAT      O30217   0.003   1.601   4.543
 9992WAT     H130218  -0.075   1.650   4.582
 9992WAT     H230219   0.076   1.595   4.610
 9993WAT      O30220   9.862   1.544   2.672
 9993WAT     H130221   9.843   1.459   2.721
 9993WAT     H230222   9.848   1.530   2.574
 9994WAT      O30223   0.773   5.042   6.774
 9994WAT     H130224   0.776   5.123   6.832
 9994WAT     H230225   0.678   5.021   6.750
 9995WAT      O30226   7.677   7.244   5.032
 9995WAT     H130227   7.742   7.266   4.960
 9995WAT     H230228   7.717   7.269   5.121
 9996WAT      O30229   5.839   4.650   9.820
 9996WAT     H130230   5.859   4.741   9.857
 9996WAT     H230231   5.795   4.659   9.731
 9997WAT      O30232   1.316   5.748   9.181
 9997WAT     H130233   1.220   5.776   9.169
 9997WAT     H230234   1.343   5.761   9.277
 9998WAT      O30235   6.590   1.111   1.803
 9998WAT     H130236   6.679   1.154   1.790
 9998WAT     H230237   6.585   1.027   1.749
 9999WAT      O30238   2.423   6.705   4.103
 9999WAT     H130239   2.393   6.631   4.042
 9999WAT     H230240   2.523   6.700   4.114
10000WAT      O30241   1.010   7.283   3.734
10000WAT     H130242   1.058   7.242   3.811
10000WAT     H230243   0.979   7.211   3.672
10001WAT      O30244   8.490   3.302   4.335
10001WAT     H130245   8.413   3.322   4.275
10001WAT     H230246   8.456   3.263   4.421
10002WAT      O30247   3.056   2.248   5.949
10002WAT     H130248   3.123   2.311   5.990
10002WAT     H230249   2.965   2.269   5.984
10003WAT      O30250   4.125   8.968   5.973
10003WAT     H130251   4.142   9.017   6.059
10003WAT     H230252   4.169   8.879   5.977
10004WAT      O30253   9.473   1.612   3.322
10004WAT     H130254   9.561   1.641   3.359
10004WAT     H230255   9.451   1.666   3.241
10005WAT      O30256   2.494   2.198   9.380
10005WAT     H130257   2.498   2.100   9.359
10005WAT     H230258   2.405   2.234   9.354
10006WAT      O30259   0.621   5.669   2.348
10006WAT     H130260   0.574   5.637   2.266
10006WAT     H230261   0.720   5.666   2.333
10007WAT      O30262   1.690   1.884   7.935
10007WAT     H130263   1.734   1.959   7.885
10007WAT     H230264   1.593   1.882   7.912
10008WAT      O30265   5.423   0.241   2.134
10008WAT     H130266   5.463   0.332   2.137
10008WAT     H230267   5.350   0.239   2.066
10009WAT      O30268   9.040   9.268   1.025
10009WAT     H130269   9.133   9.296   1.050
10009WAT     H230270   9.037   9.247   0.927
10010WAT      O30271   7.120   5.150   1.912
10010WAT     H130272   7.105   5.053   1.890
10010WAT     H230273   7.159   5.196   1.832
10011WAT      O30274   4.083   5.601   1.973
10011WAT     H130275   4.077   5.520   2.032
10011WAT     H230276   4.000   5.607   1.917
10012WAT      O30277   8.342   6.336   1.323
10012WAT     H130278   8.268   6.398   1.349
10012WAT     H230279   8.321   6.294   1.235
10013WAT      O30280   9.736   2.808   7.089
10013WAT     H130281   9.791   2.725   7.103
10013WAT     H230282   9.792   2.888   7.109
10014WAT      O30283   4.712   2.039   5.219
10014WAT     H130284   4.613   2.033   5.232
10014WAT     H230285   4.741   1.973   5.150
10015WAT      O30286   4.223   0.409   5.432
10015WAT     H130287   4.158   0.371   5.498
10015WAT     H230288   4.258   0.335   5.374
10016WAT      O30289   5.178   6.271   1.610
10016WAT     H130290   5.128   6.290   1.525
10016WAT     H230291   5.149   6.335   1.680
10017WAT      O30292   1.280   0.126   4.256
10017WAT     H130293   1.256   0.165   4.168
10017WAT     H230294   1.276   0.026   4.251
10018WAT      O30295   1.738   8.077   1.233
10018WAT     H130296   1.647   8.078   1.192
10018WAT     H230297   1.732   8.047   1.328
10019WAT      O30298   2.645   3.828   6.187
10019WAT     H130299   2.740   3.803   6.209
10019WAT     H230300   2.602   3.753   6.138
10020WAT      O30301   0.812   7.840   3.846
10020WAT     H130302   0.722   7.884   3.848
10020WAT     H230303   0.844   7.834   3.751
10021WAT      O30304   3.762   8.112   7.272
10021WAT     H130305   3.817   8.152   7.199
10021WAT     H230306   3.815   8.110   7.357
10022WAT      O30307   3.211   0.746   5.821
10022WAT     H130308   3.134   0.706   5.871
10022WAT     H230309   3.290   0.685   5.827
10023WAT      O30310   8.958   1.854   6.616
10023WAT     H130311   9.032   1.903   6.663
10023WAT     H230312   8.939   1.769   6.665
10024WAT      O30313   4.168   8.884   8.502
10024WAT     H130314   4.260   8.903   8.535
10024WAT     H230315   4.137   8.796   8.537
10025WAT      O30316   3.329   2.500   8.886
10025WAT     H130317   3.268   2.572   8.852
10025WAT     H230318   3.365   2.527   8.975
10026WAT      O30319   9.050   0.369   7.345
10026WAT     H130320   9.113   0.322   7.282
10026WAT     H230321   9.050   0.467   7.324
10027WAT      O30322   2.206   3.562   0.231
10027WAT     H130323   2.287   3.528   0.279
10027WAT     H230324   2.234   3.622   0.156
10028WAT      O30325   5.406   5.567   9.060
10028WAT     H130326   5.420   5.593   8.965
10028WAT     H230327   5.358   5.479   9.064
10029WAT      O30328   7.799   3.824   6.283
10029WAT     H130329   7.781   3.921   6.301
10029WAT     H230330   7.845   3.784   6.362
10030WAT      O30331   1.144   2.115   0.057
10030WAT     H130332   1.197   2.199   0.043
10030WAT     H230333   1.195   2.037   0.022
10031WAT      O30334   8.101   9.542   3.640
10031WAT     H130335   8.059   9.620   3.593
10031WAT     H230336   8.140   9.479   3.572
10032WAT      O30337   7.271   6.751   5.506
10032WAT     H130338   7.277   6.678   5.575
10032WAT     H230339   7.360   6.795   5.496
10033WAT      O30340   6.913   1.795   9.494
10033WAT     H130341   6.889   1.752   9.407
10033WAT     H230342   6.996   1.753   9.530
10034WAT      O30343   5.088   5.426   3.232
10034WAT     H130344   4.994   5.461   3.233
10034WAT     H230345   5.087   5.330   3.204
10035WAT      O30346   0.580   8.536   4.169
10035WAT     H130347   0.563   8.443   4.204
10035WAT     H230348   0.496   8.589   4.172
10036WAT      O30349   8.785   0.357   5.444
10036WAT     H130350   8.757   0.330   5.536
10036WAT     H230351   8.866   0.306   5.417
10037WAT      O30352   7.329   8.190   1.711
10037WAT     H130353   7.382   8.109   1.736
10037WAT     H230354   7.382   8.272   1.733
10038WAT      O30355   7.226   3.529   9.877
10038WAT     H130356   7.263   3.443   9.911
10038WAT     H230357   7.171   3.573   9.948
10039WAT      O30358   8.191   8.682   5.754
10039WAT     H130359   8.110   8.695   5.811
10039WAT     H230360   8.258   8.753   5.775
10040WAT      O30361   9.745   9.513   8.347
10040WAT     H130362   9.837   9.515   8.386
10040WAT     H230363   9.700   9.600   8.365
10041WAT      O30364   7.990   9.401   4.088
10041WAT     H130365   7.977   9.389   3.989
10041WAT     H230366   8.022   9.315   4.128
10042WAT      O30367   6.813   8.608   4.678
10042WAT     H130368   6.792   8.692   4.628
10042WAT     H230369   6.863   8.630   4.761
10043WAT      O30370   2.382   3.723   0.431
10043WAT     H130371   2.387   3.643   0.491
10043WAT     H230372   2.296   3.771   0.448
10044WAT      O30373   0.546   4.803   9.275
10044WAT     H130374   0.622   4.813   9.211
10044WAT     H230375   0.546   4.881   9.338
10045WAT      O30376   0.988   1.309   6.483
10045WAT     H130377   0.936   1.361   6.415
10045WAT     H230378   1.032   1.373   6.547
10046WAT      O30379   6.699   3.262   6.159
10046WAT     H130380   6.743   3.213   6.084
10046WAT     H230381   6.752   3.248   6.243
10047WAT      O30382   3.264   8.244   8.925
10047WAT     H130383   3.207   8.235   9.007
10047WAT     H230384   3.210   8.218   8.844
10048WAT      O30385   2.961   8.698   3.946
10048WAT     H130386   2.981   8.654   4.033
10048WAT     H230387   2.985   8.637   3.871
10049WAT      O30388   7.296   9.677   3.199
10049WAT     H130389   7.213   9.653   3.151
10049WAT     H230390   7.274   9.699   3.295
10050WAT      O30391   4.476   6.515   7.683
10050WAT     H130392   4.527   6.437   7.719
10050WAT     H230393   4.419   6.486   7.607
10051WAT      O30394   3.923   9.634   1.455
10051WAT     H130395   3.931   9.569   1.379
10051WAT     H230396   3.857   9.598   1.521
10052WAT      O30397   4.505   7.408   2.462
10052WAT     H130398   4.434   7.391   2.394
10052WAT     H230399   4.554   7.492   2.439
10053WAT      O30400   2.831   1.069   9.185
10053WAT     H130401   2.747   1.121   9.168
10053WAT     H230402   2.894   1.082   9.109
10054WAT      O30403   2.714   9.547   2.569
10054WAT     H130404   2.675   9.458   2.543
10054WAT     H230405   2.787   9.533   2.636
10055WAT      O30406   0.323   2.701   7.414
10055WAT     H130407   0.409   2.650   7.418
10055WAT     H230408   0.260   2.666   7.484
10056WAT      O30409   4.275   8.747   2.085
10056WAT     H130410   4.232   8.658   2.072
10056WAT     H230411   4.349   8.759   2.019
10057WAT      O30412   3.674   4.524   6.481
10057WAT     H130413   3.676   4.528   6.381
10057WAT     H230414   3.700   4.613   6.518
10058WAT      O30415   9.725   2.142   5.744
10058WAT     H130416   9.634   2.113   5.775
10058WAT     H230417   9.794   2.104   5.806
10059WAT      O30418   8.038   5.871   9.605
10059WAT     H130419   7.987   5.874   9.690
10059WAT     H230420   8.134   5.852   9.624
10060WAT      O30421   1.562   6.790   7.877
10060WAT     H130422   1.569   6.809   7.975
10060WAT     H230423   1.499   6.855   7.835
10061WAT      O30424   0.404   8.280   3.632
10061WAT     H130425   0.379   8.239   3.720
10061WAT     H230426   0.322   8.314   3.586
10062WAT      O30427   1.264   3.560   8.227
10062WAT     H130428   1.342   3.586   8.170
10062WAT     H230429   1.295   3.538   8.319
10063WAT      O30430   2.729   5.144   8.121
10063WAT     H130431   2.656   5.204   8.088
10063WAT     H230432   2.804   5.200   8.157
10064WAT      O30433   2.138   5.425   1.690
10064WAT     H130434   2.104   5.463   1.604
10064WAT     H230435   2.148   5.499   1.757
10065WAT      O30436   7.141   0.140   5.654
10065WAT     H130437   7.085   0.152   5.736
10065WAT     H230438   7.225   0.193   5.662
10066WAT      O30439   5.867   6.350   7.399
10066WAT     H130440   5.804   6.275   7.380
10066WAT     H230441   5.915   6.376   7.315
10067WAT      O30442   7.115   6.121   5.401
10067WAT     H130443   7.123   6.086   5.494
10067WAT     H230444   7.057   6.202   5.400
10068WAT      O30445   5.923   3.316   6.953
10068WAT     H130446   5.863   3.248   6.911
10068WAT     H230447   5.900   3.328   7.049
10069WAT      O30448   8.477   4.619   6.530
10069WAT     H130449   8.560   4.675   6.526
10069WAT     H230450   8.439   4.609   6.438
10070WAT      O30451   3.546   4.535   4.385
10070WAT     H130452   3.590   4.461   4.335
10070WAT     H230453   3.483   4.584   4.325
10071WAT      O30454   1.473   6.401   9.876
10071WAT     H130455   1.481   6.344   9.958
10071WAT     H230456   1.563   6.439   9.853
10072WAT      O30457   2.479   1.100   7.252
10072WAT     H130458   2.396   1.124   7.301
10072WAT     H230459   2.511   1.010   7.281
10073WAT      O30460   4.291   1.215   2.019
10073WAT     H130461   4.198   1.211   1.984
10073WAT     H230462   4.310   1.132   2.073
10074WAT      O30463   6.318   0.875   0.175
10074WAT     H130464   6.285   0.847   0.266
10074WAT     H230465   6.327   0.794   0.117
10075WAT      O30466   4.185   3.929   1.865
10075WAT     H130467   4.184   3.913   1.964
10075WAT     H230468   4.279   3.924   1.831
10076WAT      O30469   2.174   2.823   9.799
10076WAT     H130470   2.176   2.805   9.897
10076WAT     H230471   2.213   2.913   9.780
10077WAT      O30472   9.712   4.485   8.488
10077WAT     H130473   9.783   4.440   8.542
10077WAT     H230474   9.622   4.467   8.527
10078WAT      O30475   6.814   4.480   2.764
10078WAT     H130476   6.872   4.398   2.758
10078WAT     H230477   6.818   4.530   2.678
10079WAT      O30478   7.455   8.659   1.796
10079WAT     H130479   7.523   8.725   1.764
10079WAT     H230480   7.365   8.684   1.762
10080WAT      O30481   7.026   8.743   6.826
10080WAT     H130482   7.079   8.825   6.804
10080WAT     H230483   6.944   8.740   6.768
10081WAT      O30484   5.508   6.591   8.282
10081WAT     H130485   5.605   6.580   8.304
10081WAT     H230486   5.455   6.598   8.367
10082WAT      O30487   9.680   4.917   6.407
10082WAT     H130488   9.679   4.921   6.307
10082WAT     H230489   9.701   4.824   6.437
10083WAT      O30490   1.273   5.956   1.834
10083WAT     H130491   1.261   6.056   1.836
10083WAT     H230492   1.370   5.935   1.845
10084WAT      O30493   1.062   9.758   8.803
10084WAT     H130494   1.031   9.834   8.746
10084WAT     H230495   0.986   9.726   8.859
10085WAT      O30496   5.340   6.525   5.219
10085WAT     H130497   5.373   6.593   5.285
10085WAT     H230498   5.246   6.500   5.242
10086WAT      O30499   3.186   7.837   6.528
10086WAT     H130500   3.169   7.819   6.625
10086WAT     H230501   3.253   7.772   6.493
10087WAT      O30502   4.598   7.300   9.661
10087WAT     H130503   4.583   7.331   9.755
10087WAT     H230504   4.687   7.333   9.628
10088WAT      O30505   8.088   6.516   7.849
10088WAT     H130506   8.147   6.552   7.777
10088WAT     H230507   8.125   6.430   7.883
10089WAT      O30508   8.660   8.823   7.813
10089WAT     H130509   8.704   8.746   7.767
10089WAT     H230510   8.706   8.908   7.788
10090WAT      O30511   4.328   8.273   5.458
10090WAT     H130512   4.369   8.191   5.500
10090WAT     H230513   4.290   8.331   5.529
10091WAT      O30514   0.183   2.163   0.592
10091WAT     H130515   0.179   2.223   0.511
10091WAT     H230516   0.127   2.082   0.576
10092WAT      O30517   7.902   1.229   5.940
10092WAT     H130518   7.859   1.177   5.866
10092WAT     H230519   7.831   1.261   6.003
10093WAT      O30520   0.924   8.498   3.040
10093WAT     H130521   0.867   8.447   2.975
10093WAT     H230522   0.977   8.566   2.991
10094WAT      O30523   4.954   7.984   7.952
10094WAT     H130524   4.951   7.932   7.867
10094WAT     H230525   4.947   8.082   7.932
10095WAT      O30526   0.465   0.671   3.284
10095WAT     H130527   0.553   0.718   3.290
10095WAT     H230528   0.465   0.592   3.345
10096WAT      O30529   3.234   3.306   2.122
10096WAT     H130530   3.215   3.242   2.196
10096WAT     H230531   3.277   3.388   2.158
10097WAT      O30532   5.966   4.224   2.340
10097WAT     H130533   5.903   4.151   2.312
10097WAT     H230534   6.048   4.183   2.379
10098WAT      O30535   0.944   0.086   8.015
10098WAT     H130536   0.918   0.174   7.975
10098WAT     H230537   0.895   0.012   7.968
10099WAT      O30538   6.010   0.235   2.153
10099WAT     H130539   6.082   0.253   2.086
10099WAT     H230540   6.026   0.289   2.236
10100WAT      O30541   6.995   4.532   8.281
10100WAT     H130542   6.908   4.483   8.270
10100WAT     H230543   7.070   4.474   8.247
10101WAT      O30544   6.549   0.159   6.680
10101WAT     H130545   6.606   0.137   6.759
10101WAT     H230546   6.510   0.074   6.643
10102WAT      O30547   7.887   4.691   9.002
10102WAT     H130548   7.952   4.751   9.048
10102WAT     H230549   7.839   4.742   8.931
10103WAT      O30550   9.420   3.624   6.055
10103WAT     H130551   9.407   3.722   6.072
10103WAT     H230552   9.387   3.572   6.133
10104WAT      O30553   8.927   5.111   2.096
10104WAT     H130554   8.946   5.033   2.037
10104WAT     H230555   9.003   5.176   2.092
10105WAT      O30556   4.734   7.094   0.065
10105WAT     H130557   4.801   7.094  -0.010
10105WAT     H230558   4.778   7.064   0.149
10106WAT      O30559   5.780   9.222   0.871
10106WAT     H130560   5.772   9.145   0.807
10106WAT     H230561   5.815   9.302   0.823
10107WAT      O30562   8.598   2.995   4.521
10107WAT     H130563   8.634   2.979   4.429
10107WAT     H230564   8.502   3.020   4.515
10108WAT      O30565   8.448   8.123   9.690
10108WAT     H130566   8.418   8.200   9.745
10108WAT     H230567   8.494   8.156   9.608
10109WAT      O30568   6.201   3.306   7.994
10109WAT     H130569   6.128   3.311   7.926
10109WAT     H230570   6.215   3.396   8.035
10110WAT      O30571   7.854   5.813   0.732
10110WAT     H130572   7.850   5.910   0.707
10110WAT     H230573   7.780   5.764   0.685
10111WAT      O30574   5.003   2.408   8.332
10111WAT     H130575   5.050   2.354   8.401
10111WAT     H230576   5.046   2.498   8.325
10112WAT      O30577   7.800   0.125   1.647
10112WAT     H130578   7.894   0.103   1.672
10112WAT     H230579   7.769   0.204   1.700
10113WAT      O30580   6.709   3.808   7.788
10113WAT     H130581   6.674   3.771   7.702
10113WAT     H230582   6.634   3.848   7.840
10114WAT      O30583   0.257   8.491   7.027
10114WAT     H130584   0.313   8.560   6.980
10114WAT     H230585   0.233   8.418   6.963
10115WAT      O30586   4.308   1.441   1.721
10115WAT     H130587   4.371   1.472   1.650
10115WAT     H230588   4.222   1.412   1.679
10116WAT      O30589   5.717   1.593   4.447
10116WAT     H130590   5.676   1.545   4.369
10116WAT     H230591   5.647   1.608   4.517
10117WAT      O30592   4.619   2.099   9.025
10117WAT     H130593   4.574   2.011   9.012
10117WAT     H230594   4.674   2.096   9.109
10118WAT      O30595   6.805   0.903   9.821
10118WAT     H130596   6.732   0.958   9.862
10118WAT     H230597   6.841   0.840   9.889
10119WAT      O30598   5.235   7.028   6.088
10119WAT     H130599   5.327   6.987   6.087
10119WAT     H230600   5.243   7.127   6.100
10120WAT      O30601   0.036   6.928   4.950
10120WAT     H130602  -0.034   6.929   4.878
10120WAT     H230603   0.110   6.991   4.924
10121WAT      O30604   2.350   6.527   1.333
10121WAT     H130605   2.447   6.529   1.358
10121WAT     H230606   2.319   6.618   1.308
10122WAT      O30607   9.675   4.703   8.974
10122WAT     H130608   9.630   4.717   9.062
10122WAT     H230609   9.774   4.699   8.987
10123WAT      O30610   2.349   8.835   6.058
10123WAT     H130611   2.250   8.819   6.060
10123WAT     H230612   2.381   8.838   5.964
10124WAT      O30613   7.353   7.970   6.664
10124WAT     H130614   7.289   7.965   6.741
10124WAT     H230615   7.350   8.062   6.625
10125WAT      O30616   1.342   7.064   2.343
10125WAT     H130617   1.339   7.024   2.435
10125WAT     H230618   1.318   6.994   2.276
10126WAT      O30619   0.217   4.771   5.648
10126WAT     H130620   0.143   4.705   5.638
10126WAT     H230621   0.209   4.841   5.577
10127WAT      O30622   2.404   6.315   4.276
10127WAT     H130623   2.363   6.383   4.214
10127WAT     H230624   2.422   6.231   4.226
10128WAT      O30625   1.581   6.093   8.780
10128WAT     H130626   1.631   6.164   8.732
10128WAT     H230627   1.493   6.129   8.812
10129WAT      O30628   2.020   2.137   7.440
10129WAT     H130629   2.018   2.040   7.414
10129WAT     H230630   2.106   2.178   7.411
10130WAT      O30631   9.238   2.424   2.745
10130WAT     H130632   9.243   2.335   2.790
10130WAT     H230633   9.324   2.473   2.760
10131WAT      O30634   3.004   0.545   4.098
10131WAT     H130635   3.016   0.459   4.049
10131WAT     H230636   2.913   0.582   4.080
10132WAT      O30637   9.840   0.415   3.791
10132WAT     H130638   9.916   0.357   3.819
10132WAT     H230639   9.857   0.509   3.822
10133WAT      O30640   9.204   1.853   5.043
10133WAT     H130641   9.260   1.873   4.963
10133WAT     H230642   9.140   1.928   5.058
10134WAT      O30643   8.386   8.307   2.585
10134WAT     H130644   8.434   8.219   2.596
10134WAT     H230645   8.386   8.333   2.489
10135WAT      O30646   5.109   2.003   2.657
10135WAT     H130647   5.125   2.076   2.591
10135WAT     H230648   5.087   2.042   2.746
10136WAT      O30649   4.378   8.149   8.780
10136WAT     H130650   4.352   8.180   8.689
10136WAT     H230651   4.459   8.199   8.810
10137WAT      O30652   0.895   7.238   8.941
10137WAT     H130653   0.953   7.316   8.916
10137WAT     H230654   0.799   7.266   8.935
10138WAT      O30655   7.704   5.342   3.943
10138WAT     H130656   7.694   5.439   3.922
10138WAT     H230657   7.622   5.293   3.914
10139WAT      O30658   6.376   4.902   0.304
10139WAT     H130659   6.440   4.874   0.376
10139WAT     H230660   6.394   4.850   0.221
10140WAT      O30661   5.029   2.682   2.937
10140WAT     H130662   5.070   2.740   3.008
10140WAT     H230663   5.093   2.672   2.861
10141WAT      O30664   7.120   5.771   6.855
10141WAT     H130665   7.122   5.851   6.794
10141WAT     H230666   7.042   5.714   6.832
10142WAT      O30667   9.452   3.804   2.116
10142WAT     H130668   9.400   3.773   2.196
10142WAT     H230669   9.427   3.748   2.037
10143WAT      O30670   6.879   6.602   9.124
10143WAT     H130671   6.789   6.623   9.162
10143WAT     H230672   6.872   6.597   9.024
10144WAT      O30673   7.738   0.911   6.310
10144WAT     H130674   7.818   0.860   6.280
10144WAT     H230675   7.659   0.850   6.315
10145WAT      O30676   1.398   7.293   5.816
10145WAT     H130677   1.311   7.304   5.864
10145WAT     H230678   1.413   7.372   5.756
10146WAT      O30679   3.463   1.326   3.991
10146WAT     H130680   3.430   1.396   3.928
10146WAT     H230681   3.500   1.249   3.940
10147WAT      O30682   6.946   8.397   2.727
10147WAT     H130683   6.898   8.313   2.703
10147WAT     H230684   6.943   8.461   2.650
10148WAT      O30685   5.061   1.156   6.931
10148WAT     H130686   5.084   1.106   6.847
10148WAT     H230687   5.139   1.153   6.994
10149WAT      O30688   6.437   8.832   8.297
10149WAT     H130689   6.494   8.872   8.225
10149WAT     H230690   6.356   8.889   8.310
10150WAT      O30691   3.372   4.383   2.324
10150WAT     H130692   3.436   4.456   2.297
10150WAT     H230693   3.412   4.294   2.301
10151WAT      O30694   5.509   8.804   1.788
10151WAT     H130695   5.592   8.787   1.842
10151WAT     H230696   5.434   8.827   1.850
10152WAT      O30697   1.753   8.796   2.720
10152WAT     H130698   1.806   8.844   2.790
10152WAT     H230699   1.805   8.716   2.689
10153WAT      O30700   7.767   4.415   2.644
10153WAT     H130701   7.852   4.404   2.592
10153WAT     H230702   7.784   4.471   2.725
10154WAT      O30703   9.221   6.322   8.228
10154WAT     H130704   9.136   6.314   8.280
10154WAT     H230705   9.278   6.242   8.244
10155WAT      O30706   7.971   4.522   6.301
10155WAT     H130707   7.976   4.600   6.364
10155WAT     H230708   7.881   4.520   6.259
10156WAT      O30709   8.633   1.543   3.088
10156WAT     H130710   8.676   1.466   3.041
10156WAT     H230711   8.579   1.596   3.023
10157WAT      O30712   2.025   2.032   0.638
10157WAT     H130713   1.942   2.088   0.632
10157WAT     H230714   2.044   1.991   0.549
10158WAT      O30715   0.730   5.372   1.976
10158WAT     H130716   0.799   5.440   1.952
10158WAT     H230717   0.774   5.291   2.014
10159WAT      O30718   8.766   7.694   3.783
10159WAT     H130719   8.822   7.773   3.758
10159WAT     H230720   8.803   7.652   3.866
10160WAT      O30721   5.631   8.176   4.301
10160WAT     H130722   5.533   8.178   4.321
10160WAT     H230723   5.682   8.171   4.387
10161WAT      O30724   9.714   7.498   4.749
10161WAT     H130725   9.808   7.519   4.723
10161WAT     H230726   9.666   7.583   4.773
10162WAT      O30727   6.830   4.499   1.119
10162WAT     H130728   6.824   4.400   1.133
10162WAT     H230729   6.899   4.518   1.048
10163WAT      O30730   4.207   9.124   3.392
10163WAT     H130731   4.204   9.204   3.331
10163WAT     H230732   4.293   9.124   3.442
10164WAT      O30733   7.022   2.495   2.797
10164WAT     H130734   7.002   2.397   2.792
10164WAT     H230735   7.091   2.511   2.868
10165WAT      O30736   8.819   3.538   2.059
10165WAT     H130737   8.807   3.467   1.990
10165WAT     H230738   8.884   3.506   2.129
10166WAT      O30739   5.757   5.640   4.286
10166WAT     H130740   5.753   5.739   4.284
10166WAT     H230741   5.742   5.604   4.194
10167WAT      O30742   5.005   7.495   9.136
10167WAT     H130743   5.057   7.435   9.075
10167WAT     H230744   5.002   7.456   9.228
10168WAT      O30745   7.243   5.035   3.281
10168WAT     H130746   7.274   5.130   3.287
10168WAT     H230747   7.312   4.981   3.232
10169WAT      O30748   0.505   2.310   5.688
10169WAT     H130749   0.471   2.325   5.781
10169WAT     H230750   0.518   2.398   5.643
10170WAT      O30751   5.064   2.168   1.203
10170WAT     H130752   5.059   2.237   1.130
10170WAT     H230753   5.007   2.090   1.179
10171WAT      O30754   5.559   2.046   0.310
10171WAT     H130755   5.488   1.997   0.259
10171WAT     H230756   5.645   2.039   0.261
10172WAT      O30757   7.334   8.909   6.844
10172WAT     H130758   7.340   8.889   6.746
10172WAT     H230759   7.260   8.973   6.861
10173WAT      O30760   2.700   3.998   6.980
10173WAT     H130761   2.657   3.994   7.070
10173WAT     H230762   2.751   3.914   6.962
10174WAT      O30763   8.490   5.722   8.438
10174WAT     H130764   8.527   5.705   8.529
10174WAT     H230765   8.463   5.818   8.429
10175WAT      O30766   4.923   0.373   5.940
10175WAT     H130767   4.892   0.283   5.971
10175WAT     H230768   4.847   0.438   5.946
10176WAT      O30769   6.828   9.814   5.423
10176WAT     H130770   6.742   9.799   5.375
10176WAT     H230771   6.830   9.906   5.461
10177WAT      O30772   7.088   6.790   3.264
10177WAT     H130773   7.098   6.730   3.343
10177WAT     H230774   7.017   6.753   3.203
10178WAT      O30775   2.219   1.710   0.809
10178WAT     H130776   2.159   1.790   0.802
10178WAT     H230777   2.163   1.627   0.809
10179WAT      O30778   0.468   6.927   9.798
10179WAT     H130779   0.501   7.011   9.755
10179WAT     H230780   0.527   6.904   9.876
10180WAT      O30781   3.558   0.244   7.797
10180WAT     H130782   3.564   0.344   7.798
10180WAT     H230783   3.523   0.213   7.709
10181WAT      O30784   3.267   6.926   2.401
10181WAT     H130785   3.195   6.917   2.331
10181WAT     H230786   3.297   6.835   2.429
10182WAT      O30787   7.107   5.638   4.754
10182WAT     H130788   7.088   5.544   4.783
10182WAT     H230789   7.027   5.695   4.774
10183WAT      O30790   0.220   7.631   5.841
10183WAT     H130791   0.168   7.548   5.859
10183WAT     H230792   0.314   7.607   5.816
10184WAT      O30793   2.534   7.846   0.358
10184WAT     H130794   2.509   7.842   0.262
10184WAT     H230795   2.499   7.932   0.398
10185WAT      O30796   0.925   7.172   4.429
10185WAT     H130797   0.937   7.189   4.331
10185WAT     H230798   0.928   7.074   4.447
10186WAT      O30799   3.166   7.443   3.793
10186WAT     H130800   3.123   7.353   3.793
10186WAT     H230801   3.116   7.504   3.731
10187WAT      O30802   2.580   6.667   1.865
10187WAT     H130803   2.563   6.764   1.844
10187WAT     H230804   2.655   6.633   1.808
10188WAT      O30805   2.054   2.814   2.018
10188WAT     H130806   2.080   2.797   2.113
10188WAT     H230807   2.013   2.732   1.979
10189WAT      O30808   4.159   5.942   2.807
10189WAT     H130809   4.068   5.958   2.769
10189WAT     H230810   4.224   6.005   2.764
10190WAT      O30811   5.495   2.768   3.557
10190WAT     H130812   5.594   2.771   3.569
10190WAT     H230813   5.463   2.673   3.558
10191WAT      O30814   2.588   2.593   9.410
10191WAT     H130815   2.501   2.642   9.412
10191WAT     H230816   2.662   2.657   9.429
10192WAT      O30817   8.707   1.694   7.861
10192WAT     H130818   8.767   1.770   7.885
10192WAT     H230819   8.642   1.678   7.935
10193WAT      O30820   6.269   2.473   6.411
10193WAT     H130821   6.210   2.525   6.472
10193WAT     H230822   6.228   2.384   6.392
10194WAT      O30823   8.874   2.387   3.434
10194WAT     H130824   8.829   2.298   3.430
10194WAT     H230825   8.835   2.441   3.509
10195WAT      O30826   9.884   4.396   1.493
10195WAT     H130827   9.877   4.359   1.586
10195WAT     H230828   9.930   4.329   1.434
10196WAT      O30829   5.360   8.024   0.952
10196WAT     H130830   5.450   8.063   0.932
10196WAT     H230831   5.316   8.079   1.024
10197WAT      O30832   4.784   6.751   8.020
10197WAT     H130833   4.700   6.805   8.010
10197WAT     H230834   4.859   6.799   7.975
10198WAT      O30835   2.103   5.218   8.608
10198WAT     H130836   2.014   5.217   8.561
10198WAT     H230837   2.176   5.199   8.543
10199WAT      O30838   2.254   4.236   8.278
10199WAT     H130839   2.280   4.210   8.371
10199WAT     H230840   2.327   4.208   8.215
10200WAT      O30841   0.060   3.920   3.218
10200WAT     H130842  -0.005   3.986   3.178
10200WAT     H230843   0.133   3.970   3.265
10201WAT      O30844   4.542   2.833   7.908
10201WAT     H130845   4.445   2.838   7.887
10201WAT     H230846   4.559   2.756   7.969
10202WAT      O30847   4.234   4.447   6.222
10202WAT     H130848   4.140   4.451   6.256
10202WAT     H230849   4.270   4.355   6.234
10203WAT      O30850   6.489   8.876   1.035
10203WAT     H130851   6.397   8.895   1.068
10203WAT     H230852   6.533   8.809   1.095
10204WAT      O30853   3.529   4.337   4.931
10204WAT     H130854   3.589   4.405   4.971
10204WAT     H230855   3.495   4.370   4.843
10205WAT      O30856   6.683   4.667   3.825
10205WAT     H130857   6.782   4.675   3.838
10205WAT     H230858   6.648   4.590   3.880
10206WAT      O30859   6.434   1.657   1.586
10206WAT     H130860   6.479   1.583   1.637
10206WAT     H230861   6.503   1.706   1.532
10207WAT      O30862   8.971   9.288   2.589
10207WAT     H130863   8.879   9.317   2.564
10207WAT     H230864   8.970   9.190   2.611
10208WAT      O30865   8.916   5.826   0.911
10208WAT     H130866   8.986   5.836   0.840
10208WAT     H230867   8.896   5.729   0.924
10209WAT      O30868   7.646   7.938   6.748
10209WAT     H130869   7.556   7.966   6.715
10209WAT     H230870   7.635   7.870   6.820
10210WAT      O30871   8.835   2.283   0.275
10210WAT     H130872   8.921   2.235   0.290
10210WAT     H230873   8.759   2.227   0.308
10211WAT      O30874   3.543   5.507   0.275
10211WAT     H130875   3.580   5.550   0.193
10211WAT     H230876   3.476   5.437   0.249
10212WAT      O30877   3.231   1.063   0.767
10212WAT     H130878   3.192   0.999   0.833
10212WAT     H230879   3.326   1.038   0.749
10213WAT      O30880   2.462   0.017   5.779
10213WAT     H130881   2.364   0.009   5.797
10213WAT     H230882   2.514  -0.006   5.861
10214WAT      O30883   2.028   2.925   7.171
10214WAT     H130884   2.005   2.985   7.248
10214WAT     H230885   2.012   2.975   7.085
10215WAT      O30886   6.426   4.498   7.167
10215WAT     H130887   6.437   4.589   7.127
10215WAT     H230888   6.473   4.495   7.255
10216WAT      O30889   2.407   0.111   2.906
10216WAT     H130890   2.452   0.199   2.895
10216WAT     H230891   2.362   0.107   2.996
10217WAT      O30892   9.714   0.225   1.042
10217WAT     H130893   9.651   0.154   1.011
10217WAT     H230894   9.789   0.183   1.094
10218WAT      O30895   8.668   2.132   6.303
10218WAT     H130896   8.610   2.074   6.246
10218WAT     H230897   8.740   2.171   6.246
10219WAT      O30898   3.197   5.453   2.962
10219WAT     H130899   3.125   5.415   2.904
10219WAT     H230900   3.277   5.394   2.959
10220WAT      O30901   8.182   8.798   3.258
10220WAT     H130902   8.223   8.715   3.296
10220WAT     H230903   8.239   8.833   3.184
10221WAT      O30904   4.530   9.000   5.905
10221WAT     H130905   4.570   8.911   5.887
10221WAT     H230906   4.524   9.014   6.004
10222WAT      O30907   4.479   9.051   3.229
10222WAT     H130908   4.452   9.031   3.324
10222WAT     H230909   4.577   9.033   3.218
10223WAT      O30910   0.851   9.274   7.201
10223WAT     H130911   0.872   9.294   7.105
10223WAT     H230912   0.923   9.313   7.259
10224WAT      O30913   8.029   1.960   6.058
10224WAT     H130914   7.942   1.961   6.106
10224WAT     H230915   8.094   2.021   6.104
10225WAT      O30916   5.682   5.202   9.195
10225WAT     H130917   5.611   5.219   9.126
10225WAT     H230918   5.654   5.125   9.252
10226WAT      O30919   8.483   3.179   9.488
10226WAT     H130920   8.548   3.235   9.539
10226WAT     H230921   8.417   3.238   9.442
10227WAT      O30922   8.485   1.682   4.086
10227WAT     H130923   8.511   1.747   4.015
10227WAT     H230924   8.392   1.649   4.069
10228WAT      O30925   2.496   7.555   7.243
10228WAT     H130926   2.486   7.653   7.262
10228WAT     H230927   2.430   7.528   7.174
10229WAT      O30928   0.722   0.560   0.280
10229WAT     H130929   0.630   0.557   0.239
10229WAT     H230930   0.791   0.559   0.208
10230WAT      O30931   8.634   1.469   1.550
10230WAT     H130932   8.562   1.523   1.594
10230WAT     H230933   8.698   1.530   1.504
10231WAT      O30934   5.950   5.893   8.165
10231WAT     H130935   5.972   5.813   8.221
10231WAT     H230936   5.852   5.895   8.146
10232WAT      O30937   0.869   4.359   0.831
10232WAT     H130938   0.772   4.380   0.836
10232WAT     H230939   0.882   4.260   0.844
10233WAT      O30940   1.689   3.143   0.314
10233WAT     H130941   1.777   3.163   0.356
10233WAT     H230942   1.680   3.194   0.228
10234WAT      O30943   0.203   0.686   9.568
10234WAT     H130944   0.211   0.782   9.543
10234WAT     H230945   0.121   0.672   9.623
10235WAT      O30946   7.279   3.157   2.432
10235WAT     H130947   7.341   3.128   2.359
10235WAT     H230948   7.291   3.098   2.512
10236WAT      O30949   6.006   5.369   2.612
10236WAT     H130950   5.972   5.314   2.689
10236WAT     H230951   6.026   5.309   2.535
10237WAT      O30952   0.331   6.818   0.581
10237WAT     H130953   0.402   6.840   0.514
10237WAT     H230954   0.334   6.721   0.602
10238WAT      O30955   6.387   6.507   1.719
10238WAT     H130956   6.413   6.589   1.667
10238WAT     H230957   6.348   6.535   1.807
10239WAT      O30958   1.225   1.318   5.233
10239WAT     H130959   1.152   1.385   5.250
10239WAT     H230960   1.232   1.300   5.135
10240WAT      O30961   9.009   6.229   8.395
10240WAT     H130962   9.016   6.191   8.487
10240WAT     H230963   8.917   6.265   8.381
10241WAT      O30964   5.566   3.175   1.339
10241WAT     H130965   5.582   3.100   1.403
10241WAT     H230966   5.627   3.166   1.260
10242WAT      O30967   5.081   2.674   8.302
10242WAT     H130968   5.060   2.760   8.256
10242WAT     H230969   5.119   2.694   8.393
10243WAT      O30970   2.587   2.843   2.952
10243WAT     H130971   2.590   2.941   2.971
10243WAT     H230972   2.538   2.796   3.025
10244WAT      O30973   8.592   0.155   0.046
10244WAT     H130974   8.624   0.141   0.140
10244WAT     H230975   8.526   0.231   0.045
10245WAT      O30976   8.942   7.248   9.396
10245WAT     H130977   8.866   7.295   9.441
10245WAT     H230978   8.936   7.261   9.298
10246WAT      O30979   0.889   3.122   6.656
10246WAT     H130980   0.934   3.033   6.650
10246WAT     H230981   0.792   3.112   6.633
10247WAT      O30982   8.255   4.145   7.552
10247WAT     H130983   8.192   4.096   7.493
10247WAT     H230984   8.324   4.191   7.495
10248WAT      O30985   3.449   2.188   6.280
10248WAT     H130986   3.441   2.272   6.333
10248WAT     H230987   3.533   2.191   6.225
10249WAT      O30988   6.385   0.947   7.480
10249WAT     H130989   6.475   0.979   7.448
10249WAT     H230990   6.378   0.848   7.466
10250WAT      O30991   9.027   0.787   0.762
10250WAT     H130992   9.006   0.834   0.848
10250WAT     H230993   9.026   0.688   0.776
10251WAT      O30994   3.427   6.067   9.076
10251WAT     H130995   3.496   6.115   9.131
10251WAT     H230996   3.362   6.023   9.137
10252WAT      O30997   0.090   8.754   8.422
10252WAT     H130998   0.051   8.809   8.496
10252WAT     H230999   0.163   8.806   8.377
10253WAT      O31000   2.296   6.795   7.196
10253WAT     H131001   2.341   6.718   7.243
10253WAT     H231002   2.208   6.764   7.160
10254WAT      O31003   1.332   4.451   3.635
10254WAT     H131004   1.293   4.363   3.608
10254WAT     H231005   1.280   4.525   3.593
10255WAT      O31006   4.996   3.964   8.913
10255WAT     H131007   4.963   3.994   8.824
10255WAT     H231008   5.032   3.871   8.906
10256WAT      O31009   6.708   1.457   6.541
10256WAT     H131010   6.793   1.507   6.527
10256WAT     H231011   6.643   1.515   6.591
10257WAT      O31012   0.444   4.521   8.314
10257WAT     H131013   0.524   4.565   8.275
10257WAT     H231014   0.473   4.446   8.374
10258WAT      O31015   4.585   7.533   1.010
10258WAT     H131016   4.486   7.528   0.994
10258WAT     H231017   4.617   7.626   0.996
10259WAT      O31018   8.291   7.279   1.814
10259WAT     H131019   8.388   7.291   1.790
10259WAT     H231020   8.238   7.356   1.778
10260WAT      O31021   8.727   4.090   3.083
10260WAT     H131022   8.665   4.043   3.020
10260WAT     H231023   8.747   4.182   3.048
10261WAT      O31024   9.229   1.548   9.373
10261WAT     H131025   9.326   1.556   9.349
10261WAT     H231026   9.220   1.551   9.472
10262WAT      O31027   7.246   3.523   9.204
10262WAT     H131028   7.187   3.453   9.162
10262WAT     H231029   7.234   3.522   9.303
10263WAT      O31030   1.678   9.220   4.289
10263WAT     H131031   1.639   9.250   4.377
10263WAT     H231032   1.710   9.299   4.238
10264WAT      O31033   3.234   2.510   4.853
10264WAT     H131034   3.159   2.445   4.838
10264WAT     H231035   3.225   2.551   4.944
10265WAT      O31036   2.373   0.749   9.485
10265WAT     H131037   2.331   0.738   9.395
10265WAT     H231038   2.365   0.664   9.537
10266WAT      O31039   5.888   6.083   0.696
10266WAT     H131040   5.809   6.143   0.684
10266WAT     H231041   5.955   6.102   0.625
10267WAT      O31042   7.169   1.339   6.555
10267WAT     H131043   7.261   1.377   6.563
10267WAT     H231044   7.120   1.384   6.481
10268WAT      O31045   1.773   1.700   8.105
10268WAT     H131046   1.735   1.750   8.028
10268WAT     H231047   1.817   1.616   8.072
10269WAT      O31048   3.580   1.467   6.397
10269WAT     H131049   3.587   1.522   6.313
10269WAT     H231050   3.647   1.393   6.394
10270WAT      O31051   2.868   1.563   4.433
10270WAT     H131052   2.776   1.529   4.455
10270WAT     H231053   2.886   1.646   4.487
10271WAT      O31054   8.327   9.276   4.331
10271WAT     H131055   8.412   9.322   4.307
10271WAT     H231056   8.264   9.341   4.374
10272WAT      O31057   1.199   8.150   4.403
10272WAT     H131058   1.118   8.142   4.345
10272WAT     H231059   1.252   8.065   4.398
10273WAT      O31060   4.851   7.893   3.302
10273WAT     H131061   4.847   7.879   3.401
10273WAT     H231062   4.946   7.909   3.275
10274WAT      O31063   5.723   5.974   9.512
10274WAT     H131064   5.783   5.925   9.448
10274WAT     H231065   5.767   5.978   9.602
10275WAT      O31066   5.512   8.432   1.116
10275WAT     H131067   5.427   8.409   1.164
10275WAT     H231068   5.587   8.378   1.154
10276WAT      O31069   2.312   8.823   2.580
10276WAT     H131070   2.244   8.871   2.524
10276WAT     H231071   2.269   8.746   2.626
10277WAT      O31072   2.565   9.322   8.235
10277WAT     H131073   2.602   9.334   8.327
10277WAT     H231074   2.603   9.239   8.194
10278WAT      O31075   2.878   5.050   3.088
10278WAT     H131076   2.975   5.042   3.064
10278WAT     H231077   2.871   5.068   3.187
10279WAT      O31078   1.256   6.227   1.799
10279WAT     H131079   1.220   6.320   1.809
10279WAT     H231080   1.299   6.217   1.710
10280WAT      O31081   0.640   6.149   7.952
10280WAT     H131082   0.609   6.234   7.910
10280WAT     H231083   0.575   6.076   7.930
10281WAT      O31084   4.298   1.945   9.279
10281WAT     H131085   4.297   2.032   9.230
10281WAT     H231086   4.320   1.872   9.214
10282WAT      O31087   7.359   1.879   6.541
10282WAT     H131088   7.394   1.942   6.610
10282WAT     H231089   7.324   1.797   6.586
10283WAT      O31090   4.848   0.387   8.976
10283WAT     H131091   4.913   0.316   9.003
10283WAT     H231092   4.855   0.403   8.878
10284WAT      O31093   2.906   6.311   8.890
10284WAT     H131094   2.996   6.322   8.932
10284WAT     H231095   2.840   6.370   8.935
10285WAT      O31096   6.459   9.027   0.051
10285WAT     H131097   6.538   9.068   0.097
10285WAT     H231098   6.420   8.957   0.110
10286WAT      O31099   6.769   0.887   5.735
10286WAT     H131100   6.670   0.875   5.726
10286WAT     H231101   6.816   0.806   5.702
10287WAT      O31102   6.955   4.916   8.073
10287WAT     H131103   6.897   4.839   8.102
10287WAT     H231104   6.933   4.996   8.129
10288WAT      O31105   0.433   2.078   2.477
10288WAT     H131106   0.385   2.087   2.564
10288WAT     H231107   0.509   2.143   2.474
10289WAT      O31108   1.630   1.069   8.575
10289WAT     H131109   1.551   1.047   8.519
10289WAT     H231110   1.600   1.124   8.654
10290WAT      O31111   6.955   9.407   0.703
10290WAT     H131112   6.980   9.475   0.633
10290WAT     H231113   6.859   9.420   0.728
10291WAT      O31114   0.177   6.746   9.263
10291WAT     H131115   0.196   6.815   9.194
10291WAT     H231116   0.189   6.654   9.224
10292WAT      O31117   8.530   3.567   4.547
10292WAT     H131118   8.567   3.583   4.455
10292WAT     H231119   8.448   3.510   4.540
10293WAT      O31120   7.991   4.849   4.671
10293WAT     H131121   7.975   4.918   4.600
10293WAT     H231122   8.079   4.868   4.716
10294WAT      O31123   3.582   5.233   9.382
10294WAT     H131124   3.535   5.205   9.466
10294WAT     H231125   3.663   5.176   9.369
10295WAT      O31126   6.691   0.821   6.636
10295WAT     H131127   6.676   0.723   6.649
10295WAT     H231128   6.777   0.847   6.678
10296WAT      O31129   0.276   6.156   2.067
10296WAT     H131130   0.211   6.222   2.030
10296WAT     H231131   0.333   6.120   1.992
10297WAT      O31132   4.726   5.378   5.689
10297WAT     H131133   4.704   5.454   5.628
10297WAT     H231134   4.823   5.382   5.713
10298WAT      O31135   0.266   3.503   2.043
10298WAT     H131136   0.177   3.514   2.086
10298WAT     H231137   0.266   3.545   1.953
10299WAT      O31138   3.676   8.310   4.086
10299WAT     H131139   3.602   8.360   4.041
10299WAT     H231140   3.677   8.332   4.183
10300WAT      O31141   2.253   4.261   3.623
10300WAT     H131142   2.322   4.283   3.692
10300WAT     H231143   2.275   4.310   3.538
10301WAT      O31144   1.807   7.116   4.803
10301WAT     H131145   1.861   7.145   4.724
10301WAT     H231146   1.791   7.017   4.798
10302WAT      O31147   1.580   2.662   2.172
10302WAT     H131148   1.539   2.571   2.183
10302WAT     H231149   1.673   2.662   2.210
10303WAT      O31150   7.087   9.802   4.742
10303WAT     H131151   7.078   9.705   4.764
10303WAT     H231152   7.015   9.829   4.678
10304WAT      O31153   0.657   3.481   4.295
10304WAT     H131154   0.620   3.388   4.300
10304WAT     H231155   0.586   3.546   4.322
10305WAT      O31156   8.348   2.069   3.967
10305WAT     H131157   8.289   2.105   3.894
10305WAT     H231158   8.410   2.141   3.998
10306WAT      O31159   5.298   0.494   6.559
10306WAT     H131160   5.241   0.484   6.641
10306WAT     H231161   5.297   0.590   6.529
10307WAT      O31162   6.066   8.588   4.389
10307WAT     H131163   6.054   8.491   4.369
10307WAT     H231164   6.019   8.642   4.319
10308WAT      O31165   8.192   2.100   8.291
10308WAT     H131166   8.229   2.188   8.260
10308WAT     H231167   8.097   2.111   8.320
10309WAT      O31168   1.124   2.856   2.419
10309WAT     H131169   1.061   2.816   2.353
10309WAT     H231170   1.218   2.834   2.393
10310WAT      O31171   9.094   2.634   2.702
10310WAT     H131172   9.103   2.648   2.604
10310WAT     H231173   9.152   2.557   2.730
10311WAT      O31174   5.956   2.843   1.686
10311WAT     H131175   5.943   2.806   1.777
10311WAT     H231176   6.048   2.881   1.678
10312WAT      O31177   8.727   4.921   8.970
10312WAT     H131178   8.738   4.910   8.871
10312WAT     H231179   8.804   4.877   9.017
10313WAT      O31180   3.688   7.839   8.876
10313WAT     H131181   3.653   7.926   8.911
10313WAT     H231182   3.785   7.830   8.898
10314WAT      O31183   7.969   3.256   4.357
10314WAT     H131184   7.870   3.252   4.370
10314WAT     H231185   7.990   3.235   4.261
10315WAT      O31186   0.424   1.487   5.422
10315WAT     H131187   0.351   1.481   5.354
10315WAT     H231188   0.479   1.403   5.419
10316WAT      O31189   7.344   4.036   4.418
10316WAT     H131190   7.322   4.011   4.324
10316WAT     H231191   7.428   4.091   4.418
10317WAT      O31192   0.101   0.684   4.161
10317WAT     H131193   0.129   0.681   4.065
10317WAT     H231194   0.069   0.776   4.184
10318WAT      O31195   6.909   0.149   8.946
10318WAT     H131196   6.999   0.142   8.904
10318WAT     H231197   6.908   0.224   9.012
10319WAT      O31198   9.149   4.813   1.189
10319WAT     H131199   9.054   4.843   1.203
10319WAT     H231200   9.153   4.714   1.195
10320WAT      O31201   9.563   8.601   3.374
10320WAT     H131202   9.604   8.688   3.401
10320WAT     H231203   9.482   8.618   3.318
10321WAT      O31204   5.943   8.672   0.596
10321WAT     H131205   5.874   8.607   0.629
10321WAT     H231206   5.898   8.754   0.563
10322WAT      O31207   2.757   8.344   9.109
10322WAT     H131208   2.793   8.370   9.198
10322WAT     H231209   2.832   8.326   9.046
10323WAT      O31210   5.069   1.433   9.640
10323WAT     H131211   5.028   1.511   9.594
10323WAT     H231212   5.121   1.465   9.720
10324WAT      O31213   9.359   2.936   6.691
10324WAT     H131214   9.430   2.890   6.743
10324WAT     H231215   9.389   3.029   6.669
10325WAT      O31216   2.040   5.800   2.216
10325WAT     H131217   2.097   5.824   2.295
10325WAT     H231218   2.019   5.702   2.219
10326WAT      O31219   8.057   3.273   1.068
10326WAT     H131220   8.088   3.205   1.001
10326WAT     H231221   8.133   3.297   1.128
10327WAT      O31222   6.268   4.116   0.912
10327WAT     H131223   6.180   4.088   0.949
10327WAT     H231224   6.290   4.208   0.944
10328WAT      O31225   8.244   4.514   9.527
10328WAT     H131226   8.313   4.463   9.580
10328WAT     H231227   8.155   4.502   9.570
10329WAT      O31228   8.638   6.991   3.984
10329WAT     H131229   8.651   7.058   4.056
10329WAT     H231230   8.716   6.929   3.982
10330WAT      O31231   8.538   0.109   2.687
10330WAT     H131232   8.638   0.109   2.688
10330WAT     H231233   8.505   0.185   2.631
10331WAT      O31234   6.241   0.843   3.565
10331WAT     H131235   6.285   0.792   3.491
10331WAT     H231236   6.250   0.941   3.548
10332WAT      O31237   1.731   8.396   4.094
10332WAT     H131238   1.825   8.429   4.098
10332WAT     H231239   1.672   8.456   4.148
10333WAT      O31240   4.631   4.458   1.685
10333WAT     H131241   4.640   4.514   1.767
10333WAT     H231242   4.560   4.389   1.699
10334WAT      O31243   7.075   8.177   5.252
10334WAT     H131244   6.983   8.210   5.274
10334WAT     H231245   7.143   8.231   5.302
10335WAT      O31246   0.218   6.366   3.001
10335WAT     H131247   0.208   6.287   3.061
10335WAT     H231248   0.128   6.395   2.968
10336WAT      O31249   6.146   8.575   6.452
10336WAT     H131250   6.115   8.654   6.400
10336WAT     H231251   6.069   8.514   6.470
10337WAT      O31252   3.226   7.517   7.367
10337WAT     H131253   3.301   7.466   7.326
10337WAT     H231254   3.263   7.589   7.426
10338WAT      O31255   1.298   9.199   5.345
10338WAT     H131256   1.363   9.249   5.402
10338WAT     H231257   1.311   9.225   5.249
10339WAT      O31258   0.435   3.904   1.120
10339WAT     H131259   0.506   3.909   1.050
10339WAT     H231260   0.392   3.813   1.118
10340WAT      O31261   3.610   3.202   6.725
10340WAT     H131262   3.697   3.191   6.774
10340WAT     H231263   3.536   3.166   6.781
10341WAT      O31264   3.031   1.780   8.946
10341WAT     H131265   2.937   1.754   8.926
10341WAT     H231266   3.069   1.720   9.016
10342WAT      O31267   7.987   2.762   7.872
10342WAT     H131268   8.006   2.860   7.857
10342WAT     H231269   8.074   2.712   7.871
10343WAT      O31270   7.520   6.721   9.618
10343WAT     H131271   7.463   6.644   9.588
10343WAT     H231272   7.599   6.730   9.557
10344WAT      O31273   9.316   9.379   2.271
10344WAT     H131274   9.358   9.468   2.291
10344WAT     H231275   9.281   9.339   2.356
10345WAT      O31276   3.674   5.638   0.070
10345WAT     H131277   3.665   5.737   0.056
10345WAT     H231278   3.679   5.593  -0.019
10346WAT      O31279   3.186   8.377   7.585
10346WAT     H131280   3.144   8.430   7.511
10346WAT     H231281   3.137   8.394   7.671
10347WAT      O31282   1.519   8.907   7.103
10347WAT     H131283   1.528   8.829   7.165
10347WAT     H231284   1.457   8.975   7.143
10348WAT      O31285   6.550   9.649   3.279
10348WAT     H131286   6.589   9.720   3.339
10348WAT     H231287   6.577   9.559   3.312
10349WAT      O31288   8.794   1.866   4.609
10349WAT     H131289   8.797   1.805   4.530
10349WAT     H231290   8.834   1.954   4.584
10350WAT      O31291   4.663   5.339   1.654
10350WAT     H131292   4.630   5.414   1.598
10350WAT     H231293   4.621   5.343   1.745
10351WAT      O31294   2.802   8.402   4.050
10351WAT     H131295   2.754   8.320   4.083
10351WAT     H231296   2.741   8.456   3.993
10352WAT      O31297   4.519   4.841   9.209
10352WAT     H131298   4.610   4.876   9.191
10352WAT     H231299   4.525   4.744   9.234
10353WAT      O31300   0.206   6.996   8.100
10353WAT     H131301   0.170   7.067   8.160
10353WAT     H231302   0.130   6.950   8.054
10354WAT      O31303   0.978   2.450   2.100
10354WAT     H131304   0.983   2.461   2.199
10354WAT     H231305   1.065   2.477   2.059
10355WAT      O31306   6.920   4.841   5.176
10355WAT     H131307   7.018   4.823   5.174
10355WAT     H231308   6.889   4.863   5.083
10356WAT      O31309   7.568   2.355   2.654
10356WAT     H131310   7.571   2.260   2.624
10356WAT     H231311   7.661   2.389   2.666
10357WAT      O31312   8.483   8.557   9.578
10357WAT     H131313   8.393   8.514   9.566
10357WAT     H231314   8.512   8.597   9.491
10358WAT      O31315   4.245   0.559   4.217
10358WAT     H131316   4.281   0.582   4.307
10358WAT     H231317   4.216   0.642   4.171
10359WAT      O31318   3.784   1.776   4.415
10359WAT     H131319   3.808   1.724   4.333
10359WAT     H231320   3.685   1.770   4.431
10360WAT      O31321   3.319   9.740   4.128
10360WAT     H131322   3.413   9.728   4.161
10360WAT     H231323   3.264   9.661   4.156
10361WAT      O31324   0.657   5.875   2.515
10361WAT     H131325   0.751   5.855   2.544
10361WAT     H231326   0.624   5.801   2.457
10362WAT      O31327   8.221   1.545   6.107
10362WAT     H131328   8.147   1.569   6.169
10362WAT     H231329   8.301   1.603   6.125
10363WAT      O31330   5.215   0.420   6.851
10363WAT     H131331   5.305   0.383   6.828
10363WAT     H231332   5.148   0.346   6.849
10364WAT      O31333   9.452   6.765   0.012
10364WAT     H131334   9.507   6.736  -0.066
10364WAT     H231335   9.356   6.746  -0.005
10365WAT      O31336   4.154   4.683   4.275
10365WAT     H131337   4.215   4.762   4.278
10365WAT     H231338   4.169   4.626   4.356
10366WAT      O31339   9.811   5.090   2.329
10366WAT     H131340   9.785   5.156   2.399
10366WAT     H231341   9.857   5.137   2.253
10367WAT      O31342   8.593   6.480   5.072
10367WAT     H131343   8.539   6.556   5.106
10367WAT     H231344   8.541   6.431   5.001
10368WAT      O31345   6.864   2.689   3.082
10368WAT     H131346   6.897   2.706   3.175
10368WAT     H231347   6.934   2.719   3.017
10369WAT      O31348   9.517   9.597   4.585
10369WAT     H131349   9.530   9.695   4.597
10369WAT     H231350   9.606   9.553   4.571
10370WAT      O31351   9.108   6.671   3.732
10370WAT     H131352   9.054   6.587   3.741
10370WAT     H231353   9.140   6.679   3.637
10371WAT      O31354   7.623   1.064   9.832
10371WAT     H131355   7.697   1.131   9.837
10371WAT     H231356   7.632   1.009   9.749
10372WAT      O31357   2.921   1.002   5.270
10372WAT     H131358   2.998   0.991   5.333
10372WAT     H231359   2.904   0.915   5.224
10373WAT      O31360   6.261   0.450   8.214
10373WAT     H131361   6.357   0.456   8.189
10373WAT     H231362   6.221   0.368   8.172
10374WAT      O31363   1.269   7.879   0.325
10374WAT     H131364   1.269   7.978   0.339
10374WAT     H231365   1.291   7.834   0.412
10375WAT      O31366   6.857   3.338   4.098
10375WAT     H131367   6.818   3.288   4.175
10375WAT     H231368   6.798   3.416   4.077
10376WAT      O31369   5.136   7.780   5.699
10376WAT     H131370   5.050   7.754   5.743
10376WAT     H231371   5.172   7.702   5.648
10377WAT      O31372   9.398   4.785   1.675
10377WAT     H131373   9.385   4.878   1.708
10377WAT     H231374   9.471   4.741   1.727
10378WAT      O31375   2.956   7.530   4.493
10378WAT     H131376   3.008   7.579   4.425
10378WAT     H231377   2.987   7.556   4.585
10379WAT      O31378   5.291   9.020   4.673
10379WAT     H131379   5.231   8.945   4.647
10379WAT     H231380   5.385   8.988   4.677
10380WAT      O31381   0.316   9.672   8.918
10380WAT     H131382   0.262   9.600   8.876
10380WAT     H231383   0.296   9.676   9.016
10381WAT      O31384   3.211   9.408   5.179
10381WAT     H131385   3.148   9.485   5.174
10381WAT     H231386   3.304   9.442   5.194
10382WAT      O31387   2.334   8.842   1.967
10382WAT     H131388   2.316   8.868   2.062
10382WAT     H231389   2.248   8.825   1.920
10383WAT      O31390   0.950   7.608   5.106
10383WAT     H131391   1.035   7.591   5.057
10383WAT     H231392   0.873   7.574   5.053
10384WAT      O31393   0.811   8.452   6.036
10384WAT     H131394   0.745   8.377   6.042
10384WAT     H231395   0.783   8.526   6.097
10385WAT      O31396   2.283   2.465   1.583
10385WAT     H131397   2.261   2.508   1.496
10385WAT     H231398   2.232   2.379   1.591
10386WAT      O31399   5.109   4.181   9.411
10386WAT     H131400   5.016   4.161   9.379
10386WAT     H231401   5.105   4.246   9.487
10387WAT      O31402   8.145   3.321   3.254
10387WAT     H131403   8.208   3.317   3.332
10387WAT     H231404   8.172   3.253   3.186
10388WAT      O31405   6.443   0.556   6.421
10388WAT     H131406   6.494   0.544   6.335
10388WAT     H231407   6.385   0.636   6.414
10389WAT      O31408   5.685   4.708   5.493
10389WAT     H131409   5.601   4.656   5.509
10389WAT     H231410   5.763   4.658   5.533
10390WAT      O31411   4.565   9.500   4.939
10390WAT     H131412   4.547   9.535   4.847
10390WAT     H231413   4.533   9.567   5.007
10391WAT      O31414   5.417   8.611   7.006
10391WAT     H131415   5.391   8.520   6.976
10391WAT     H231416   5.335   8.665   7.023
10392WAT      O31417   2.012   4.839   8.511
10392WAT     H131418   1.965   4.893   8.441
10392WAT     H231419   1.962   4.754   8.526
10393WAT      O31420   7.814   4.456   4.043
10393WAT     H131421   7.789   4.446   4.140
10393WAT     H231422   7.888   4.523   4.036
10394WAT      O31423   2.015   9.648   5.917
10394WAT     H131424   2.061   9.656   6.005
10394WAT     H231425   1.963   9.563   5.914
10395WAT      O31426   8.103   8.309   7.482
10395WAT     H131427   8.133   8.405   7.485
10395WAT     H231428   8.161   8.258   7.419
10396WAT      O31429   0.963   2.280   8.058
10396WAT     H131430   1.057   2.253   8.036
10396WAT     H231431   0.904   2.199   8.059
10397WAT      O31432   5.455   5.003   0.230
10397WAT     H131433   5.360   4.978   0.248
10397WAT     H231434   5.466   5.025   0.133
10398WAT      O31435   3.854   4.495   4.622
10398WAT     H131436   3.942   4.485   4.576
10398WAT     H231437   3.867   4.502   4.721
10399WAT      O31438   8.464   8.284   9.466
10399WAT     H131439   8.529   8.225   9.419
10399WAT     H231440   8.504   8.374   9.480
10400WAT      O31441   7.304   3.585   2.299
10400WAT     H131442   7.210   3.550   2.307
10400WAT     H231443   7.303   3.685   2.301
10401WAT      O31444   2.744   8.384   1.311
10401WAT     H131445   2.683   8.445   1.259
10401WAT     H231446   2.738   8.406   1.408
10402WAT      O31447   0.379   0.379   0.786
10402WAT     H131448   0.356   0.291   0.744
10402WAT     H231449   0.314   0.449   0.755
10403WAT      O31450   0.974   6.825   3.303
10403WAT     H131451   1.056   6.862   3.259
10403WAT     H231452   0.893   6.873   3.269
10404WAT      O31453   1.619   3.018   1.827
10404WAT     H131454   1.682   3.023   1.750
10404WAT     H231455   1.564   3.102   1.831
10405WAT      O31456   1.222   8.162   8.621
10405WAT     H131457   1.265   8.117   8.543
10405WAT     H231458   1.232   8.105   8.703
10406WAT      O31459   2.183   2.196   3.132
10406WAT     H131460   2.149   2.268   3.192
10406WAT     H231461   2.106   2.148   3.090
10407WAT      O31462   4.373   8.132   5.166
10407WAT     H131463   4.443   8.187   5.211
10407WAT     H231464   4.415   8.075   5.095
10408WAT      O31465   2.114   9.177   9.493
10408WAT     H131466   2.103   9.102   9.427
10408WAT     H231467   2.175   9.246   9.454
10409WAT      O31468   4.864   7.465   8.278
10409WAT     H131469   4.817   7.553   8.281
10409WAT     H231470   4.801   7.393   8.309
10410WAT      O31471   7.580   3.857   4.876
10410WAT     H131472   7.594   3.770   4.923
10410WAT     H231473   7.548   3.925   4.941
10411WAT      O31474   8.079   6.761   1.358
10411WAT     H131475   8.123   6.792   1.443
10411WAT     H231476   7.985   6.795   1.354
10412WAT      O31477   5.155   6.677   2.603
10412WAT     H131478   5.253   6.674   2.625
10412WAT     H231479   5.142   6.665   2.505
10413WAT      O31480   3.753   0.880   6.527
10413WAT     H131481   3.659   0.887   6.561
10413WAT     H231482   3.817   0.904   6.600
10414WAT      O31483   1.360   1.809   2.340
10414WAT     H131484   1.420   1.770   2.271
10414WAT     H231485   1.267   1.774   2.327
10415WAT      O31486   0.184   1.387   6.065
10415WAT     H131487   0.191   1.463   6.001
10415WAT     H231488   0.110   1.325   6.036
10416WAT      O31489   4.670   3.773   9.625
10416WAT     H131490   4.736   3.783   9.699
10416WAT     H231491   4.582   3.812   9.653
10417WAT      O31492   7.609   7.838   2.365
10417WAT     H131493   7.564   7.886   2.289
10417WAT     H231494   7.599   7.739   2.352
10418WAT      O31495   7.498   4.357   4.214
10418WAT     H131496   7.416   4.334   4.266
10418WAT     H231497   7.493   4.451   4.181
10419WAT      O31498   5.573   4.040   8.695
10419WAT     H131499   5.477   4.052   8.723
10419WAT     H231500   5.589   3.943   8.675
10420WAT      O31501   6.079   3.225   6.637
10420WAT     H131502   6.076   3.125   6.645
10420WAT     H231503   6.133   3.262   6.713
10421WAT      O31504   6.884   4.675   0.051
10421WAT     H131505   6.824   4.749   0.023
10421WAT     H231506   6.974   4.711   0.073
10422WAT      O31507   4.166   2.796   5.665
10422WAT     H131508   4.073   2.791   5.700
10422WAT     H231509   4.217   2.868   5.714
10423WAT      O31510   6.507   5.038   6.503
10423WAT     H131511   6.531   5.134   6.521
10423WAT     H231512   6.419   5.018   6.546
10424WAT      O31513   7.788   7.866   4.028
10424WAT     H131514   7.814   7.940   4.090
10424WAT     H231515   7.860   7.797   4.025
10425WAT      O31516   7.368   6.190   5.253
10425WAT     H131517   7.369   6.202   5.154
10425WAT     H231518   7.358   6.092   5.274
10426WAT      O31519   6.012   7.706   3.111
10426WAT     H131520   5.939   7.775   3.115
10426WAT     H231521   6.097   7.750   3.081
10427WAT      O31522   0.641   5.808   9.106
10427WAT     H131523   0.544   5.806   9.129
10427WAT     H231524   0.693   5.756   9.175
10428WAT      O31525   2.124   8.627   3.295
10428WAT     H131526   2.162   8.716   3.320
10428WAT     H231527   2.195   8.557   3.307
10429WAT      O31528   0.175   9.231   5.756
10429WAT     H131529   0.260   9.244   5.806
10429WAT     H231530   0.098   9.265   5.810
10430WAT      O31531   7.974   7.261   3.371
10430WAT     H131532   7.889   7.308   3.347
10430WAT     H231533   7.952   7.179   3.425
10431WAT      O31534   6.651   8.155   7.115
10431WAT     H131535   6.572   8.159   7.177
10431WAT     H231536   6.731   8.122   7.166
10432WAT      O31537   9.525   5.671   6.106
10432WAT     H131538   9.442   5.627   6.141
10432WAT     H231539   9.524   5.669   6.006
10433WAT      O31540   7.536   9.690   8.289
10433WAT     H131541   7.567   9.630   8.363
10433WAT     H231542   7.616   9.729   8.242
10434WAT      O31543   4.816   4.994   7.189
10434WAT     H131544   4.828   5.039   7.100
10434WAT     H231545   4.807   5.064   7.260
10435WAT      O31546   1.131   4.987   9.588
10435WAT     H131547   1.166   5.062   9.643
10435WAT     H231548   1.178   4.902   9.612
10436WAT      O31549   7.787   7.984   8.956
10436WAT     H131550   7.872   8.034   8.938
10436WAT     H231551   7.713   8.049   8.971
10437WAT      O31552   7.418   4.489   8.234
10437WAT     H131553   7.479   4.419   8.196
10437WAT     H231554   7.461   4.533   8.312
10438WAT      O31555   6.254   8.773   4.730
10438WAT     H131556   6.246   8.776   4.630
10438WAT     H231557   6.181   8.716   4.768
10439WAT      O31558   8.354   2.574   6.159
10439WAT     H131559   8.397   2.556   6.070
10439WAT     H231560   8.254   2.578   6.147
10440WAT      O31561   3.624   6.519   5.157
10440WAT     H131562   3.679   6.442   5.188
10440WAT     H231563   3.646   6.600   5.210
10441WAT      O31564   4.746   6.106   9.703
10441WAT     H131565   4.712   6.133   9.613
10441WAT     H231566   4.830   6.053   9.692
10442WAT      O31567   5.696   5.317   4.856
10442WAT     H131568   5.683   5.266   4.771
10442WAT     H231569   5.781   5.369   4.851
10443WAT      O31570   3.168   8.056   7.614
10443WAT     H131571   3.115   8.089   7.692
10443WAT     H231572   3.266   8.064   7.635
10444WAT      O31573   0.858   1.895   3.527
10444WAT     H131574   0.892   1.849   3.444
10444WAT     H231575   0.936   1.922   3.583
10445WAT      O31576   0.096   0.886   8.804
10445WAT     H131577   0.163   0.926   8.743
10445WAT     H231578   0.142   0.839   8.879
10446WAT      O31579   0.226   7.007   8.642
10446WAT     H131580   0.226   6.945   8.721
10446WAT     H231581   0.194   7.098   8.671
10447WAT      O31582   0.156   0.519   0.761
10447WAT     H131583   0.097   0.598   0.775
10447WAT     H231584   0.100   0.440   0.736
10448WAT      O31585   7.362   6.626   3.410
10448WAT     H131586   7.276   6.575   3.420
10448WAT     H231587   7.402   6.608   3.320
10449WAT      O31588   1.587   0.004   7.725
10449WAT     H131589   1.659   0.035   7.663
10449WAT     H231590   1.625  -0.007   7.817
10450WAT      O31591   2.316   6.141   2.840
10450WAT     H131592   2.372   6.208   2.886
10450WAT     H231593   2.306   6.060   2.897
10451WAT      O31594   8.345   3.065   4.476
10451WAT     H131595   8.301   3.111   4.554
10451WAT     H231596   8.275   3.044   4.407
10452WAT      O31597   2.052   2.302   8.411
10452WAT     H131598   2.113   2.228   8.439
10452WAT     H231599   2.075   2.385   8.462
10453WAT      O31600   4.783   3.910   5.374
10453WAT     H131601   4.711   3.966   5.413
10453WAT     H231602   4.823   3.956   5.294
10454WAT      O31603   2.847   3.342   1.682
10454WAT     H131604   2.945   3.358   1.692
10454WAT     H231605   2.831   3.272   1.612
10455WAT      O31606   6.130   2.636   1.554
10455WAT     H131607   6.030   2.628   1.552
10455WAT     H231608   6.157   2.723   1.514
10456WAT      O31609   4.080   1.286   4.548
10456WAT     H131610   4.170   1.326   4.532
10456WAT     H231611   4.014   1.324   4.483
10457WAT      O31612   7.882   4.112   3.285
10457WAT     H131613   7.839   4.030   3.247
10457WAT     H231614   7.824   4.191   3.266
10458WAT      O31615   8.848   6.885   6.134
10458WAT     H131616   8.859   6.889   6.035
10458WAT     H231617   8.938   6.885   6.178
10459WAT      O31618   3.267   7.354   3.100
10459WAT     H131619   3.353   7.350   3.049
10459WAT     H231620   3.237   7.449   3.106
10460WAT      O31621   5.624   1.414   4.247
10460WAT     H131622   5.664   1.334   4.201
10460WAT     H231623   5.525   1.403   4.253
10461WAT      O31624   4.173   8.365   4.100
10461WAT     H131625   4.158   8.427   4.178
10461WAT     H231626   4.195   8.274   4.135
10462WAT      O31627   4.448   5.092   6.924
10462WAT     H131628   4.381   5.017   6.915
10462WAT     H231629   4.523   5.077   6.860
10463WAT      O31630   6.539   6.024   9.492
10463WAT     H131631   6.495   5.935   9.481
10463WAT     H231632   6.540   6.072   9.405
10464WAT      O31633   5.014   5.708   7.795
10464WAT     H131634   4.923   5.680   7.764
10464WAT     H231635   5.047   5.783   7.737
10465WAT      O31636   7.833   5.272   7.286
10465WAT     H131637   7.829   5.178   7.251
10465WAT     H231638   7.750   5.321   7.259
10466WAT      O31639   8.917   7.316   0.775
10466WAT     H131640   9.005   7.359   0.755
10466WAT     H231641   8.846   7.358   0.720
10467WAT      O31642   8.268   7.721   2.168
10467WAT     H131643   8.169   7.714   2.173
10467WAT     H231644   8.294   7.816   2.152
10468WAT      O31645   9.716   1.001   6.432
10468WAT     H131646   9.735   0.905   6.409
10468WAT     H231647   9.743   1.020   6.526
10469WAT      O31648   8.019   7.036   4.202
10469WAT     H131649   8.029   7.009   4.107
10469WAT     H231650   7.977   7.127   4.207
10470WAT      O31651   2.860   1.721   2.328
10470WAT     H131652   2.801   1.693   2.253
10470WAT     H231653   2.842   1.817   2.351
10471WAT      O31654   9.438   4.845   6.764
10471WAT     H131655   9.517   4.906   6.759
10471WAT     H231656   9.427   4.812   6.857
10472WAT      O31657   9.015   7.503   2.854
10472WAT     H131658   9.057   7.592   2.868
10472WAT     H231659   8.949   7.508   2.778
10473WAT      O31660   7.820   6.609   9.275
10473WAT     H131661   7.885   6.561   9.333
10473WAT     H231662   7.835   6.584   9.179
10474WAT      O31663   5.098   4.993   2.744
10474WAT     H131664   5.070   4.923   2.810
10474WAT     H231665   5.182   5.037   2.776
10475WAT      O31666   2.932   9.137   7.416
10475WAT     H131667   2.939   9.088   7.329
10475WAT     H231668   2.912   9.072   7.490
10476WAT      O31669   6.002   2.371   3.403
10476WAT     H131670   5.985   2.415   3.315
10476WAT     H231671   5.916   2.340   3.442
10477WAT      O31672   9.627   6.063   5.515
10477WAT     H131673   9.650   6.130   5.585
10477WAT     H231674   9.549   6.096   5.461
10478WAT      O31675   6.887   8.104   0.033
10478WAT     H131676   6.947   8.032   0.067
10478WAT     H231677   6.921   8.193   0.063
10479WAT      O31678   8.142   6.378   3.048
10479WAT     H131679   8.177   6.446   2.984
10479WAT     H231680   8.196   6.379   3.132
10480WAT      O31681   0.522   7.952   6.190
10480WAT     H131682   0.539   7.965   6.092
10480WAT     H231683   0.462   7.873   6.203
10481WAT      O31684   7.110   1.532   7.987
10481WAT     H131685   7.179   1.467   7.957
10481WAT     H231686   7.020   1.504   7.954
10482WAT      O31687   1.632   7.965   5.908
10482WAT     H131688   1.614   8.046   5.852
10482WAT     H231689   1.725   7.933   5.890
10483WAT      O31690   6.821   6.951   7.498
10483WAT     H131691   6.767   6.933   7.416
10483WAT     H231692   6.783   6.900   7.575
10484WAT      O31693   7.258   8.271   1.185
10484WAT     H131694   7.318   8.342   1.149
10484WAT     H231695   7.301   8.228   1.264
10485WAT      O31696   8.525   8.731   4.016
10485WAT     H131697   8.432   8.704   4.041
10485WAT     H231698   8.586   8.653   4.030
10486WAT      O31699   5.794   2.628   6.956
10486WAT     H131700   5.716   2.689   6.941
10486WAT     H231701   5.782   2.580   7.043
10487WAT      O31702   3.997   6.234   2.286
10487WAT     H131703   3.998   6.329   2.253
10487WAT     H231704   3.921   6.222   2.349
10488WAT      O31705   3.956   4.649   6.304
10488WAT     H131706   4.022   4.706   6.255
10488WAT     H231707   3.915   4.701   6.379
10489WAT      O31708   2.265   0.888   0.022
10489WAT     H131709   2.294   0.842   0.107
10489WAT     H231710   2.344   0.895  -0.039
10490WAT      O31711   1.041   8.410   2.405
10490WAT     H131712   0.951   8.382   2.371
10490WAT     H231713   1.060   8.504   2.376
10491WAT      O31714   4.818   3.389   4.876
10491WAT     H131715   4.861   3.438   4.800
10491WAT     H231716   4.735   3.438   4.904
10492WAT      O31717   0.892   5.316   5.289
10492WAT     H131718   0.848   5.337   5.202
10492WAT     H231719   0.942   5.229   5.281
10493WAT      O31720   5.645   8.738   0.493
10493WAT     H131721   5.653   8.643   0.522
10493WAT     H231722   5.550   8.758   0.471
10494WAT      O31723   6.637   0.731   7.415
10494WAT     H131724   6.626   0.739   7.316
10494WAT     H231725   6.552   0.698   7.456
10495WAT      O31726   7.539   6.615   3.598
10495WAT     H131727   7.626   6.579   3.563
10495WAT     H231728   7.479   6.638   3.522
10496WAT      O31729   0.221   8.196   5.910
10496WAT     H131730   0.151   8.174   5.843
10496WAT     H231731   0.262   8.112   5.945
10497WAT      O31732   5.761   7.558   0.968
10497WAT     H131733   5.671   7.571   1.011
10497WAT     H231734   5.825   7.519   1.034
10498WAT      O31735   6.966   6.111   2.909
10498WAT     H131736   6.924   6.138   2.996
10498WAT     H231737   6.981   6.193   2.853
10499WAT      O31738   2.510   7.406   1.118
10499WAT     H131739   2.479   7.331   1.177
10499WAT     H231740   2.520   7.489   1.172
10500WAT      O31741   3.286   6.415   3.687
10500WAT     H131742   3.374   6.426   3.643
10500WAT     H231743   3.213   6.440   3.623
10501WAT      O31744   8.851   1.450   4.581
10501WAT     H131745   8.772   1.449   4.519
10501WAT     H231746   8.929   1.405   4.537
10502WAT      O31747   5.788   2.094   1.742
10502WAT     H131748   5.867   2.102   1.681
10502WAT     H231749   5.743   2.183   1.751
10503WAT      O31750   5.099   3.725   4.330
10503WAT     H131751   5.074   3.775   4.247
10503WAT     H231752   5.186   3.760   4.365
10504WAT      O31753   4.415   5.215   0.281
10504WAT     H131754   4.358   5.156   0.224
10504WAT     H231755   4.494   5.163   0.314
10505WAT      O31756   4.275   8.522   5.111
10505WAT     H131757   4.234   8.613   5.106
10505WAT     H231758   4.352   8.524   5.175
10506WAT      O31759   8.372   0.011   1.602
10506WAT     H131760   8.333   0.035   1.513
10506WAT     H231761   8.332  -0.075   1.633
10507WAT      O31762   1.218   7.113   3.886
10507WAT     H131763   1.304   7.135   3.839
10507WAT     H231764   1.225   7.135   3.983
10508WAT      O31765   8.043   6.252   6.661
10508WAT     H131766   7.996   6.341   6.661
10508WAT     H231767   8.034   6.210   6.571
10509WAT      O31768   9.733   4.979   1.447
10509WAT     H131769   9.760   5.020   1.534
10509WAT     H231770   9.815   4.957   1.393
10510WAT      O31771   5.356   6.656   8.524
10510WAT     H131772   5.330   6.746   8.488
10510WAT     H231773   5.436   6.666   8.583
10511WAT      O31774   6.659   0.495   5.924
10511WAT     H131775   6.745   0.444   5.928
10511WAT     H231776   6.642   0.540   6.012
10512WAT      O31777   2.393   7.077   7.592
10512WAT     H131778   2.324   7.150   7.601
10512WAT     H231779   2.351   6.989   7.614
10513WAT      O31780   8.236   0.231   8.820
10513WAT     H131781   8.174   0.165   8.861
10513WAT     H231782   8.232   0.317   8.871
10514WAT      O31783   5.698   3.055   3.612
10514WAT     H131784   5.691   2.999   3.529
10514WAT     H231785   5.681   2.998   3.692
10515WAT      O31786   4.172   5.523   1.636
10515WAT     H131787   4.219   5.523   1.547
10515WAT     H231788   4.135   5.614   1.654
10516WAT      O31789   9.802   4.263   1.132
10516WAT     H131790   9.870   4.216   1.188
10516WAT     H231791   9.795   4.358   1.162
10517WAT      O31792   3.878   6.316   2.764
10517WAT     H131793   3.801   6.285   2.820
10517WAT     H231794   3.851   6.319   2.668
10518WAT      O31795   2.513   1.641   0.809
10518WAT     H131796   2.540   1.636   0.906
10518WAT     H231797   2.416   1.662   0.803
10519WAT      O31798   2.881   9.399   6.721
10519WAT     H131799   2.844   9.318   6.767
10519WAT     H231800   2.808   9.466   6.708
10520WAT      O31801   2.912   9.503   7.295
10520WAT     H131802   2.851   9.438   7.341
10520WAT     H231803   3.007   9.471   7.302
10521WAT      O31804   0.654   1.715   7.057
10521WAT     H131805   0.575   1.741   7.002
10521WAT     H231806   0.730   1.777   7.038
10522WAT      O31807   1.753   6.057   8.410
10522WAT     H131808   1.712   6.073   8.321
10522WAT     H231809   1.794   5.965   8.412
10523WAT      O31810   0.902   9.047   8.335
10523WAT     H131811   0.979   9.068   8.275
10523WAT     H231812   0.835   8.991   8.285
10524WAT      O31813   1.897   8.853   7.701
10524WAT     H131814   1.984   8.827   7.660
10524WAT     H231815   1.848   8.771   7.731
10525WAT      O31816   7.078   1.534   8.916
10525WAT     H131817   7.175   1.524   8.893
10525WAT     H231818   7.036   1.444   8.921
10526WAT      O31819   9.544   6.582   8.754
10526WAT     H131820   9.459   6.610   8.798
10526WAT     H231821   9.596   6.523   8.816
10527WAT      O31822   4.915   4.637   8.602
10527WAT     H131823   4.929   4.539   8.610
10527WAT     H231824   4.904   4.662   8.506
10528WAT      O31825   3.529   1.038   2.880
10528WAT     H131826   3.602   1.087   2.831
10528WAT     H231827   3.558   1.020   2.974
10529WAT      O31828   7.116   2.870   4.221
10529WAT     H131829   7.064   2.931   4.161
10529WAT     H231830   7.086   2.776   4.207
10530WAT      O31831   1.987   0.795   6.378
10530WAT     H131832   1.924   0.827   6.450
10530WAT     H231833   1.939   0.796   6.290
10531WAT      O31834   2.768   4.231   0.313
10531WAT     H131835   2.831   4.207   0.387
10531WAT     H231836   2.674   4.225   0.346
10532WAT      O31837   9.075   3.316   4.040
10532WAT     H131838   8.984   3.354   4.053
10532WAT     H231839   9.103   3.329   3.945
10533WAT      O31840   4.900   3.704   1.994
10533WAT     H131841   4.940   3.742   1.911
10533WAT     H231842   4.854   3.618   1.973
10534WAT      O31843   8.031   7.840   4.493
10534WAT     H131844   7.936   7.868   4.475
10534WAT     H231845   8.031   7.759   4.551
10535WAT      O31846   0.798   9.174   1.508
10535WAT     H131847   0.756   9.245   1.566
10535WAT     H231848   0.823   9.214   1.420
10536WAT      O31849   2.196   6.595   2.682
10536WAT     H131850   2.218   6.609   2.585
10536WAT     H231851   2.197   6.683   2.729
10537WAT      O31852   0.480   1.319   0.120
10537WAT     H131853   0.492   1.251   0.048
10537WAT     H231854   0.494   1.411   0.082
10538WAT      O31855   2.880   9.053   6.519
10538WAT     H131856   2.784   9.067   6.492
10538WAT     H231857   2.884   8.992   6.598
10539WAT      O31858   6.471   9.140   8.603
10539WAT     H131859   6.516   9.058   8.567
10539WAT     H231860   6.495   9.218   8.545
10540WAT      O31861   4.989   5.675   2.286
10540WAT     H131862   5.043   5.592   2.294
10540WAT     H231863   4.896   5.659   2.320
10541WAT      O31864   6.775   5.628   4.646
10541WAT     H131865   6.838   5.692   4.691
10541WAT     H231866   6.716   5.679   4.583
10542WAT      O31867   8.750   0.484   7.187
10542WAT     H131868   8.784   0.577   7.174
10542WAT     H231869   8.818   0.430   7.236
10543WAT      O31870   3.685   8.096   9.720
10543WAT     H131871   3.604   8.077   9.776
10543WAT     H231872   3.672   8.055   9.629
10544WAT      O31873   2.068   6.276   0.086
10544WAT     H131874   2.093   6.243  -0.005
10544WAT     H231875   2.137   6.342   0.117
10545WAT      O31876   9.325   0.316   5.796
10545WAT     H131877   9.340   0.219   5.814
10545WAT     H231878   9.363   0.370   5.871
10546WAT      O31879   1.471   7.449   3.097
10546WAT     H131880   1.391   7.405   3.137
10546WAT     H231881   1.548   7.443   3.161
10547WAT      O31882   0.828   2.013   3.807
10547WAT     H131883   0.773   1.957   3.869
10547WAT     H231884   0.774   2.091   3.777
10548WAT      O31885   4.677   6.713   2.256
10548WAT     H131886   4.669   6.681   2.161
10548WAT     H231887   4.774   6.729   2.277
10549WAT      O31888   3.117   5.579   1.613
10549WAT     H131889   3.104   5.649   1.684
10549WAT     H231890   3.129   5.490   1.657
10550WAT      O31891   1.333   9.381   1.621
10550WAT     H131892   1.406   9.334   1.671
10550WAT     H231893   1.254   9.393   1.681
10551WAT      O31894   4.383   4.794   6.823
10551WAT     H131895   4.444   4.733   6.873
10551WAT     H231896   4.303   4.815   6.879
10552WAT      O31897   1.469   4.765   4.774
10552WAT     H131898   1.563   4.732   4.761
10552WAT     H231899   1.458   4.854   4.730
10553WAT      O31900   6.180   8.610   1.123
10553WAT     H131901   6.097   8.662   1.142
10553WAT     H231902   6.211   8.629   1.030
10554WAT      O31903   2.921   8.242   3.029
10554WAT     H131904   3.005   8.189   3.028
10554WAT     H231905   2.913   8.294   2.944
10555WAT      O31906   6.902   6.150   9.757
10555WAT     H131907   6.807   6.121   9.747
10555WAT     H231908   6.924   6.217   9.686
10556WAT      O31909   2.605   6.251   9.596
10556WAT     H131910   2.699   6.267   9.565
10556WAT     H231911   2.575   6.161   9.563
10557WAT      O31912   0.020   7.723   7.986
10557WAT     H131913  -0.071   7.764   7.987
10557WAT     H231914   0.089   7.794   7.995
10558WAT      O31915   1.276   2.981   6.503
10558WAT     H131916   1.336   2.960   6.580
10558WAT     H231917   1.182   2.956   6.527
10559WAT      O31918   4.264   7.171   9.134
10559WAT     H131919   4.229   7.262   9.111
10559WAT     H231920   4.357   7.162   9.099
10560WAT      O31921   3.816   0.796   4.035
10560WAT     H131922   3.836   0.875   4.093
10560WAT     H231923   3.885   0.790   3.963
10561WAT      O31924   5.905   3.900   8.907
10561WAT     H131925   5.810   3.894   8.878
10561WAT     H231926   5.964   3.863   8.835
10562WAT      O31927   1.748   9.452   2.951
10562WAT     H131928   1.656   9.447   2.913
10562WAT     H231929   1.815   9.448   2.876
10563WAT      O31930   7.881   7.714   7.513
10563WAT     H131931   7.817   7.757   7.449
10563WAT     H231932   7.843   7.720   7.606
10564WAT      O31933   1.011   6.710   5.301
10564WAT     H131934   0.933   6.692   5.241
10564WAT     H231935   1.060   6.624   5.318
10565WAT      O31936   5.132   3.732   8.941
10565WAT     H131937   5.229   3.717   8.920
10565WAT     H231938   5.090   3.645   8.967
10566WAT      O31939   6.930   5.464   6.675
10566WAT     H131940   6.831   5.471   6.662
10566WAT     H231941   6.975   5.472   6.586
10567WAT      O31942   4.332   2.230   2.901
10567WAT     H131943   4.309   2.326   2.883
10567WAT     H231944   4.250   2.174   2.892
10568WAT      O31945   7.309   3.509   0.353
10568WAT     H131946   7.209   3.502   0.344
10568WAT     H231947   7.349   3.417   0.351
10569WAT      O31948   0.692   2.123   7.484
10569WAT     H131949   0.790   2.114   7.498
10569WAT     H231950   0.651   2.173   7.561
10570WAT      O31951   3.233   2.319   5.166
10570WAT     H131952   3.292   2.342   5.244
10570WAT     H231953   3.272   2.241   5.116
10571WAT      O31954   4.641   0.717   1.836
10571WAT     H131955   4.668   0.669   1.753
10571WAT     H231956   4.549   0.753   1.826
10572WAT      O31957   9.288   1.363   7.264
10572WAT     H131958   9.384   1.344   7.245
10572WAT     H231959   9.281   1.425   7.342
10573WAT      O31960   2.741   0.834   4.655
10573WAT     H131961   2.704   0.786   4.734
10573WAT     H231962   2.825   0.883   4.682
10574WAT      O31963   3.388   7.636   8.331
10574WAT     H131964   3.377   7.692   8.413
10574WAT     H231965   3.297   7.607   8.298
10575WAT      O31966   5.530   3.898   0.608
10575WAT     H131967   5.475   3.844   0.671
10575WAT     H231968   5.554   3.985   0.650
10576WAT      O31969   7.384   0.345   1.657
10576WAT     H131970   7.344   0.297   1.735
10576WAT     H231971   7.412   0.279   1.587
10577WAT      O31972   7.938   4.048   7.833
10577WAT     H131973   7.968   4.134   7.792
10577WAT     H231974   8.018   3.996   7.863
10578WAT      O31975   8.798   9.524   4.282
10578WAT     H131976   8.880   9.503   4.335
10578WAT     H231977   8.823   9.583   4.204
10579WAT      O31978   2.406   2.073   4.833
10579WAT     H131979   2.346   2.018   4.775
10579WAT     H231980   2.471   2.013   4.880
10580WAT      O31981   4.413   1.369   2.596
10580WAT     H131982   4.441   1.291   2.651
10580WAT     H231983   4.392   1.338   2.503
10581WAT      O31984   4.834   0.010   1.679
10581WAT     H131985   4.851   0.108   1.668
10581WAT     H231986   4.917  -0.034   1.712
10582WAT      O31987   6.337   3.249   9.766
10582WAT     H131988   6.337   3.300   9.680
10582WAT     H231989   6.405   3.176   9.760
10583WAT      O31990   4.289   4.259   1.160
10583WAT     H131991   4.214   4.319   1.134
10583WAT     H231992   4.292   4.250   1.260
10584WAT      O31993   0.127   7.247   8.217
10584WAT     H131994   0.110   7.343   8.195
10584WAT     H231995   0.046   7.208   8.261
10585WAT      O31996   1.785   5.241   3.257
10585WAT     H131997   1.690   5.231   3.286
10585WAT     H231998   1.819   5.153   3.223
10586WAT      O31999   9.827   8.412   9.646
10586WAT     H132000   9.821   8.494   9.589
10586WAT     H232001   9.771   8.424   9.728
10587WAT      O32002   4.435   1.201   1.235
10587WAT     H132003   4.339   1.193   1.263
10587WAT     H232004   4.455   1.133   1.164
10588WAT      O32005   9.450   1.381   1.651
10588WAT     H132006   9.546   1.398   1.672
10588WAT     H232007   9.413   1.315   1.716
10589WAT      O32008   5.050   5.996   6.412
10589WAT     H132009   5.102   5.924   6.366
10589WAT     H232010   4.998   6.048   6.345
10590WAT      O32011   8.526   5.964   4.944
10590WAT     H132012   8.457   6.015   4.893
10590WAT     H232013   8.517   5.866   4.924
10591WAT      O32014   1.168   1.156   0.725
10591WAT     H132015   1.092   1.091   0.726
10591WAT     H232016   1.253   1.108   0.748
10592WAT      O32017   1.404   0.116   0.424
10592WAT     H132018   1.468   0.090   0.496
10592WAT     H232019   1.350   0.036   0.398
10593WAT      O32020   8.708   8.700   2.462
10593WAT     H132021   8.763   8.732   2.385
10593WAT     H232022   8.616   8.739   2.456
10594WAT      O32023   4.549   0.398   2.573
10594WAT     H132024   4.509   0.311   2.601
10594WAT     H232025   4.594   0.387   2.484
10595WAT      O32026   0.361   4.097   3.976
10595WAT     H132027   0.335   4.049   3.893
10595WAT     H232028   0.399   4.032   4.042
10596WAT      O32029   9.618   5.782   8.461
10596WAT     H132030   9.651   5.741   8.546
10596WAT     H232031   9.662   5.738   8.383
10597WAT      O32032   6.201   0.610   5.984
10597WAT     H132033   6.130   0.659   5.933
10597WAT     H232034   6.218   0.522   5.940
10598WAT      O32035   7.713   8.209   5.993
10598WAT     H132036   7.691   8.118   6.027
10598WAT     H232037   7.808   8.211   5.963
10599WAT      O32038   9.827   1.087   5.001
10599WAT     H132039   9.779   1.158   5.053
10599WAT     H232040   9.924   1.088   5.024
10600WAT      O32041   7.668   6.374   7.907
10600WAT     H132042   7.735   6.404   7.839
10600WAT     H232043   7.631   6.453   7.956
10601WAT      O32044   1.312   0.300   3.796
10601WAT     H132045   1.349   0.387   3.765
10601WAT     H232046   1.230   0.278   3.744
10602WAT      O32047   5.865   0.786   8.161
10602WAT     H132048   5.877   0.882   8.189
10602WAT     H232049   5.953   0.750   8.131
10603WAT      O32050   7.944   6.719   4.634
10603WAT     H132051   7.885   6.712   4.714
10603WAT     H232052   7.894   6.690   4.553
10604WAT      O32053   4.897   7.856   0.073
10604WAT     H132054   4.845   7.940   0.092
10604WAT     H232055   4.913   7.808   0.159
10605WAT      O32056   4.502   8.801   5.146
10605WAT     H132057   4.410   8.778   5.114
10605WAT     H232058   4.567   8.790   5.071
10606WAT      O32059   4.555   4.642   6.953
10606WAT     H132060   4.612   4.561   6.959
10606WAT     H232061   4.576   4.704   7.029
10607WAT      O32062   7.796   0.516   9.632
10607WAT     H132063   7.815   0.417   9.635
10607WAT     H232064   7.706   0.532   9.592
10608WAT      O32065   8.689   6.460   2.904
10608WAT     H132066   8.612   6.451   2.841
10608WAT     H232067   8.757   6.522   2.865
10609WAT      O32068   6.636   1.459   2.970
10609WAT     H132069   6.685   1.529   2.919
10609WAT     H232070   6.654   1.369   2.930
10610WAT      O32071   1.858   4.504   9.359
10610WAT     H132072   1.831   4.595   9.326
10610WAT     H232073   1.954   4.488   9.338
10611WAT      O32074   6.892   1.264   6.148
10611WAT     H132075   6.834   1.338   6.182
10611WAT     H232076   6.927   1.211   6.225
10612WAT      O32077   9.309   8.225   5.492
10612WAT     H132078   9.397   8.266   5.472
10612WAT     H232079   9.313   8.126   5.476
10613WAT      O32080   9.748   0.914   6.720
10613WAT     H132081   9.801   0.849   6.665
10613WAT     H232082   9.767   0.897   6.817
10614WAT      O32083   7.930   2.847   4.373
10614WAT     H132084   7.918   2.937   4.416
10614WAT     H232085   7.841   2.805   4.358
10615WAT      O32086   4.686   7.811   9.217
10615WAT     H132087   4.662   7.729   9.270
10615WAT     H232088   4.615   7.880   9.229
10616WAT      O32089   5.770   9.667   3.990
10616WAT     H132090   5.788   9.634   4.082
10616WAT     H232091   5.841   9.633   3.928
10617WAT      O32092   7.829   0.891   9.638
10617WAT     H132093   7.729   0.879   9.637
10617WAT     H232094   7.869   0.826   9.703
10618WAT      O32095   6.329   9.091   5.941
10618WAT     H132096   6.290   9.123   5.855
10618WAT     H232097   6.278   9.128   6.018
10619WAT      O32098   3.894   2.146   0.507
10619WAT     H132099   3.887   2.118   0.411
10619WAT     H232100   3.970   2.098   0.550
10620WAT      O32101   2.676   9.115   9.875
10620WAT     H132102   2.663   9.155   9.966
10620WAT     H232103   2.731   9.177   9.819
10621WAT      O32104   2.643   5.638   9.267
10621WAT     H132105   2.554   5.594   9.254
10621WAT     H232106   2.715   5.577   9.235
10622WAT      O32107   0.085   0.708   4.978
10622WAT     H132108   0.033   0.768   5.039
10622WAT     H232109   0.180   0.702   5.009
10623WAT      O32110   6.542   7.424   3.614
10623WAT     H132111   6.594   7.510   3.610
10623WAT     H232112   6.571   7.364   3.538
10624WAT      O32113   5.305   7.200   1.276
10624WAT     H132114   5.321   7.113   1.322
10624WAT     H232115   5.392   7.244   1.257
10625WAT      O32116   0.406   8.584   7.388
10625WAT     H132117   0.445   8.505   7.341
10625WAT     H232118   0.307   8.573   7.394
10626WAT      O32119   0.555   4.360   5.618
10626WAT     H132120   0.552   4.272   5.667
10626WAT     H232121   0.516   4.431   5.677
10627WAT      O32122   6.495   5.990   0.440
10627WAT     H132123   6.523   6.025   0.351
10627WAT     H232124   6.569   5.936   0.480
10628WAT      O32125   3.088   6.937   7.373
10628WAT     H132126   3.147   7.001   7.423
10628WAT     H232127   3.054   6.981   7.291
10629WAT      O32128   8.450   3.488   1.159
10629WAT     H132129   8.459   3.583   1.189
10629WAT     H232130   8.541   3.448   1.145
10630WAT      O32131   8.168   7.450   6.012
10630WAT     H132132   8.142   7.541   5.979
10630WAT     H232133   8.248   7.418   5.962
10631WAT      O32134   0.312   3.221   5.515
10631WAT     H132135   0.259   3.142   5.546
10631WAT     H232136   0.393   3.232   5.573
10632WAT      O32137   7.665   0.523   6.192
10632WAT     H132138   7.693   0.427   6.197
10632WAT     H232139   7.592   0.540   6.258
10633WAT      O32140   8.714   2.961   2.232
10633WAT     H132141   8.718   2.964   2.132
10633WAT     H232142   8.651   2.889   2.261
10634WAT      O32143   3.914   5.470   7.045
10634WAT     H132144   3.969   5.497   7.125
10634WAT     H232145   3.839   5.535   7.033
10635WAT      O32146   6.229   1.411   8.383
10635WAT     H132147   6.250   1.322   8.423
10635WAT     H232148   6.209   1.400   8.286
10636WAT      O32149   7.561   1.087   3.978
10636WAT     H132150   7.604   1.082   3.888
10636WAT     H232151   7.462   1.073   3.969
10637WAT      O32152   6.791   9.072   6.590
10637WAT     H132153   6.713   9.097   6.533
10637WAT     H232154   6.876   9.089   6.540
10638WAT      O32155   2.439   8.751   4.638
10638WAT     H132156   2.375   8.765   4.563
10638WAT     H232157   2.402   8.682   4.701
10639WAT      O32158   5.397   4.851   2.129
10639WAT     H132159   5.480   4.879   2.177
10639WAT     H232160   5.363   4.927   2.073
10640WAT      O32161   8.086   3.740   0.552
10640WAT     H132162   8.159   3.731   0.620
10640WAT     H232163   8.045   3.831   0.559
10641WAT      O32164   9.749   9.648   4.258
10641WAT     H132165   9.817   9.603   4.200
10641WAT     H232166   9.786   9.734   4.291
10642WAT      O32167   5.325   7.506   5.821
10642WAT     H132168   5.311   7.575   5.749
10642WAT     H232169   5.240   7.493   5.872
10643WAT      O32170   0.256   1.154   0.172
10643WAT     H132171   0.335   1.213   0.156
10643WAT     H232172   0.275   1.095   0.251
10644WAT      O32173   8.479   7.140   6.036
10644WAT     H132174   8.484   7.082   6.117
10644WAT     H232175   8.511   7.090   5.956
10645WAT      O32176   8.477   7.563   2.449
10645WAT     H132177   8.389   7.518   2.463
10645WAT     H232178   8.549   7.507   2.490
10646WAT      O32179   5.092   4.500   5.981
10646WAT     H132180   5.035   4.465   6.056
10646WAT     H232181   5.082   4.599   5.975
10647WAT      O32182   9.862   2.236   5.109
10647WAT     H132183   9.771   2.211   5.144
10647WAT     H232184   9.884   2.178   5.031
10648WAT      O32185   5.683   0.171   0.182
10648WAT     H132186   5.683   0.222   0.268
10648WAT     H232187   5.757   0.204   0.124
10649WAT      O32188   3.379   4.241   1.360
10649WAT     H132189   3.302   4.294   1.324
10649WAT     H232190   3.348   4.180   1.432
10650WAT      O32191   0.571   7.166   5.680
10650WAT     H132192   0.514   7.134   5.605
10650WAT     H232193   0.523   7.153   5.767
10651WAT      O32194   0.932   6.715   9.012
10651WAT     H132195   0.951   6.627   9.057
10651WAT     H232196   0.870   6.701   8.935
10652WAT      O32197   3.541   7.257   4.859
10652WAT     H132198   3.526   7.170   4.812
10652WAT     H232199   3.462   7.278   4.917
10653WAT      O32200   3.618   0.493   2.135
10653WAT     H132201   3.556   0.550   2.081
10653WAT     H232202   3.711   0.529   2.129
10654WAT      O32203   8.754   5.370   0.729
10654WAT     H132204   8.667   5.394   0.686
10654WAT     H232205   8.830   5.397   0.669
10655WAT      O32206   6.731   2.383   0.064
10655WAT     H132207   6.715   2.438  -0.017
10655WAT     H232208   6.733   2.286   0.039
10656WAT      O32209   9.356   5.708   5.093
10656WAT     H132210   9.395   5.792   5.056
10656WAT     H232211   9.274   5.729   5.146
10657WAT      O32212   3.859   0.150   2.521
10657WAT     H132213   3.815   0.224   2.570
10657WAT     H232214   3.881   0.179   2.428
10658WAT      O32215   0.648   2.670   4.107
10658WAT     H132216   0.712   2.595   4.089
10658WAT     H232217   0.611   2.661   4.199
10659WAT      O32218   3.502   2.399   6.421
10659WAT     H132219   3.461   2.424   6.509
10659WAT     H232220   3.578   2.462   6.401
10660WAT      O32221   2.618   0.423   9.119
10660WAT     H132222   2.675   0.481   9.176
10660WAT     H232223   2.628   0.449   9.023
10661WAT      O32224   9.282   2.828   5.934
10661WAT     H132225   9.184   2.838   5.918
10661WAT     H232226   9.303   2.734   5.957
10662WAT      O32227   0.860   8.277   5.262
10662WAT     H132228   0.845   8.219   5.343
10662WAT     H232229   0.911   8.358   5.288
10663WAT      O32230   6.144   1.056   0.296
10663WAT     H132231   6.197   0.996   0.235
10663WAT     H232232   6.144   1.149   0.258
10664WAT      O32233   3.083   9.006   2.851
10664WAT     H132234   3.107   9.072   2.922
10664WAT     H232235   3.045   9.054   2.772
10665WAT      O32236   1.494   5.496   4.746
10665WAT     H132237   1.433   5.499   4.667
10665WAT     H232238   1.589   5.504   4.716
10666WAT      O32239   9.502   1.303   7.856
10666WAT     H132240   9.409   1.335   7.839
10666WAT     H232241   9.535   1.340   7.943
10667WAT      O32242   1.706   4.264   1.901
10667WAT     H132243   1.785   4.232   1.955
10667WAT     H232244   1.672   4.349   1.940
10668WAT      O32245   1.148   8.449   8.496
10668WAT     H132246   1.133   8.503   8.579
10668WAT     H232247   1.202   8.368   8.519
10669WAT      O32248   6.894   5.736   7.067
10669WAT     H132249   6.982   5.774   7.097
10669WAT     H232250   6.849   5.802   7.007
10670WAT      O32251   2.148   3.998   3.585
10670WAT     H132252   2.195   4.086   3.588
10670WAT     H232253   2.088   3.989   3.665
10671WAT      O32254   7.199   8.688   8.478
10671WAT     H132255   7.297   8.671   8.477
10671WAT     H232256   7.181   8.780   8.513
10672WAT      O32257   1.062   5.589   8.303
10672WAT     H132258   1.112   5.517   8.254
10672WAT     H232259   0.969   5.557   8.323
10673WAT      O32260   1.502   4.534   8.467
10673WAT     H132261   1.420   4.482   8.489
10673WAT     H232262   1.516   4.605   8.535
10674WAT      O32263   5.369   1.962   4.628
10674WAT     H132264   5.433   2.013   4.572
10674WAT     H232265   5.380   1.988   4.724
10675WAT      O32266   1.888   3.554   8.073
10675WAT     H132267   1.826   3.476   8.082
10675WAT     H232268   1.899   3.597   8.163
10676WAT      O32269   9.837   6.428   3.817
10676WAT     H132270   9.746   6.439   3.779
10676WAT     H232271   9.832   6.430   3.917
10677WAT      O32272   5.354   6.509   6.551
10677WAT     H132273   5.360   6.446   6.628
10677WAT     H232274   5.262   6.548   6.547
10678WAT      O32275   3.127   5.055   7.906
10678WAT     H132276   3.192   5.043   7.982
10678WAT     H232277   3.036   5.027   7.936
10679WAT      O32278   6.752   4.034   3.492
10679WAT     H132279   6.774   3.967   3.421
10679WAT     H232280   6.658   4.020   3.523
10680WAT      O32281   2.086   1.896   9.743
10680WAT     H132282   2.044   1.887   9.652
10680WAT     H232283   2.090   1.806   9.787
10681WAT      O32284   5.673   9.846   3.400
10681WAT     H132285   5.593   9.805   3.357
10681WAT     H232286   5.670   9.828   3.499
10682WAT      O32287   9.782   3.375   2.423
10682WAT     H132288   9.846   3.452   2.427
10682WAT     H232289   9.697   3.406   2.380
10683WAT      O32290   8.783   0.590   6.105
10683WAT     H132291   8.808   0.670   6.052
10683WAT     H232292   8.863   0.531   6.116
10684WAT      O32293   2.751   3.703   3.200
10684WAT     H132294   2.653   3.723   3.207
10684WAT     H232295   2.787   3.684   3.291
10685WAT      O32296   7.970   7.668   3.992
10685WAT     H132297   8.020   7.596   4.040
10685WAT     H232298   7.963   7.646   3.895
10686WAT      O32299   6.888   7.219   1.654
10686WAT     H132300   6.846   7.129   1.664
10686WAT     H232301   6.907   7.235   1.557
10687WAT      O32302   4.326   0.208   8.269
10687WAT     H132303   4.285   0.135   8.323
10687WAT     H232304   4.298   0.297   8.306
10688WAT      O32305   6.050   9.512   9.360
10688WAT     H132306   5.973   9.473   9.309
10688WAT     H232307   6.043   9.485   9.456
10689WAT      O32308   0.657   7.263   3.646
10689WAT     H132309   0.655   7.335   3.576
10689WAT     H232310   0.580   7.201   3.633
10690WAT      O32311   4.011   5.925   8.515
10690WAT     H132312   3.962   5.962   8.594
10690WAT     H232313   4.095   5.880   8.546
10691WAT      O32314   6.099   7.319   8.175
10691WAT     H132315   6.107   7.395   8.240
10691WAT     H232316   6.009   7.276   8.185
10692WAT      O32317   6.628   6.484   6.045
10692WAT     H132318   6.549   6.495   6.105
10692WAT     H232319   6.603   6.511   5.952
10693WAT      O32320   1.313   7.292   9.537
10693WAT     H132321   1.255   7.349   9.595
10693WAT     H232322   1.333   7.341   9.451
10694WAT      O32323   6.079   7.721   2.502
10694WAT     H132324   6.119   7.630   2.493
10694WAT     H232325   6.090   7.771   2.416
10695WAT      O32326   8.657   2.246   5.921
10695WAT     H132327   8.654   2.210   5.827
10695WAT     H232328   8.664   2.345   5.918
10696WAT      O32329   3.670   1.420   3.721
10696WAT     H132330   3.572   1.409   3.703
10696WAT     H232331   3.717   1.439   3.635
10697WAT      O32332   5.806   9.381   3.742
10697WAT     H132333   5.852   9.323   3.674
10697WAT     H232334   5.838   9.475   3.731
10698WAT      O32335   5.519   4.260   6.998
10698WAT     H132336   5.512   4.201   7.079
10698WAT     H232337   5.612   4.252   6.960
10699WAT      O32338   2.448   2.052   6.897
10699WAT     H132339   2.350   2.056   6.878
10699WAT     H232340   2.500   2.067   6.813
10700WAT      O32341   7.325   6.885   4.490
10700WAT     H132342   7.228   6.867   4.509
10700WAT     H232343   7.372   6.905   4.576
10701WAT      O32344   0.999   9.024   1.635
10701WAT     H132345   1.093   9.057   1.632
10701WAT     H232346   0.938   9.094   1.598
10702WAT      O32347   9.504   3.485   7.036
10702WAT     H132348   9.538   3.459   6.945
10702WAT     H232349   9.565   3.445   7.106
10703WAT      O32350   4.173   7.684   0.700
10703WAT     H132351   4.151   7.720   0.790
10703WAT     H232352   4.129   7.740   0.630
10704WAT      O32353   8.296   1.924   7.162
10704WAT     H132354   8.297   1.835   7.115
10704WAT     H232355   8.207   1.939   7.204
10705WAT      O32356   5.219   3.445   5.349
10705WAT     H132357   5.176   3.407   5.267
10705WAT     H232358   5.248   3.539   5.331
10706WAT      O32359   8.328   9.308   2.957
10706WAT     H132360   8.292   9.235   3.016
10706WAT     H232361   8.280   9.307   2.870
10707WAT      O32362   5.148   1.657   7.654
10707WAT     H132363   5.162   1.688   7.748
10707WAT     H232364   5.196   1.570   7.641
10708WAT      O32365   2.232   2.945   5.447
10708WAT     H132366   2.235   2.996   5.361
10708WAT     H232367   2.195   3.004   5.519
10709WAT      O32368   8.993   7.871   8.199
10709WAT     H132369   9.075   7.925   8.181
10709WAT     H232370   8.972   7.815   8.119
10710WAT      O32371   3.543   2.940   3.616
10710WAT     H132372   3.540   2.932   3.516
10710WAT     H232373   3.608   2.874   3.653
10711WAT      O32374   5.546   0.093   4.924
10711WAT     H132375   5.458   0.122   4.885
10711WAT     H232376   5.590   0.027   4.863
10712WAT      O32377   6.248   2.167   6.392
10712WAT     H132378   6.330   2.132   6.437
10712WAT     H232379   6.250   2.141   6.295
10713WAT      O32380   1.345   6.677   9.658
10713WAT     H132381   1.309   6.705   9.569
10713WAT     H232382   1.419   6.738   9.685
10714WAT      O32383   8.143   5.480   2.401
10714WAT     H132384   8.116   5.557   2.458
10714WAT     H232385   8.070   5.411   2.401
10715WAT      O32386   4.888   4.856   7.788
10715WAT     H132387   4.937   4.781   7.833
10715WAT     H232388   4.811   4.819   7.736
10716WAT      O32389   5.088   2.660   4.693
10716WAT     H132390   5.077   2.758   4.680
10716WAT     H232391   5.059   2.634   4.785
10717WAT      O32392   3.302   0.430   6.220
10717WAT     H132393   3.350   0.510   6.257
10717WAT     H232394   3.214   0.459   6.183
10718WAT      O32395   0.636   5.647   7.500
10718WAT     H132396   0.721   5.599   7.522
10718WAT     H232397   0.568   5.581   7.467
10719WAT      O32398   2.688   2.523   7.211
10719WAT     H132399   2.705   2.617   7.182
10719WAT     H232400   2.589   2.510   7.222
10720WAT      O32401   1.904   4.569   4.541
10720WAT     H132402   1.998   4.580   4.508
10720WAT     H232403   1.860   4.494   4.490
10721WAT      O32404   0.277   5.376   6.986
10721WAT     H132405   0.192   5.351   6.941
10721WAT     H232406   0.262   5.457   7.043
10722WAT      O32407   2.536   1.072   3.025
10722WAT     H132408   2.491   1.131   2.958
10722WAT     H232409   2.634   1.091   3.026
10723WAT      O32410   4.271   0.145   5.279
10723WAT     H132411   4.363   0.124   5.314
10723WAT     H232412   4.279   0.201   5.197
10724WAT      O32413   5.215   1.925   0.507
10724WAT     H132414   5.211   1.841   0.452
10724WAT     H232415   5.209   1.901   0.604
10725WAT      O32416   6.601   3.048   8.846
10725WAT     H132417   6.548   3.115   8.794
10725WAT     H232418   6.576   3.053   8.943
10726WAT      O32419   8.330   7.894   7.476
10726WAT     H132420   8.377   7.916   7.390
10726WAT     H232421   8.395   7.857   7.542
10727WAT      O32422   1.024   8.677   7.236
10727WAT     H132423   0.991   8.698   7.328
10727WAT     H232424   1.075   8.756   7.200
10728WAT      O32425   8.317   8.309   9.857
10728WAT     H132426   8.354   8.368   9.929
10728WAT     H232427   8.252   8.245   9.897
10729WAT      O32428   1.106   1.032   9.350
10729WAT     H132429   1.101   1.007   9.254
10729WAT     H232430   1.107   0.949   9.406
10730WAT      O32431   2.419   7.232   6.472
10730WAT     H132432   2.495   7.168   6.476
10730WAT     H232433   2.436   7.308   6.534
10731WAT      O32434   8.653   5.093   7.268
10731WAT     H132435   8.635   5.088   7.367
10731WAT     H232436   8.675   5.002   7.233
10732WAT      O32437   1.855   9.341   8.705
10732WAT     H132438   1.784   9.277   8.733
10732WAT     H232439   1.818   9.433   8.700
10733WAT      O32440   9.708   0.794   2.982
10733WAT     H132441   9.687   0.799   3.080
10733WAT     H232442   9.804   0.768   2.969
10734WAT      O32443   5.441   2.798   8.564
10734WAT     H132444   5.423   2.850   8.481
10734WAT     H232445   5.481   2.858   8.633
10735WAT      O32446   2.545   8.779   1.775
10735WAT     H132447   2.626   8.837   1.781
10735WAT     H232448   2.478   8.808   1.843
10736WAT      O32449   7.547   9.336   3.615
10736WAT     H132450   7.504   9.251   3.585
10736WAT     H232451   7.477   9.406   3.629
10737WAT      O32452   7.037   1.159   1.229
10737WAT     H132453   7.037   1.239   1.289
10737WAT     H232454   7.086   1.180   1.145
10738WAT      O32455   2.205   6.233   4.462
10738WAT     H132456   2.158   6.154   4.421
10738WAT     H232457   2.288   6.253   4.410
10739WAT      O32458   2.111   8.970   8.131
10739WAT     H132459   2.116   8.895   8.065
10739WAT     H232460   2.075   9.052   8.086
10740WAT      O32461   0.283   2.957   1.692
10740WAT     H132462   0.213   2.902   1.738
10740WAT     H232463   0.368   2.904   1.687
10741WAT      O32464   0.470   5.198   4.273
10741WAT     H132465   0.441   5.281   4.227
10741WAT     H232466   0.424   5.119   4.232
10742WAT      O32467   8.936   4.277   3.788
10742WAT     H132468   9.016   4.277   3.728
10742WAT     H232469   8.885   4.192   3.775
10743WAT      O32470   5.839   1.455   9.872
10743WAT     H132471   5.905   1.517   9.916
10743WAT     H232472   5.881   1.413   9.792
10744WAT      O32473   3.209   0.059   0.439
10744WAT     H132474   3.183  -0.026   0.393
10744WAT     H232475   3.219   0.042   0.537
10745WAT      O32476   6.170   9.095   6.517
10745WAT     H132477   6.084   9.135   6.484
10745WAT     H232478   6.155   9.056   6.608
10746WAT      O32479   3.006   6.597   9.318
10746WAT     H132480   3.036   6.647   9.399
10746WAT     H232481   3.086   6.575   9.261
10747WAT      O32482   5.382   0.895   7.816
10747WAT     H132483   5.431   0.947   7.886
10747WAT     H232484   5.415   0.922   7.725
10748WAT      O32485   5.033   5.133   2.533
10748WAT     H132486   5.052   5.072   2.610
10748WAT     H232487   5.098   5.209   2.534
10749WAT      O32488   9.001   3.704   4.297
10749WAT     H132489   8.958   3.747   4.217
10749WAT     H232490   8.935   3.696   4.371
10750WAT      O32491   8.123   0.518   0.491
10750WAT     H132492   8.090   0.568   0.571
10750WAT     H232493   8.133   0.582   0.414
10751WAT      O32494   7.726   9.039   4.644
10751WAT     H132495   7.818   9.051   4.607
10751WAT     H232496   7.730   9.040   4.744
10752WAT      O32497   4.033   7.252   3.778
10752WAT     H132498   4.057   7.242   3.682
10752WAT     H232499   4.115   7.263   3.833
10753WAT      O32500   4.855   4.867   8.964
10753WAT     H132501   4.857   4.834   9.058
10753WAT     H232502   4.947   4.861   8.925
10754WAT      O32503   2.819   7.743   6.834
10754WAT     H132504   2.832   7.842   6.840
10754WAT     H232505   2.753   7.722   6.762
10755WAT      O32506   2.292   5.412   5.112
10755WAT     H132507   2.297   5.353   5.193
10755WAT     H232508   2.291   5.355   5.029
10756WAT      O32509   6.527   3.061   1.214
10756WAT     H132510   6.603   3.055   1.278
10756WAT     H232511   6.549   3.010   1.131
10757WAT      O32512   4.789   9.066   0.016
10757WAT     H132513   4.707   9.108   0.054
10757WAT     H232514   4.842   9.024   0.089
10758WAT      O32515   7.742   9.070   4.912
10758WAT     H132516   7.733   9.051   5.010
10758WAT     H232517   7.821   9.130   4.897
10759WAT      O32518   0.779   0.506   9.775
10759WAT     H132519   0.690   0.548   9.792
10759WAT     H232520   0.783   0.471   9.682
10760WAT      O32521   5.580   9.574   0.356
10760WAT     H132522   5.664   9.606   0.313
10760WAT     H232523   5.521   9.532   0.288
10761WAT      O32524   1.980   7.839   3.172
10761WAT     H132525   2.055   7.810   3.114
10761WAT     H232526   1.896   7.793   3.144
10762WAT      O32527   5.026   2.004   0.815
10762WAT     H132528   5.040   2.041   0.907
10762WAT     H232529   5.002   2.079   0.753
10763WAT      O32530   4.203   0.745   4.905
10763WAT     H132531   4.302   0.755   4.897
10763WAT     H232532   4.159   0.835   4.897
10764WAT      O32533   4.337   4.353   3.966
10764WAT     H132534   4.409   4.404   4.014
10764WAT     H232535   4.259   4.413   3.952
10765WAT      O32536   7.302   8.414   0.358
10765WAT     H132537   7.317   8.363   0.443
10765WAT     H232538   7.325   8.357   0.280
10766WAT      O32539   7.541   8.334   0.976
10766WAT     H132540   7.497   8.422   0.957
10766WAT     H232541   7.632   8.334   0.933
10767WAT      O32542   6.208   1.320   8.092
10767WAT     H132543   6.281   1.253   8.108
10767WAT     H232544   6.122   1.272   8.075
10768WAT      O32545   6.544   5.985   6.237
10768WAT     H132546   6.513   6.063   6.184
10768WAT     H232547   6.629   5.949   6.198
10769WAT      O32548   0.326   9.515   5.218
10769WAT     H132549   0.347   9.487   5.124
10769WAT     H232550   0.260   9.451   5.258
10770WAT      O32551   2.595   2.260   1.099
10770WAT     H132552   2.681   2.310   1.106
10770WAT     H232553   2.579   2.235   1.003
10771WAT      O32554   6.942   8.840   9.777
10771WAT     H132555   6.891   8.849   9.863
10771WAT     H232556   6.899   8.771   9.720
10772WAT      O32557   3.568   5.089   0.293
10772WAT     H132558   3.628   5.153   0.247
10772WAT     H232559   3.617   5.042   0.366
10773WAT      O32560   0.541   7.137   3.268
10773WAT     H132561   0.471   7.070   3.292
10773WAT     H232562   0.532   7.217   3.328
10774WAT      O32563   8.225   0.064   3.912
10774WAT     H132564   8.286   0.071   3.991
10774WAT     H232565   8.251  -0.015   3.857
10775WAT      O32566   8.891   1.104   8.699
10775WAT     H132567   8.835   1.097   8.617
10775WAT     H232568   8.839   1.071   8.778
10776WAT      O32569   8.477   2.375   6.534
10776WAT     H132570   8.523   2.287   6.546
10776WAT     H232571   8.499   2.412   6.444
10777WAT      O32572   0.348   8.167   7.168
10777WAT     H132573   0.353   8.073   7.136
10777WAT     H232574   0.300   8.223   7.100
10778WAT      O32575   7.933   2.376   0.649
10778WAT     H132576   7.969   2.467   0.669
10778WAT     H232577   7.989   2.307   0.695
10779WAT      O32578   6.013   1.526   3.071
10779WAT     H132579   5.922   1.568   3.073
10779WAT     H232580   6.004   1.427   3.074
10780WAT      O32581   5.127   4.465   4.438
10780WAT     H132582   5.095   4.485   4.530
10780WAT     H232583   5.083   4.382   4.404
10781WAT      O32584   4.461   8.778   9.052
10781WAT     H132585   4.475   8.871   9.086
10781WAT     H232586   4.363   8.763   9.038
10782WAT      O32587   0.264   8.531   2.892
10782WAT     H132588   0.204   8.451   2.891
10782WAT     H232589   0.224   8.603   2.949
10783WAT      O32590   4.832   0.924   1.709
10783WAT     H132591   4.785   0.896   1.792
10783WAT     H232592   4.884   1.008   1.726
10784WAT      O32593   3.454   4.775   2.956
10784WAT     H132594   3.410   4.714   3.022
10784WAT     H232595   3.547   4.796   2.986
10785WAT      O32596   2.477   4.028   8.667
10785WAT     H132597   2.543   4.023   8.592
10785WAT     H232598   2.391   3.985   8.638
10786WAT      O32599   0.778   0.237   2.235
10786WAT     H132600   0.680   0.219   2.238
10786WAT     H232601   0.804   0.289   2.317
10787WAT      O32602   0.191   5.665   1.809
10787WAT     H132603   0.173   5.758   1.778
10787WAT     H232604   0.261   5.623   1.751
10788WAT      O32605   1.462   7.455   7.679
10788WAT     H132606   1.552   7.462   7.636
10788WAT     H232607   1.470   7.477   7.777
10789WAT      O32608   5.969   7.809   6.401
10789WAT     H132609   5.966   7.908   6.417
10789WAT     H232610   5.880   7.769   6.425
10790WAT      O32611   4.902   3.083   2.509
10790WAT     H132612   4.867   3.049   2.596
10790WAT     H232613   4.928   3.006   2.451
10791WAT      O32614   7.609   9.071   8.733
10791WAT     H132615   7.559   9.123   8.664
10791WAT     H232616   7.649   8.989   8.692
10792WAT      O32617   3.399   5.499   3.337
10792WAT     H132618   3.467   5.543   3.395
10792WAT     H232619   3.410   5.530   3.243
10793WAT      O32620   5.490   9.466   4.170
10793WAT     H132621   5.450   9.414   4.094
10793WAT     H232622   5.585   9.438   4.182
10794WAT      O32623   4.824   4.638   1.242
10794WAT     H132624   4.779   4.621   1.329
10794WAT     H232625   4.922   4.619   1.250
10795WAT      O32626   2.166   2.735   3.908
10795WAT     H132627   2.173   2.653   3.852
10795WAT     H232628   2.102   2.719   3.983
10796WAT      O32629   6.861   4.151   6.121
10796WAT     H132630   6.893   4.209   6.196
10796WAT     H232631   6.936   4.134   6.058
10797WAT      O32632   8.565   0.568   2.374
10797WAT     H132633   8.654   0.601   2.406
10797WAT     H232634   8.497   0.640   2.386
10798WAT      O32635   8.981   6.685   5.035
10798WAT     H132636   9.037   6.749   5.086
10798WAT     H232637   8.888   6.721   5.027
10799WAT      O32638   3.632   4.635   5.702
10799WAT     H132639   3.574   4.589   5.770
10799WAT     H232640   3.574   4.686   5.638
10800WAT      O32641   0.368   8.298   7.700
10800WAT     H132642   0.460   8.324   7.671
10800WAT     H232643   0.309   8.289   7.620
10801WAT      O32644   3.860   8.879   5.824
10801WAT     H132645   3.797   8.935   5.877
10801WAT     H232646   3.934   8.847   5.884
10802WAT      O32647   4.303   2.096   8.412
10802WAT     H132648   4.237   2.032   8.372
10802WAT     H232649   4.277   2.116   8.506
10803WAT      O32650   7.300   1.399   1.307
10803WAT     H132651   7.293   1.380   1.209
10803WAT     H232652   7.391   1.372   1.339
10804WAT      O32653   4.317   4.491   3.718
10804WAT     H132654   4.325   4.414   3.782
10804WAT     H232655   4.365   4.571   3.755
10805WAT      O32656   3.103   8.982   9.808
10805WAT     H132657   3.188   8.930   9.815
10805WAT     H232658   3.045   8.940   9.737
10806WAT      O32659   3.612   0.190   2.865
10806WAT     H132660   3.653   0.140   2.941
10806WAT     H232661   3.685   0.232   2.810
10807WAT      O32662   1.629   8.184   7.562
10807WAT     H132663   1.722   8.178   7.598
10807WAT     H232664   1.568   8.127   7.617
10808WAT      O32665   0.702   6.070   2.806
10808WAT     H132666   0.727   6.003   2.736
10808WAT     H232667   0.763   6.148   2.801
10809WAT      O32668   0.444   4.796   5.017
10809WAT     H132669   0.392   4.825   5.098
10809WAT     H232670   0.399   4.718   4.974
10810WAT      O32671   0.211   3.588   5.261
10810WAT     H132672   0.190   3.581   5.164
10810WAT     H232673   0.205   3.498   5.303
10811WAT      O32674   5.036   6.568   2.354
10811WAT     H132675   4.953   6.579   2.410
10811WAT     H232676   5.009   6.555   2.259
10812WAT      O32677   4.605   8.438   0.004
10812WAT     H132678   4.529   8.473  -0.050
10812WAT     H232679   4.588   8.456   0.101
10813WAT      O32680   9.078   7.523   1.733
10813WAT     H132681   9.038   7.605   1.775
10813WAT     H232682   9.104   7.459   1.805
10814WAT      O32683   8.579   0.045   1.781
10814WAT     H132684   8.503   0.025   1.718
10814WAT     H232685   8.651  -0.023   1.769
10815WAT      O32686   8.859   9.671   2.849
10815WAT     H132687   8.817   9.708   2.766
10815WAT     H232688   8.918   9.594   2.825
10816WAT      O32689   1.648   4.242   1.625
10816WAT     H132690   1.642   4.268   1.722
10816WAT     H232691   1.635   4.323   1.568
10817WAT      O32692   4.027   0.531   9.383
10817WAT     H132693   4.083   0.495   9.307
10817WAT     H232694   3.968   0.604   9.349
10818WAT      O32695   8.177   9.336   7.132
10818WAT     H132696   8.188   9.242   7.100
10818WAT     H232697   8.086   9.369   7.107
10819WAT      O32698   9.496   5.832   3.329
10819WAT     H132699   9.571   5.860   3.388
10819WAT     H232700   9.531   5.780   3.252
10820WAT      O32701   4.770   0.506   6.238
10820WAT     H132702   4.778   0.518   6.140
10820WAT     H232703   4.861   0.502   6.280
10821WAT      O32704   4.372   7.849   8.471
10821WAT     H132705   4.380   7.939   8.429
10821WAT     H232706   4.464   7.815   8.492
10822WAT      O32707   5.677   2.518   5.778
10822WAT     H132708   5.586   2.551   5.755
10822WAT     H232709   5.689   2.425   5.744
10823WAT      O32710   6.855   0.973   7.651
10823WAT     H132711   6.820   0.882   7.671
10823WAT     H232712   6.943   0.966   7.604
10824WAT      O32713   2.263   5.354   0.896
10824WAT     H132714   2.289   5.303   0.978
10824WAT     H232715   2.197   5.425   0.920
10825WAT      O32716   0.089   8.744   3.038
10825WAT     H132717   0.018   8.758   3.108
10825WAT     H232718   0.157   8.817   3.045
10826WAT      O32719   2.578   1.600   0.006
10826WAT     H132720   2.616   1.679   0.055
10826WAT     H232721   2.653   1.540  -0.023
10827WAT      O32722   9.889   0.626   1.015
10827WAT     H132723   9.888   0.670   0.925
10827WAT     H232724   9.828   0.675   1.077
10828WAT      O32725   7.951   4.632   5.243
10828WAT     H132726   7.949   4.534   5.263
10828WAT     H232727   7.901   4.682   5.315
10829WAT      O32728   7.011   1.570   0.093
10829WAT     H132729   7.061   1.623   0.024
10829WAT     H232730   7.073   1.506   0.139
10830WAT      O32731   6.949   3.944   7.899
10830WAT     H132732   6.882   3.870   7.908
10830WAT     H232733   7.019   3.918   7.834
10831WAT      O32734   3.644   4.090   1.873
10831WAT     H132735   3.697   4.072   1.956
10831WAT     H232736   3.708   4.105   1.797
10832WAT      O32737   3.068   1.057   4.291
10832WAT     H132738   3.156   1.023   4.257
10832WAT     H232739   3.084   1.139   4.346
10833WAT      O32740   4.281   9.116   4.510
10833WAT     H132741   4.362   9.069   4.544
10833WAT     H232742   4.218   9.132   4.586
10834WAT      O32743   7.628   9.613   7.516
10834WAT     H132744   7.716   9.582   7.553
10834WAT     H232745   7.624   9.592   7.419
10835WAT      O32746   3.252   3.260   7.510
10835WAT     H132747   3.251   3.267   7.410
10835WAT     H232748   3.171   3.307   7.548
10836WAT      O32749   6.705   8.082   7.984
10836WAT     H132750   6.755   8.123   8.060
10836WAT     H232751   6.729   8.129   7.899
10837WAT      O32752   6.519   9.231   5.448
10837WAT     H132753   6.565   9.197   5.366
10837WAT     H232754   6.435   9.280   5.421
10838WAT      O32755   0.935   6.471   2.206
10838WAT     H132756   0.930   6.392   2.145
10838WAT     H232757   0.865   6.463   2.277
10839WAT      O32758   0.701   9.000   7.415
10839WAT     H132759   0.646   9.060   7.357
10839WAT     H232760   0.728   8.918   7.363
10840WAT      O32761   3.382   0.177   8.860
10840WAT     H132762   3.459   0.234   8.831
10840WAT     H232763   3.413   0.112   8.929
10841WAT      O32764   3.747   7.562   5.157
10841WAT     H132765   3.683   7.494   5.193
10841WAT     H232766   3.836   7.551   5.202
10842WAT      O32767   0.216   8.781   1.115
10842WAT     H132768   0.253   8.734   1.035
10842WAT     H232769   0.188   8.874   1.089
10843WAT      O32770   0.334   0.084   3.733
10843WAT     H132771   0.347   0.025   3.813
10843WAT     H232772   0.390   0.167   3.743
10844WAT      O32773   6.327   8.570   1.353
10844WAT     H132774   6.343   8.632   1.430
10844WAT     H232775   6.298   8.623   1.273
10845WAT      O32776   6.147   2.559   0.223
10845WAT     H132777   6.196   2.474   0.242
10845WAT     H232778   6.157   2.581   0.126
10846WAT      O32779   6.896   5.247   0.790
10846WAT     H132780   6.810   5.196   0.789
10846WAT     H232781   6.973   5.183   0.796
10847WAT      O32782   8.420   3.722   5.834
10847WAT     H132783   8.485   3.691   5.903
10847WAT     H232784   8.467   3.733   5.746
10848WAT      O32785   7.201   4.424   3.658
10848WAT     H132786   7.256   4.402   3.577
10848WAT     H232787   7.165   4.517   3.650
10849WAT      O32788   3.972   9.009   7.905
10849WAT     H132789   4.045   8.972   7.962
10849WAT     H232790   3.883   8.984   7.945
10850WAT      O32791   1.699   0.773   5.838
10850WAT     H132792   1.678   0.870   5.851
10850WAT     H232793   1.657   0.721   5.913
10851WAT      O32794   5.690   3.731   1.733
10851WAT     H132795   5.759   3.774   1.791
10851WAT     H232796   5.733   3.659   1.678
10852WAT      O32797   4.943   4.371   8.611
10852WAT     H132798   4.897   4.327   8.534
10852WAT     H232799   5.038   4.341   8.615
10853WAT      O32800   6.645   8.545   8.616
10853WAT     H132801   6.649   8.629   8.670
10853WAT     H232802   6.635   8.569   8.519
10854WAT      O32803   8.074   2.744   3.300
10854WAT     H132804   7.983   2.774   3.327
10854WAT     H232805   8.108   2.677   3.367
10855WAT      O32806   1.724   0.938   4.742
10855WAT     H132807   1.642   0.952   4.687
10855WAT     H232808   1.755   0.843   4.734
10856WAT      O32809   0.358   1.830   3.570
10856WAT     H132810   0.446   1.818   3.524
10856WAT     H232811   0.290   1.860   3.503
10857WAT      O32812   6.721   4.001   1.075
10857WAT     H132813   6.637   3.957   1.044
10857WAT     H232814   6.771   3.939   1.136
10858WAT      O32815   1.111   6.175   2.890
10858WAT     H132816   1.025   6.224   2.886
10858WAT     H232817   1.172   6.207   2.818
10859WAT      O32818   5.721   2.245   8.777
10859WAT     H132819   5.815   2.220   8.802
10859WAT     H232820   5.659   2.171   8.803
10860WAT      O32821   4.349   6.199   3.026
10860WAT     H132822   4.429   6.174   2.970
10860WAT     H232823   4.276   6.230   2.966
10861WAT      O32824   4.587   3.462   8.240
10861WAT     H132825   4.647   3.406   8.297
10861WAT     H232826   4.642   3.530   8.191
10862WAT      O32827   8.593   2.650   3.358
10862WAT     H132828   8.527   2.646   3.284
10862WAT     H232829   8.670   2.709   3.332
10863WAT      O32830   5.890   0.627   2.064
10863WAT     H132831   5.858   0.608   2.157
10863WAT     H232832   5.830   0.583   1.998
10864WAT      O32833   0.245   0.368   2.966
10864WAT     H132834   0.167   0.309   2.989
10864WAT     H232835   0.233   0.404   2.873
10865WAT      O32836   7.195   2.855   8.950
10865WAT     H132837   7.276   2.912   8.963
10865WAT     H232838   7.221   2.758   8.957
10866WAT      O32839   0.813   9.717   9.397
10866WAT     H132840   0.774   9.632   9.433
10866WAT     H232841   0.913   9.713   9.402
10867WAT      O32842   9.240   9.642   7.521
10867WAT     H132843   9.335   9.665   7.538
10867WAT     H232844   9.216   9.665   7.426
10868WAT      O32845   7.592   4.537   3.115
10868WAT     H132846   7.545   4.563   3.199
10868WAT     H232847   7.637   4.618   3.076
10869WAT      O32848   3.057   5.954   5.062
10869WAT     H132849   3.071   5.859   5.032
10869WAT     H232850   3.143   6.005   5.051
10870WAT      O32851   5.328   3.042   4.439
10870WAT     H132852   5.371   2.956   4.411
10870WAT     H232853   5.350   3.113   4.372
10871WAT      O32854   0.792   6.755   3.044
10871WAT     H132855   0.747   6.769   3.132
10871WAT     H232856   0.730   6.705   2.983
10872WAT      O32857   5.132   6.602   3.018
10872WAT     H132858   5.205   6.669   3.003
10872WAT     H232859   5.164   6.532   3.081
10873WAT      O32860   2.630   1.357   6.406
10873WAT     H132861   2.606   1.331   6.499
10873WAT     H232862   2.626   1.277   6.346
10874WAT      O32863   9.199   9.323   6.505
10874WAT     H132864   9.216   9.383   6.584
10874WAT     H232865   9.106   9.286   6.511
10875WAT      O32866   1.396   4.393   9.399
10875WAT     H132867   1.489   4.386   9.436
10875WAT     H232868   1.334   4.337   9.453
10876WAT      O32869   3.181   6.249   7.331
10876WAT     H132870   3.223   6.340   7.331
10876WAT     H232871   3.233   6.189   7.269
10877WAT      O32872   1.560   6.396   3.819
10877WAT     H132873   1.646   6.410   3.770
10877WAT     H232874   1.514   6.314   3.784
10878WAT      O32875   2.450   0.486   3.358
10878WAT     H132876   2.354   0.496   3.382
10878WAT     H232877   2.506   0.538   3.423
10879WAT      O32878   1.946   6.361   1.641
10879WAT     H132879   1.920   6.301   1.565
10879WAT     H232880   1.864   6.402   1.680
10880WAT      O32881   0.865   3.222   2.250
10880WAT     H132882   0.952   3.178   2.271
10880WAT     H232883   0.824   3.178   2.171
10881WAT      O32884   1.820   1.452   7.961
10881WAT     H132885   1.742   1.398   7.928
10881WAT     H232886   1.858   1.504   7.884
10882WAT      O32887   1.112   6.351   5.580
10882WAT     H132888   1.201   6.308   5.595
10882WAT     H232889   1.045   6.312   5.642
10883WAT      O32890   3.704   2.031   1.752
10883WAT     H132891   3.630   2.093   1.779
10883WAT     H232892   3.756   2.004   1.833
10884WAT      O32893   9.816   9.818   2.179
10884WAT     H132894   9.854   9.910   2.194
10884WAT     H232895   9.822   9.796   2.082
10885WAT      O32896   1.365   4.552   2.279
10885WAT     H132897   1.307   4.547   2.198
10885WAT     H232898   1.445   4.493   2.267
10886WAT      O32899   2.466   8.585   8.938
10886WAT     H132900   2.398   8.658   8.946
10886WAT     H232901   2.447   8.530   8.856
10887WAT      O32902   4.860   7.839   5.335
10887WAT     H132903   4.789   7.904   5.309
10887WAT     H232904   4.818   7.763   5.385
10888WAT      O32905   6.860   8.457   7.090
10888WAT     H132906   6.926   8.447   7.016
10888WAT     H232907   6.893   8.526   7.154
10889WAT      O32908   7.603   7.672   0.543
10889WAT     H132909   7.660   7.606   0.591
10889WAT     H232910   7.582   7.638   0.452
10890WAT      O32911   9.806   9.697   0.836
10890WAT     H132912   9.741   9.689   0.759
10890WAT     H232913   9.762   9.747   0.911
10891WAT      O32914   0.565   7.947   3.195
10891WAT     H132915   0.530   8.023   3.141
10891WAT     H232916   0.553   7.967   3.292
10892WAT      O32917   0.205   5.683   6.297
10892WAT     H132918   0.128   5.628   6.326
10892WAT     H232919   0.268   5.627   6.242
10893WAT      O32920   1.377   0.483   9.680
10893WAT     H132921   1.469   0.465   9.646
10893WAT     H232922   1.330   0.549   9.621
10894WAT      O32923   2.632   5.576   4.221
10894WAT     H132924   2.591   5.490   4.190
10894WAT     H232925   2.642   5.573   4.321
10895WAT      O32926   0.604   3.762   1.875
10895WAT     H132927   0.595   3.712   1.789
10895WAT     H232928   0.513   3.782   1.911
10896WAT      O32929   1.450   1.845   5.499
10896WAT     H132930   1.468   1.856   5.597
10896WAT     H232931   1.396   1.923   5.467
10897WAT      O32932   7.161   7.946   2.031
10897WAT     H132933   7.081   7.997   2.062
10897WAT     H232934   7.244   7.997   2.054
10898WAT      O32935   2.685   7.699   8.876
10898WAT     H132936   2.720   7.680   8.785
10898WAT     H232937   2.618   7.630   8.902
10899WAT      O32938   7.407   3.250   1.522
10899WAT     H132939   7.476   3.311   1.481
10899WAT     H232940   7.454   3.172   1.563
10900WAT      O32941   1.360   9.246   3.743
10900WAT     H132942   1.352   9.236   3.842
10900WAT     H232943   1.274   9.217   3.700
10901WAT      O32944   7.538   0.505   4.590
10901WAT     H132945   7.453   0.453   4.599
10901WAT     H232946   7.614   0.449   4.623
10902WAT      O32947   8.943   4.306   7.612
10902WAT     H132948   8.868   4.240   7.607
10902WAT     H232949   9.001   4.285   7.690
10903WAT      O32950   7.264   2.439   6.914
10903WAT     H132951   7.237   2.362   6.857
10903WAT     H232952   7.185   2.497   6.933
10904WAT      O32953   6.996   3.909   1.317
10904WAT     H132954   7.075   3.862   1.356
10904WAT     H232955   6.960   3.856   1.239
10905WAT      O32956   8.251   6.695   8.266
10905WAT     H132957   8.347   6.717   8.279
10905WAT     H232958   8.237   6.597   8.275
10906WAT      O32959   1.973   9.012   3.047
10906WAT     H132960   2.052   9.065   3.077
10906WAT     H232961   1.954   8.940   3.114
10907WAT      O32962   9.505   8.726   5.616
10907WAT     H132963   9.550   8.794   5.558
10907WAT     H232964   9.419   8.698   5.575
10908WAT      O32965   7.808   2.830   6.903
10908WAT     H132966   7.780   2.768   6.830
10908WAT     H232967   7.843   2.777   6.980
10909WAT      O32968   2.803   7.190   2.792
10909WAT     H132969   2.752   7.160   2.711
10909WAT     H232970   2.894   7.221   2.764
10910WAT      O32971   8.892   2.924   8.384
10910WAT     H132972   8.974   2.938   8.438
10910WAT     H232973   8.887   2.829   8.353
10911WAT      O32974   6.848   5.110   7.666
10911WAT     H132975   6.778   5.082   7.601
10911WAT     H232976   6.936   5.119   7.619
10912WAT      O32977   5.714   4.605   8.228
10912WAT     H132978   5.656   4.526   8.245
10912WAT     H232979   5.759   4.595   8.139
10913WAT      O32980   8.575   5.813   3.234
10913WAT     H132981   8.501   5.774   3.179
10913WAT     H232982   8.633   5.739   3.269
10914WAT      O32983   8.892   6.859   5.875
10914WAT     H132984   8.959   6.788   5.899
10914WAT     H232985   8.894   6.873   5.776
10915WAT      O32986   2.742   8.202   8.204
10915WAT     H132987   2.775   8.207   8.298
10915WAT     H232988   2.642   8.205   8.204
10916WAT      O32989   5.611   2.097   8.441
10916WAT     H132990   5.596   2.188   8.479
10916WAT     H232991   5.708   2.074   8.446
10917WAT      O32992   3.358   3.601   9.752
10917WAT     H132993   3.335   3.654   9.671
10917WAT     H232994   3.275   3.566   9.794
10918WAT      O32995   2.112   7.114   0.408
10918WAT     H132996   2.117   7.053   0.486
10918WAT     H232997   2.038   7.181   0.422
10919WAT      O32998   8.710   6.922   0.788
10919WAT     H132999   8.623   6.951   0.828
10919WAT     H233000   8.724   6.968   0.700
10920WAT      O33001   3.651   7.705   0.802
10920WAT     H133002   3.558   7.671   0.815
10920WAT     H233003   3.672   7.707   0.704
10921WAT      O33004   4.369   5.822   9.716
10921WAT     H133005   4.311   5.833   9.797
10921WAT     H233006   4.462   5.797   9.744
10922WAT      O33007   6.389   3.400   8.523
10922WAT     H133008   6.375   3.483   8.577
10922WAT     H233009   6.368   3.418   8.427
10923WAT      O33010   4.716   6.292   5.043
10923WAT     H133011   4.691   6.346   5.124
10923WAT     H233012   4.665   6.206   5.043
10924WAT      O33013   5.417   6.265   6.377
10924WAT     H133014   5.435   6.364   6.380
10924WAT     H233015   5.367   6.239   6.460
10925WAT      O33016   1.492   6.941   8.575
10925WAT     H133017   1.571   6.896   8.532
10925WAT     H233018   1.417   6.876   8.581
10926WAT      O33019   9.381   2.401   0.705
10926WAT     H133020   9.359   2.487   0.752
10926WAT     H233021   9.459   2.416   0.644
10927WAT      O33022   0.502   9.016   8.576
10927WAT     H133023   0.473   8.922   8.596
10927WAT     H233024   0.503   9.030   8.477
10928WAT      O33025   6.880   7.585   3.095
10928WAT     H133026   6.798   7.643   3.091
10928WAT     H233027   6.862   7.499   3.046
10929WAT      O33028   8.197   6.850   2.755
10929WAT     H133029   8.148   6.817   2.674
10929WAT     H233030   8.134   6.856   2.832
10930WAT      O33031   2.084   1.817   8.666
10930WAT     H133032   2.106   1.762   8.747
10930WAT     H233033   2.092   1.914   8.688
10931WAT      O33034   9.630   0.934   1.775
10931WAT     H133035   9.724   0.968   1.774
10931WAT     H233036   9.617   0.873   1.853
10932WAT      O33037   1.544   0.205   2.433
10932WAT     H133038   1.518   0.301   2.436
10932WAT     H233039   1.476   0.153   2.380
10933WAT      O33040   1.628   7.613   6.536
10933WAT     H133041   1.635   7.584   6.440
10933WAT     H233042   1.660   7.539   6.595
10934WAT      O33043   9.385   0.184   4.976
10934WAT     H133044   9.401   0.224   4.886
10934WAT     H233045   9.339   0.250   5.035
10935WAT      O33046   1.992   0.108   1.243
10935WAT     H133047   2.073   0.111   1.303
10935WAT     H233048   1.934   0.188   1.262
10936WAT      O33049   8.851   8.885   1.565
10936WAT     H133050   8.921   8.871   1.634
10936WAT     H233051   8.892   8.881   1.474
10937WAT      O33052   4.980   7.562   6.414
10937WAT     H133053   5.020   7.612   6.491
10937WAT     H233054   5.014   7.601   6.328
10938WAT      O33055   3.354   4.829   9.793
10938WAT     H133056   3.371   4.862   9.886
10938WAT     H233057   3.425   4.864   9.732
10939WAT      O33058   7.137   1.147   2.884
10939WAT     H133059   7.062   1.202   2.847
10939WAT     H233060   7.121   1.050   2.863
10940WAT      O33061   6.567   9.550   3.021
10940WAT     H133062   6.660   9.515   3.010
10940WAT     H233063   6.558   9.595   3.110
10941WAT      O33064   1.730   7.022   9.526
10941WAT     H133065   1.810   7.008   9.468
10941WAT     H233066   1.709   6.937   9.575
10942WAT      O33067   2.368   5.942   5.989
10942WAT     H133068   2.341   5.879   5.916
10942WAT     H233069   2.297   5.943   6.060
10943WAT      O33070   3.914   2.153   5.222
10943WAT     H133071   3.879   2.099   5.299
10943WAT     H233072   4.014   2.151   5.224
10944WAT      O33073   7.303   1.004   3.946
10944WAT     H133074   7.287   0.991   3.848
10944WAT     H233075   7.264   0.927   3.997
10945WAT      O33076   7.153   2.872   8.413
10945WAT     H133077   7.132   2.794   8.472
10945WAT     H233078   7.244   2.906   8.434
10946WAT      O33079   3.744   5.059   7.724
10946WAT     H133080   3.736   4.984   7.789
10946WAT     H233081   3.824   5.115   7.747
10947WAT      O33082   0.928   1.508   4.156
10947WAT     H133083   0.939   1.417   4.195
10947WAT     H233084   0.830   1.528   4.146
10948WAT      O33085   4.219   1.776   7.757
10948WAT     H133086   4.209   1.765   7.855
10948WAT     H233087   4.312   1.752   7.730
10949WAT      O33088   0.538   9.477   1.966
10949WAT     H133089   0.532   9.480   2.066
10949WAT     H233090   0.580   9.391   1.938
10950WAT      O33091   5.264   1.832   1.671
10950WAT     H133092   5.180   1.811   1.622
10950WAT     H233093   5.242   1.876   1.758
10951WAT      O33094   9.535   1.070   6.125
10951WAT     H133095   9.586   1.122   6.194
10951WAT     H233096   9.451   1.035   6.166
10952WAT      O33097   2.830   7.245   9.486
10952WAT     H133098   2.862   7.163   9.439
10952WAT     H233099   2.785   7.305   9.420
10953WAT      O33100   3.159   2.157   5.411
10953WAT     H133101   3.151   2.222   5.486
10953WAT     H233102   3.161   2.206   5.324
10954WAT      O33103   6.714   3.643   8.121
10954WAT     H133104   6.620   3.611   8.114
10954WAT     H233105   6.743   3.681   8.034
10955WAT      O33106   4.502   0.764   3.272
10955WAT     H133107   4.483   0.844   3.215
10955WAT     H233108   4.579   0.783   3.332
10956WAT      O33109   6.867   9.428   3.588
10956WAT     H133110   6.880   9.452   3.684
10956WAT     H233111   6.903   9.335   3.572
10957WAT      O33112   2.281   0.310   2.691
10957WAT     H133113   2.300   0.224   2.645
10957WAT     H233114   2.358   0.335   2.750
10958WAT      O33115   0.954   0.058   2.130
10958WAT     H133116   0.875   0.108   2.165
10958WAT     H233117   0.925  -0.004   2.057
10959WAT      O33118   7.706   4.192   1.736
10959WAT     H133119   7.644   4.119   1.705
10959WAT     H233120   7.708   4.193   1.836
10960WAT      O33121   5.053   3.504   0.583
10960WAT     H133122   5.149   3.476   0.590
10960WAT     H233123   5.044   3.574   0.512
10961WAT      O33124   1.916   1.150   0.126
10961WAT     H133125   1.981   1.087   0.167
10961WAT     H233126   1.828   1.145   0.174
10962WAT      O33127   2.670   4.369   4.199
10962WAT     H133128   2.701   4.296   4.260
10962WAT     H233129   2.745   4.433   4.183
10963WAT      O33130   0.172   3.903   2.965
10963WAT     H133131   0.102   3.953   3.016
10963WAT     H233132   0.252   3.888   3.024
10964WAT      O33133   7.603   0.801   3.959
10964WAT     H133134   7.523   0.857   3.939
10964WAT     H233135   7.629   0.812   4.055
10965WAT      O33136   4.780   2.256   1.780
10965WAT     H133137   4.724   2.182   1.816
10965WAT     H233138   4.723   2.318   1.727
10966WAT      O33139   9.747   0.200   6.321
10966WAT     H133140   9.701   0.237   6.240
10966WAT     H233141   9.686   0.135   6.367
10967WAT      O33142   8.683   5.107   3.968
10967WAT     H133143   8.641   5.185   4.016
10967WAT     H233144   8.742   5.142   3.895
10968WAT      O33145   6.144   8.514   2.599
10968WAT     H133146   6.064   8.506   2.657
10968WAT     H233147   6.128   8.466   2.512
10969WAT      O33148   9.764   1.140   0.260
10969WAT     H133149   9.763   1.215   0.327
10969WAT     H233150   9.671   1.106   0.246
10970WAT      O33151   3.579   9.480   7.420
10970WAT     H133152   3.611   9.505   7.512
10970WAT     H233153   3.561   9.381   7.417
10971WAT      O33154   8.211   6.592   7.618
10971WAT     H133155   8.154   6.657   7.567
10971WAT     H233156   8.307   6.608   7.597
10972WAT      O33157   0.138   3.982   6.181
10972WAT     H133158   0.205   4.047   6.215
10972WAT     H233159   0.131   3.989   6.081
10973WAT      O33160   5.786   2.454   2.419
10973WAT     H133161   5.830   2.418   2.502
10973WAT     H233162   5.713   2.391   2.391
10974WAT      O33163   5.844   5.006   5.932
10974WAT     H133164   5.940   5.000   5.961
10974WAT     H233165   5.788   5.034   6.010
10975WAT      O33166   8.225   0.846   9.165
10975WAT     H133167   8.296   0.890   9.219
10975WAT     H233168   8.135   0.871   9.202
10976WAT      O33169   4.317   9.835   4.958
10976WAT     H133170   4.377   9.867   4.884
10976WAT     H233171   4.365   9.768   5.014
10977WAT      O33172   7.645   4.813   0.383
10977WAT     H133173   7.627   4.824   0.285
10977WAT     H233174   7.728   4.862   0.408
10978WAT      O33175   1.220   7.626   9.276
10978WAT     H133176   1.281   7.550   9.295
10978WAT     H233177   1.253   7.708   9.323
10979WAT      O33178   5.520   5.134   0.479
10979WAT     H133179   5.517   5.066   0.406
10979WAT     H233180   5.497   5.091   0.566
10980WAT      O33181   5.785   2.265   9.680
10980WAT     H133182   5.722   2.330   9.637
10980WAT     H233183   5.791   2.283   9.778
10981WAT      O33184   2.806   3.046   2.322
10981WAT     H133185   2.728   3.015   2.377
10981WAT     H233186   2.877   3.083   2.382
10982WAT      O33187   1.227   7.521   7.540
10982WAT     H133188   1.192   7.427   7.544
10982WAT     H233189   1.325   7.521   7.557
10983WAT      O33190   7.308   8.510   1.521
10983WAT     H133191   7.228   8.474   1.474
10983WAT     H233192   7.391   8.483   1.473
10984WAT      O33193   1.173   5.350   6.399
10984WAT     H133194   1.137   5.442   6.412
10984WAT     H233195   1.219   5.344   6.310
10985WAT      O33196   7.991   9.722   1.233
10985WAT     H133197   8.054   9.717   1.156
10985WAT     H233198   7.952   9.632   1.250
10986WAT      O33199   2.574   3.872   4.505
10986WAT     H133200   2.564   3.805   4.431
10986WAT     H233201   2.591   3.823   4.591
10987WAT      O33202   0.620   3.741   1.310
10987WAT     H133203   0.570   3.734   1.224
10987WAT     H233204   0.630   3.650   1.350
10988WAT      O33205   1.347   8.947   5.495
10988WAT     H133206   1.334   9.019   5.426
10988WAT     H233207   1.274   8.953   5.563
10989WAT      O33208   3.265   9.055   8.638
10989WAT     H133209   3.326   8.977   8.651
10989WAT     H233210   3.302   9.115   8.566
10990WAT      O33211   2.771   6.690   8.033
10990WAT     H133212   2.774   6.765   8.099
10990WAT     H233213   2.700   6.625   8.059
10991WAT      O33214   5.645   3.313   0.530
10991WAT     H133215   5.569   3.365   0.490
10991WAT     H233216   5.627   3.297   0.627
10992WAT      O33217   8.098   7.999   7.141
10992WAT     H133218   8.133   7.994   7.048
10992WAT     H233219   8.097   7.908   7.182
10993WAT      O33220   1.926   8.305   6.056
10993WAT     H133221   1.999   8.266   6.113
10993WAT     H233222   1.838   8.287   6.098
10994WAT      O33223   9.358   4.408   6.355
10994WAT     H133224   9.321   4.317   6.340
10994WAT     H233225   9.435   4.424   6.293
10995WAT      O33226   6.727   9.729   4.627
10995WAT     H133227   6.735   9.652   4.691
10995WAT     H233228   6.632   9.758   4.622
10996WAT      O33229   8.142   1.261   8.268
10996WAT     H133230   8.167   1.318   8.346
10996WAT     H233231   8.188   1.172   8.276
10997WAT      O33232   1.453   9.016   0.566
10997WAT     H133233   1.381   8.962   0.523
10997WAT     H233234   1.541   8.970   0.552
10998WAT      O33235   7.861   9.749   5.265
10998WAT     H133236   7.802   9.774   5.342
10998WAT     H233237   7.814   9.682   5.208
10999WAT      O33238   8.715   0.674   4.015
10999WAT     H133239   8.646   0.618   3.970
10999WAT     H233240   8.700   0.674   4.114
11000WAT      O33241   1.161   9.647   3.533
11000WAT     H133242   1.128   9.715   3.468
11000WAT     H233243   1.234   9.593   3.491
11001WAT      O33244   2.964   0.688   1.442
11001WAT     H133245   2.877   0.735   1.425
11001WAT     H233246   2.982   0.686   1.541
11002WAT      O33247   9.889   6.305   7.796
11002WAT     H133248   9.841   6.219   7.812
11002WAT     H233249   9.878   6.365   7.875
11003WAT      O33250   0.229   8.326   7.929
11003WAT     H133251   0.145   8.381   7.929
11003WAT     H233252   0.245   8.291   7.836
11004WAT      O33253   1.985   5.922   1.297
11004WAT     H133254   1.969   5.836   1.345
11004WAT     H233255   1.993   5.905   1.199
11005WAT      O33256   4.205   4.994   0.725
11005WAT     H133257   4.224   5.057   0.650
11005WAT     H233258   4.253   5.024   0.807
11006WAT      O33259   5.693   4.653   8.904
11006WAT     H133260   5.699   4.738   8.852
11006WAT     H233261   5.779   4.603   8.896
11007WAT      O33262   7.530   2.307   1.456
11007WAT     H133263   7.451   2.361   1.428
11007WAT     H233264   7.532   2.302   1.556
11008WAT      O33265   9.121   9.093   3.226
11008WAT     H133266   9.073   9.031   3.164
11008WAT     H233267   9.191   9.144   3.175
11009WAT      O33268   0.162   9.203   6.943
11009WAT     H133269   0.225   9.207   6.866
11009WAT     H233270   0.079   9.254   6.921
11010WAT      O33271   8.696   0.014   4.354
11010WAT     H133272   8.744  -0.035   4.281
11010WAT     H233273   8.659   0.100   4.319
11011WAT      O33274   5.561   2.635   4.449
11011WAT     H133275   5.624   2.627   4.371
11011WAT     H233276   5.584   2.566   4.517
11012WAT      O33277   1.956   2.517   5.381
11012WAT     H133278   1.918   2.515   5.474
11012WAT     H233279   2.037   2.575   5.380
11013WAT      O33280   5.258   5.756   1.711
11013WAT     H133281   5.196   5.834   1.701
11013WAT     H233282   5.284   5.747   1.807
11014WAT      O33283   2.588   1.265   6.653
11014WAT     H133284   2.625   1.182   6.613
11014WAT     H233285   2.494   1.249   6.684
11015WAT      O33286   5.740   6.604   8.985
11015WAT     H133287   5.781   6.570   9.069
11015WAT     H233288   5.719   6.702   8.995
11016WAT      O33289   1.857   6.554   8.968
11016WAT     H133290   1.923   6.604   9.023
11016WAT     H233291   1.812   6.484   9.024
11017WAT      O33292   7.797   5.174   5.994
11017WAT     H133293   7.841   5.105   6.051
11017WAT     H233294   7.839   5.175   5.904
11018WAT      O33295   7.117   6.933   2.542
11018WAT     H133296   7.175   6.856   2.568
11018WAT     H233297   7.032   6.898   2.501
11019WAT      O33298   3.598   7.377   5.306
11019WAT     H133299   3.600   7.360   5.405
11019WAT     H233300   3.559   7.298   5.260
11020WAT      O33301   0.848   0.164   4.169
11020WAT     H133302   0.842   0.162   4.269
11020WAT     H233303   0.838   0.071   4.134
11021WAT      O33304   0.849   6.064   5.555
11021WAT     H133305   0.930   6.068   5.497
11021WAT     H233306   0.867   6.113   5.641
11022WAT      O33307   4.013   6.399   7.794
11022WAT     H133308   3.970   6.489   7.785
11022WAT     H233309   3.988   6.359   7.882
11023WAT      O33310   1.807   4.827   1.073
11023WAT     H133311   1.810   4.733   1.040
11023WAT     H233312   1.757   4.831   1.159
11024WAT      O33313   9.594   3.050   0.426
11024WAT     H133314   9.496   3.063   0.440
11024WAT     H233315   9.634   3.008   0.507
11025WAT      O33316   1.658   5.091   2.123
11025WAT     H133317   1.746   5.056   2.090
11025WAT     H233318   1.617   5.150   2.054
11026WAT      O33319   1.910   4.529   1.832
11026WAT     H133320   1.999   4.510   1.791
11026WAT     H233321   1.907   4.494   1.925
11027WAT      O33322   6.856   1.010   7.324
11027WAT     H133323   6.870   0.915   7.352
11027WAT     H233324   6.930   1.039   7.265
11028WAT      O33325   6.548   1.912   3.499
11028WAT     H133326   6.527   1.975   3.573
11028WAT     H233327   6.528   1.818   3.527
11029WAT      O33328   6.473   7.885   4.859
11029WAT     H133329   6.385   7.933   4.862
11029WAT     H233330   6.477   7.817   4.932
11030WAT      O33331   6.805   3.897   7.061
11030WAT     H133332   6.844   3.883   6.970
11030WAT     H233333   6.877   3.890   7.130
11031WAT      O33334   1.374   5.835   9.608
11031WAT     H133335   1.386   5.844   9.707
11031WAT     H233336   1.277   5.826   9.587
11032WAT      O33337   0.061   3.237   4.243
11032WAT     H133338   0.017   3.327   4.234
11032WAT     H233339  -0.007   3.168   4.267
11033WAT      O33340   7.461   6.976   9.714
11033WAT     H133341   7.379   6.944   9.761
11033WAT     H233342   7.510   6.897   9.676
11034WAT      O33343   5.744   4.896   0.746
11034WAT     H133344   5.795   4.918   0.828
11034WAT     H233345   5.654   4.860   0.771
11035WAT      O33346   8.897   2.860   4.197
11035WAT     H133347   8.853   2.800   4.264
11035WAT     H233348   8.839   2.869   4.117
11036WAT      O33349   9.849   4.320   2.680
11036WAT     H133350   9.770   4.381   2.673
11036WAT     H233351   9.842   4.266   2.765
11037WAT      O33352   4.057   2.767   3.720
11037WAT     H133353   4.080   2.686   3.666
11037WAT     H233354   3.958   2.780   3.720
11038WAT      O33355   7.629   9.831   1.212
11038WAT     H133356   7.538   9.871   1.199
11038WAT     H233357   7.699   9.897   1.183
11039WAT      O33358   7.362   6.607   1.061
11039WAT     H133359   7.310   6.522   1.068
11039WAT     H233360   7.453   6.587   1.023
11040WAT      O33361   6.148   6.770   3.008
11040WAT     H133362   6.135   6.840   2.938
11040WAT     H233363   6.227   6.795   3.065
11041WAT      O33364   5.485   9.762   6.698
11041WAT     H133365   5.525   9.694   6.636
11041WAT     H233366   5.559   9.813   6.742
11042WAT      O33367   4.155   0.179   3.296
11042WAT     H133368   4.119   0.149   3.208
11042WAT     H233369   4.081   0.176   3.364
11043WAT      O33370   8.691   5.212   6.170
11043WAT     H133371   8.677   5.127   6.120
11043WAT     H233372   8.787   5.239   6.164
11044WAT      O33373   0.271   9.431   1.064
11044WAT     H133374   0.240   9.339   1.092
11044WAT     H233375   0.275   9.490   1.144
11045WAT      O33376   1.308   6.696   1.452
11045WAT     H133377   1.276   6.721   1.360
11045WAT     H233378   1.232   6.702   1.517
11046WAT      O33379   8.402   3.061   3.265
11046WAT     H133380   8.433   3.128   3.198
11046WAT     H233381   8.349   3.106   3.336
11047WAT      O33382   8.636   6.217   7.507
11047WAT     H133383   8.656   6.144   7.573
11047WAT     H233384   8.655   6.305   7.549
11048WAT      O33385   5.966   4.817   4.070
11048WAT     H133386   5.881   4.773   4.042
11048WAT     H233387   5.997   4.777   4.157
11049WAT      O33388   4.385   9.795   5.898
11049WAT     H133389   4.385   9.814   5.800
11049WAT     H233390   4.466   9.836   5.940
11050WAT      O33391   5.818   7.964   4.653
11050WAT     H133392   5.869   8.046   4.678
11050WAT     H233393   5.722   7.975   4.677
11051WAT      O33394   4.663   8.823   2.413
11051WAT     H133395   4.680   8.854   2.507
11051WAT     H233396   4.564   8.820   2.397
11052WAT      O33397   6.307   2.116   3.557
11052WAT     H133398   6.372   2.188   3.581
11052WAT     H233399   6.238   2.108   3.629
11053WAT      O33400   1.345   1.151   8.338
11053WAT     H133401   1.420   1.217   8.332
11053WAT     H233402   1.356   1.082   8.267
11054WAT      O33403   1.043   8.247   9.573
11054WAT     H133404   0.995   8.326   9.613
11054WAT     H233405   1.122   8.225   9.629
11055WAT      O33406   0.573   1.498   9.391
11055WAT     H133407   0.489   1.453   9.362
11055WAT     H233408   0.613   1.547   9.313
11056WAT      O33409   0.650   3.647   4.881
11056WAT     H133410   0.645   3.626   4.979
11056WAT     H233411   0.605   3.734   4.863
11057WAT      O33412   8.488   3.891   1.998
11057WAT     H133413   8.392   3.918   2.005
11057WAT     H233414   8.504   3.808   2.052
11058WAT      O33415   3.610   4.851   5.071
11058WAT     H133416   3.531   4.807   5.027
11058WAT     H233417   3.582   4.940   5.107
11059WAT      O33418   4.711   6.574   7.387
11059WAT     H133419   4.699   6.651   7.449
11059WAT     H233420   4.803   6.536   7.397
11060WAT      O33421   7.796   7.376   5.228
11060WAT     H133422   7.741   7.456   5.208
11060WAT     H233423   7.891   7.404   5.245
11061WAT      O33424   7.399   6.358   3.206
11061WAT     H133425   7.469   6.311   3.259
11061WAT     H233426   7.443   6.414   3.135
11062WAT      O33427   6.802   1.701   7.280
11062WAT     H133428   6.758   1.781   7.239
11062WAT     H233429   6.900   1.703   7.259
11063WAT      O33430   5.814   6.939   2.209
11063WAT     H133431   5.894   6.879   2.206
11063WAT     H233432   5.840   7.027   2.249
11064WAT      O33433   9.399   4.514   2.816
11064WAT     H133434   9.334   4.453   2.770
11064WAT     H233435   9.407   4.598   2.764
11065WAT      O33436   7.272   5.302   7.920
11065WAT     H133437   7.348   5.361   7.945
11065WAT     H233438   7.195   5.317   7.982
11066WAT      O33439   5.967   8.392   0.944
11066WAT     H133440   5.928   8.341   0.867
11066WAT     H233441   5.966   8.335   1.026
11067WAT      O33442   2.211   4.994   6.241
11067WAT     H133443   2.281   4.980   6.310
11067WAT     H233444   2.227   5.081   6.194
11068WAT      O33445   9.327   0.676   5.511
11068WAT     H133446   9.295   0.769   5.526
11068WAT     H233447   9.251   0.612   5.521
11069WAT      O33448   4.266   7.457   5.245
11069WAT     H133449   4.348   7.482   5.298
11069WAT     H233450   4.258   7.357   5.242
11070WAT      O33451   2.299   9.006   4.255
11070WAT     H133452   2.296   9.083   4.318
11070WAT     H233453   2.297   9.039   4.161
11071WAT      O33454   8.152   8.057   4.922
11071WAT     H133455   8.135   8.045   5.019
11071WAT     H233456   8.187   8.150   4.905
11072WAT      O33457   3.796   3.998   7.050
11072WAT     H133458   3.876   4.017   7.106
11072WAT     H233459   3.770   3.902   7.059
11073WAT      O33460   2.964   6.331   9.279
11073WAT     H133461   2.896   6.401   9.303
11073WAT     H233462   3.047   6.376   9.246
11074WAT      O33463   4.029   6.487   9.552
11074WAT     H133464   4.088   6.568   9.552
11074WAT     H233465   4.022   6.451   9.645
11075WAT      O33466   4.875   1.804   8.951
11075WAT     H133467   4.920   1.714   8.948
11075WAT     H233468   4.900   1.851   9.035
11076WAT      O33469   0.303   2.824   9.208
11076WAT     H133470   0.215   2.841   9.164
11076WAT     H233471   0.338   2.735   9.179
11077WAT      O33472   2.014   2.870   1.103
11077WAT     H133473   1.918   2.898   1.110
11077WAT     H233474   2.073   2.950   1.111
11078WAT      O33475   7.171   2.054   1.783
11078WAT     H133476   7.246   2.050   1.849
11078WAT     H233477   7.084   2.063   1.831
11079WAT      O33478   2.277   8.290   7.471
11079WAT     H133479   2.356   8.286   7.533
11079WAT     H233480   2.218   8.211   7.489
11080WAT      O33481   3.751   9.290   3.563
11080WAT     H133482   3.798   9.371   3.528
11080WAT     H233483   3.699   9.315   3.645
11081WAT      O33484   9.114   8.668   0.981
11081WAT     H133485   9.076   8.576   0.988
11081WAT     H233486   9.213   8.664   0.994
11082WAT      O33487   5.149   0.662   9.526
11082WAT     H133488   5.067   0.653   9.582
11082WAT     H233489   5.152   0.752   9.484
11083WAT      O33490   7.226   2.905   2.025
11083WAT     H133491   7.306   2.964   2.018
11083WAT     H233492   7.200   2.896   2.121
11084WAT      O33493   5.830   3.431   7.640
11084WAT     H133494   5.737   3.418   7.603
11084WAT     H233495   5.892   3.367   7.596
11085WAT      O33496   9.052   3.516   6.468
11085WAT     H133497   9.144   3.553   6.453
11085WAT     H233498   9.002   3.576   6.530
11086WAT      O33499   6.147   8.354   5.796
11086WAT     H133500   6.065   8.298   5.780
11086WAT     H233501   6.143   8.437   5.740
11087WAT      O33502   4.455   1.439   2.040
11087WAT     H133503   4.461   1.464   1.943
11087WAT     H233504   4.392   1.363   2.051
11088WAT      O33505   8.740   9.614   0.698
11088WAT     H133506   8.765   9.590   0.605
11088WAT     H233507   8.749   9.533   0.757
11089WAT      O33508   8.119   7.447   3.597
11089WAT     H133509   8.212   7.413   3.606
11089WAT     H233510   8.064   7.382   3.544
11090WAT      O33511   6.244   0.380   7.729
11090WAT     H133512   6.165   0.438   7.710
11090WAT     H233513   6.213   0.288   7.750
11091WAT      O33514   5.610   9.068   3.957
11091WAT     H133515   5.546   9.070   4.034
11091WAT     H233516   5.616   9.159   3.916
11092WAT      O33517   1.541   9.569   3.377
11092WAT     H133518   1.539   9.634   3.301
11092WAT     H233519   1.519   9.617   3.462
11093WAT      O33520   1.616   9.396   9.085
11093WAT     H133521   1.592   9.303   9.059
11093WAT     H233522   1.686   9.394   9.158
11094WAT      O33523   1.097   3.853   2.451
11094WAT     H133524   1.069   3.937   2.498
11094WAT     H233525   1.150   3.877   2.369
11095WAT      O33526   9.228   0.517   8.841
11095WAT     H133527   9.265   0.461   8.767
11095WAT     H233528   9.236   0.614   8.817
11096WAT      O33529   3.929   0.318   8.064
11096WAT     H133530   3.910   0.321   7.965
11096WAT     H233531   3.975   0.232   8.086
11097WAT      O33532   4.445   6.448   0.281
11097WAT     H133533   4.368   6.474   0.222
11097WAT     H233534   4.491   6.531   0.313
11098WAT      O33535   7.143   9.545   1.100
11098WAT     H133536   7.081   9.558   1.023
11098WAT     H233537   7.237   9.548   1.068
11099WAT      O33538   0.138   7.815   2.825
11099WAT     H133539   0.061   7.813   2.762
11099WAT     H233540   0.183   7.725   2.825
11100WAT      O33541   7.170   2.575   3.219
11100WAT     H133542   7.237   2.589   3.146
11100WAT     H233543   7.142   2.479   3.222
11101WAT      O33544   5.792   6.580   4.346
11101WAT     H133545   5.812   6.630   4.261
11101WAT     H233546   5.776   6.645   4.420
11102WAT      O33547   3.479   0.544   6.550
11102WAT     H133548   3.407   0.477   6.532
11102WAT     H233549   3.464   0.624   6.491
11103WAT      O33550   5.681   4.082   4.798
11103WAT     H133551   5.631   4.114   4.718
11103WAT     H233552   5.629   4.104   4.881
11104WAT      O33553   3.089   8.734   4.862
11104WAT     H133554   3.011   8.722   4.800
11104WAT     H233555   3.147   8.808   4.828
11105WAT      O33556   9.358   0.036   1.039
11105WAT     H133557   9.390   0.090   0.962
11105WAT     H233558   9.307   0.094   1.103
11106WAT      O33559   5.352   1.996   7.052
11106WAT     H133560   5.387   2.043   6.970
11106WAT     H233561   5.268   1.947   7.028
11107WAT      O33562   9.746   7.012   8.589
11107WAT     H133563   9.755   7.050   8.497
11107WAT     H233564   9.821   6.947   8.605
11108WAT      O33565   8.409   0.286   5.969
11108WAT     H133566   8.318   0.271   5.930
11108WAT     H233567   8.402   0.290   6.069
11109WAT      O33568   3.050   5.608   8.004
11109WAT     H133569   3.035   5.517   8.041
11109WAT     H233570   3.091   5.666   8.074
11110WAT      O33571   3.997   8.091   7.681
11110WAT     H133572   4.032   8.171   7.730
11110WAT     H233573   3.914   8.059   7.726
11111WAT      O33574   0.709   4.301   0.440
11111WAT     H133575   0.656   4.378   0.477
11111WAT     H233576   0.775   4.270   0.508
11112WAT      O33577   4.345   7.410   3.560
11112WAT     H133578   4.416   7.376   3.622
11112WAT     H233579   4.269   7.345   3.557
11113WAT      O33580   5.801   7.259   6.155
11113WAT     H133581   5.701   7.266   6.161
11113WAT     H233582   5.829   7.167   6.181
11114WAT      O33583   5.758   0.957   7.505
11114WAT     H133584   5.757   0.982   7.602
11114WAT     H233585   5.808   0.872   7.493
11115WAT      O33586   8.875   2.612   3.935
11115WAT     H133587   8.871   2.560   4.021
11115WAT     H233588   8.812   2.690   3.941
11116WAT      O33589   0.527   1.328   4.025
11116WAT     H133590   0.599   1.340   3.957
11116WAT     H233591   0.438   1.351   3.985
11117WAT      O33592   1.113   0.312   5.323
11117WAT     H133593   1.202   0.354   5.308
11117WAT     H233594   1.083   0.266   5.239
11118WAT      O33595   8.397   6.386   6.560
11118WAT     H133596   8.469   6.336   6.609
11118WAT     H233597   8.326   6.321   6.531
11119WAT      O33598   2.158   2.775   2.260
11119WAT     H133599   2.219   2.701   2.287
11119WAT     H233600   2.132   2.828   2.340
11120WAT      O33601   9.892   0.351   8.017
11120WAT     H133602   9.820   0.322   7.953
11120WAT     H233603   9.855   0.421   8.079
11121WAT      O33604   6.389   0.404   3.371
11121WAT     H133605   6.317   0.458   3.327
11121WAT     H233606   6.411   0.444   3.459
11122WAT      O33607   5.405   6.834   4.780
11122WAT     H133608   5.366   6.752   4.739
11122WAT     H233609   5.447   6.811   4.868
11123WAT      O33610   9.664   2.504   9.073
11123WAT     H133611   9.620   2.520   9.161
11123WAT     H233612   9.671   2.406   9.056
11124WAT      O33613   4.872   2.879   5.019
11124WAT     H133614   4.789   2.868   5.074
11124WAT     H233615   4.893   2.794   4.972
11125WAT      O33616   6.383   2.123   3.878
11125WAT     H133617   6.302   2.086   3.832
11125WAT     H233618   6.373   2.113   3.977
11126WAT      O33619   8.545   4.464   1.197
11126WAT     H133620   8.534   4.552   1.151
11126WAT     H233621   8.556   4.391   1.129
11127WAT      O33622   0.283   0.123   2.769
11127WAT     H133623   0.362   0.176   2.739
11127WAT     H233624   0.222   0.181   2.823
11128WAT      O33625   5.149   6.483   3.913
11128WAT     H133626   5.113   6.393   3.888
11128WAT     H233627   5.084   6.530   3.973
11129WAT      O33628   3.426   1.853   8.641
11129WAT     H133629   3.500   1.822   8.700
11129WAT     H233630   3.404   1.782   8.574
11130WAT      O33631   2.778   4.274   9.570
11130WAT     H133632   2.765   4.373   9.572
11130WAT     H233633   2.690   4.228   9.585
11131WAT      O33634   4.771   0.149   8.708
11131WAT     H133635   4.737   0.077   8.768
11131WAT     H233636   4.840   0.203   8.756
11132WAT      O33637   5.021   6.539   2.793
11132WAT     H133638   5.089   6.553   2.721
11132WAT     H233639   5.064   6.553   2.882
11133WAT      O33640   4.067   7.938   8.288
11133WAT     H133641   4.154   7.984   8.303
11133WAT     H233642   4.044   7.941   8.191
11134WAT      O33643   7.181   5.991   6.697
11134WAT     H133644   7.162   5.999   6.599
11134WAT     H233645   7.109   6.036   6.749
11135WAT      O33646   0.612   0.311   1.251
11135WAT     H133647   0.571   0.363   1.326
11135WAT     H233648   0.708   0.338   1.239
11136WAT      O33649   9.732   8.554   2.294
11136WAT     H133650   9.776   8.558   2.383
11136WAT     H233651   9.683   8.467   2.286
11137WAT      O33652   2.982   5.447   6.063
11137WAT     H133653   2.972   5.366   6.005
11137WAT     H233654   2.947   5.427   6.154
11138WAT      O33655   6.700   7.874   0.040
11138WAT     H133656   6.739   7.961   0.011
11138WAT     H233657   6.610   7.889   0.080
11139WAT      O33658   9.355   4.179   0.995
11139WAT     H133659   9.320   4.090   1.025
11139WAT     H233660   9.384   4.232   1.074
11140WAT      O33661   1.654   3.960   4.242
11140WAT     H133662   1.630   4.044   4.291
11140WAT     H233663   1.572   3.920   4.202
11141WAT      O33664   1.538   5.245   4.556
11141WAT     H133665   1.483   5.219   4.476
11141WAT     H233666   1.635   5.239   4.533
11142WAT      O33667   0.978   5.557   0.094
11142WAT     H133668   0.991   5.585   0.189
11142WAT     H233669   0.940   5.633   0.042
11143WAT      O33670   9.060   0.941   4.499
11143WAT     H133671   8.986   0.981   4.555
11143WAT     H233672   9.120   0.887   4.558
11144WAT      O33673   6.774   1.922   7.128
11144WAT     H133674   6.868   1.955   7.121
11144WAT     H233675   6.722   1.981   7.190
11145WAT      O33676   7.820   1.821   0.487
11145WAT     H133677   7.740   1.877   0.466
11145WAT     H233678   7.813   1.786   0.580
11146WAT      O33679   7.381   5.511   6.956
11146WAT     H133680   7.333   5.488   7.041
11146WAT     H233681   7.415   5.605   6.962
11147WAT      O33682   3.756   6.440   7.182
11147WAT     H133683   3.849   6.475   7.187
11147WAT     H233684   3.716   6.464   7.093
11148WAT      O33685   8.215   9.136   9.722
11148WAT     H133686   8.287   9.153   9.789
11148WAT     H233687   8.228   9.195   9.643
11149WAT      O33688   7.591   6.338   7.040
11149WAT     H133689   7.560   6.360   7.132
11149WAT     H233690   7.691   6.337   7.037
11150WAT      O33691   0.453   3.288   8.267
11150WAT     H133692   0.393   3.238   8.205
11150WAT     H233693   0.549   3.273   8.240
11151WAT      O33694   3.051   6.528   1.801
11151WAT     H133695   3.041   6.554   1.897
11151WAT     H233696   3.080   6.432   1.795
11152WAT      O33697   2.739   4.881   8.610
11152WAT     H133698   2.819   4.821   8.612
11152WAT     H233699   2.655   4.826   8.613
11153WAT      O33700   9.165   1.784   1.222
11153WAT     H133701   9.077   1.786   1.175
11153WAT     H233702   9.171   1.703   1.279
11154WAT      O33703   7.304   2.993   2.632
11154WAT     H133704   7.212   2.967   2.659
11154WAT     H233705   7.343   3.054   2.702
11155WAT      O33706   9.187   3.017   3.462
11155WAT     H133707   9.150   2.959   3.389
11155WAT     H233708   9.157   3.111   3.447
11156WAT      O33709   0.738   5.271   6.953
11156WAT     H133710   0.680   5.353   6.945
11156WAT     H233711   0.708   5.216   7.031
11157WAT      O33712   2.841   9.462   1.003
11157WAT     H133713   2.805   9.530   0.939
11157WAT     H233714   2.785   9.460   1.085
11158WAT      O33715   4.784   4.092   4.777
11158WAT     H133716   4.857   4.149   4.740
11158WAT     H233717   4.822   4.030   4.846
11159WAT      O33718   2.409   0.870   6.207
11159WAT     H133719   2.378   0.919   6.288
11159WAT     H233720   2.344   0.797   6.186
11160WAT      O33721   3.363   2.303   2.427
11160WAT     H133722   3.308   2.283   2.345
11160WAT     H233723   3.342   2.395   2.459
11161WAT      O33724   1.725   1.260   9.367
11161WAT     H133725   1.632   1.296   9.372
11161WAT     H233726   1.766   1.262   9.458
11162WAT      O33727   2.635   4.878   3.805
11162WAT     H133728   2.694   4.865   3.725
11162WAT     H233729   2.601   4.789   3.836
11163WAT      O33730   0.008   9.474   0.020
11163WAT     H133731  -0.009   9.376   0.008
11163WAT     H233732  -0.079   9.523   0.025
11164WAT      O33733   0.532   4.946   8.882
11164WAT     H133734   0.575   4.898   8.805
11164WAT     H233735   0.437   4.966   8.859
11165WAT      O33736   8.518   5.447   2.151
11165WAT     H133737   8.604   5.496   2.166
11165WAT     H233738   8.441   5.508   2.172
11166WAT      O33739   9.577   4.143   4.786
11166WAT     H133740   9.611   4.206   4.856
11166WAT     H233741   9.555   4.055   4.829
11167WAT      O33742   9.150   2.350   0.049
11167WAT     H133743   9.061   2.328   0.008
11167WAT     H233744   9.170   2.447   0.037
11168WAT      O33745   3.770   1.967   4.818
11168WAT     H133746   3.746   2.062   4.800
11168WAT     H233747   3.687   1.916   4.840
11169WAT      O33748   0.529   2.697   3.848
11169WAT     H133749   0.568   2.765   3.786
11169WAT     H233750   0.578   2.700   3.936
11170WAT      O33751   2.567   8.473   5.880
11170WAT     H133752   2.580   8.432   5.790
11170WAT     H233753   2.624   8.554   5.889
11171WAT      O33754   5.171   4.448   2.289
11171WAT     H133755   5.119   4.363   2.283
11171WAT     H233756   5.154   4.492   2.377
11172WAT      O33757   4.641   5.337   7.055
11172WAT     H133758   4.562   5.314   7.112
11172WAT     H233759   4.690   5.253   7.032
11173WAT      O33760   7.317   0.765   4.650
11173WAT     H133761   7.337   0.693   4.716
11173WAT     H233762   7.323   0.727   4.557
11174WAT      O33763   5.426   3.539   2.917
11174WAT     H133764   5.406   3.607   2.988
11174WAT     H233765   5.462   3.585   2.836
11175WAT      O33766   8.924   5.725   7.228
11175WAT     H133767   8.912   5.643   7.171
11175WAT     H233768   8.985   5.789   7.183
11176WAT      O33769   0.741   4.798   3.783
11176WAT     H133770   0.648   4.769   3.805
11176WAT     H233771   0.739   4.892   3.750
11177WAT      O33772   6.637   5.989   1.397
11177WAT     H133773   6.681   5.900   1.380
11177WAT     H233774   6.574   5.980   1.473
11178WAT      O33775   1.098   6.853   1.898
11178WAT     H133776   1.046   6.854   1.812
11178WAT     H233777   1.194   6.833   1.878
11179WAT      O33778   3.855   6.163   7.563
11179WAT     H133779   3.912   6.244   7.547
11179WAT     H233780   3.852   6.107   7.480
11180WAT      O33781   4.265   2.998   5.090
11180WAT     H133782   4.187   3.000   5.028
11180WAT     H233783   4.236   2.960   5.178
11181WAT      O33784   4.282   2.515   0.203
11181WAT     H133785   4.249   2.573   0.129
11181WAT     H233786   4.358   2.561   0.250
11182WAT      O33787   8.222   1.110   1.359
11182WAT     H133788   8.184   1.148   1.443
11182WAT     H233789   8.322   1.103   1.368
11183WAT      O33790   5.647   2.697   9.832
11183WAT     H133791   5.569   2.721   9.890
11183WAT     H233792   5.654   2.762   9.756
11184WAT      O33793   0.425   6.404   2.817
11184WAT     H133794   0.360   6.442   2.884
11184WAT     H233795   0.403   6.308   2.801
11185WAT      O33796   2.820   1.175   8.297
11185WAT     H133797   2.856   1.185   8.390
11185WAT     H233798   2.721   1.166   8.301
11186WAT      O33799   9.843   6.402   0.730
11186WAT     H133800   9.810   6.307   0.728
11186WAT     H233801   9.900   6.419   0.650
11187WAT      O33802   2.507   7.493   8.874
11187WAT     H133803   2.470   7.546   8.798
11187WAT     H233804   2.456   7.514   8.957
11188WAT      O33805   1.546   2.212   4.898
11188WAT     H133806   1.642   2.191   4.880
11188WAT     H233807   1.489   2.167   4.829
11189WAT      O33808   3.585   6.901   4.978
11189WAT     H133809   3.538   6.834   5.035
11189WAT     H233810   3.613   6.979   5.034
11190WAT      O33811   4.059   2.143   4.329
11190WAT     H133812   4.115   2.074   4.375
11190WAT     H233813   4.027   2.210   4.396
11191WAT      O33814   8.746   4.160   1.233
11191WAT     H133815   8.828   4.200   1.193
11191WAT     H233816   8.666   4.182   1.176
11192WAT      O33817   9.576   9.104   1.583
11192WAT     H133818   9.562   9.151   1.496
11192WAT     H233819   9.607   9.010   1.566
11193WAT      O33820   4.822   6.005   2.807
11193WAT     H133821   4.868   6.017   2.895
11193WAT     H233822   4.888   6.016   2.733
11194WAT      O33823   4.234   8.689   6.229
11194WAT     H133824   4.154   8.748   6.240
11194WAT     H233825   4.300   8.708   6.302
11195WAT      O33826   3.916   6.372   5.991
11195WAT     H133827   3.851   6.296   5.996
11195WAT     H233828   3.954   6.389   6.082
11196WAT      O33829   0.098   6.906   2.221
11196WAT     H133830   0.051   6.978   2.171
11196WAT     H233831   0.064   6.903   2.315
11197WAT      O33832   9.623   0.200   7.257
11197WAT     H133833   9.697   0.150   7.213
11197WAT     H233834   9.659   0.256   7.331
11198WAT      O33835   2.331   3.585   5.296
11198WAT     H133836   2.308   3.662   5.237
11198WAT     H233837   2.276   3.589   5.379
11199WAT      O33838   0.108   9.444   6.070
11199WAT     H133839   0.052   9.412   5.993
11199WAT     H233840   0.189   9.492   6.034
11200WAT      O33841   7.711   5.820   1.199
11200WAT     H133842   7.789   5.805   1.259
11200WAT     H233843   7.656   5.736   1.193
11201WAT      O33844   5.186   9.451   7.132
11201WAT     H133845   5.109   9.396   7.098
11201WAT     H233846   5.266   9.393   7.145
11202WAT      O33847   3.414   6.030   4.093
11202WAT     H133848   3.347   6.055   4.163
11202WAT     H233849   3.462   6.112   4.063
11203WAT      O33850   7.317   1.459   1.741
11203WAT     H133851   7.383   1.518   1.694
11203WAT     H233852   7.337   1.458   1.839
11204WAT      O33853   2.392   0.166   3.542
11204WAT     H133854   2.468   0.193   3.481
11204WAT     H233855   2.311   0.145   3.487
11205WAT      O33856   0.766   9.336   3.530
11205WAT     H133857   0.695   9.389   3.482
11205WAT     H233858   0.839   9.312   3.465
11206WAT      O33859   7.140   6.849   6.106
11206WAT     H133860   7.172   6.755   6.122
11206WAT     H233861   7.083   6.878   6.183
11207WAT      O33862   4.524   5.254   8.563
11207WAT     H133863   4.597   5.185   8.563
11207WAT     H233864   4.451   5.225   8.501
11208WAT      O33865   3.770   9.365   0.772
11208WAT     H133866   3.838   9.301   0.808
11208WAT     H233867   3.816   9.436   0.719
11209WAT      O33868   2.963   8.869   7.240
11209WAT     H133869   3.039   8.814   7.206
11209WAT     H233870   2.967   8.874   7.340
11210WAT      O33871   5.085   9.178   4.608
11210WAT     H133872   5.175   9.135   4.612
11210WAT     H233873   5.039   9.167   4.696
11211WAT      O33874   2.511   7.601   2.219
11211WAT     H133875   2.443   7.601   2.145
11211WAT     H233876   2.549   7.509   2.229
11212WAT      O33877   2.078   5.742   9.820
11212WAT     H133878   2.012   5.693   9.877
11212WAT     H233879   2.129   5.807   9.876
11213WAT      O33880   1.019   2.523   7.283
11213WAT     H133881   1.095   2.572   7.324
11213WAT     H233882   0.957   2.588   7.239
11214WAT      O33883   6.245   3.649   7.598
11214WAT     H133884   6.199   3.610   7.518
11214WAT     H233885   6.206   3.739   7.618
11215WAT      O33886   2.805   7.755   9.312
11215WAT     H133887   2.752   7.706   9.381
11215WAT     H233888   2.812   7.700   9.229
11216WAT      O33889   1.894   7.315   2.004
11216WAT     H133890   1.809   7.363   2.026
11216WAT     H233891   1.944   7.366   1.934
11217WAT      O33892   6.226   7.566   9.341
11217WAT     H133893   6.230   7.592   9.244
11217WAT     H233894   6.268   7.639   9.396
11218WAT      O33895   4.687   0.778   2.975
11218WAT     H133896   4.629   0.729   2.910
11218WAT     H233897   4.631   0.845   3.024
11219WAT      O33898   0.134   8.856   0.571
11219WAT     H133899   0.155   8.764   0.604
11219WAT     H233900   0.171   8.867   0.479
11220WAT      O33901   3.781   7.550   4.886
11220WAT     H133902   3.765   7.548   4.985
11220WAT     H233903   3.805   7.643   4.858
11221WAT      O33904   4.528   6.872   8.004
11221WAT     H133905   4.470   6.838   7.930
11221WAT     H233906   4.509   6.819   8.087
11222WAT      O33907   2.251   1.456   9.212
11222WAT     H133908   2.296   1.459   9.122
11222WAT     H233909   2.154   1.434   9.200
11223WAT      O33910   1.210   7.085   0.782
11223WAT     H133911   1.280   7.024   0.746
11223WAT     H233912   1.149   7.034   0.842
11224WAT      O33913   9.485   7.882   2.563
11224WAT     H133914   9.478   7.832   2.476
11224WAT     H233915   9.473   7.818   2.639
11225WAT      O33916   8.871   0.538   4.647
11225WAT     H133917   8.930   0.608   4.687
11225WAT     H233918   8.908   0.448   4.667
11226WAT      O33919   0.173   8.094   5.090
11226WAT     H133920   0.111   8.162   5.129
11226WAT     H233921   0.262   8.099   5.136
11227WAT      O33922   8.031   4.761   0.521
11227WAT     H133923   8.087   4.833   0.481
11227WAT     H233924   8.013   4.782   0.617
11228WAT      O33925   2.584   3.986   7.228
11228WAT     H133926   2.614   4.068   7.278
11228WAT     H233927   2.484   3.985   7.224
11229WAT      O33928   6.952   2.239   2.769
11229WAT     H133929   6.855   2.217   2.783
11229WAT     H233930   7.008   2.173   2.820
11230WAT      O33931   9.609   1.942   3.512
11230WAT     H133932   9.647   1.865   3.461
11230WAT     H233933   9.529   1.911   3.564
11231WAT      O33934   8.025   5.354   1.980
11231WAT     H133935   7.939   5.313   1.949
11231WAT     H233936   8.100   5.321   1.923
11232WAT      O33937   4.356   4.275   7.832
11232WAT     H133938   4.314   4.358   7.868
11232WAT     H233939   4.454   4.290   7.819
11233WAT      O33940   8.823   4.891   5.474
11233WAT     H133941   8.865   4.962   5.531
11233WAT     H233942   8.893   4.849   5.417
11234WAT      O33943   5.302   1.937   7.563
11234WAT     H133944   5.290   1.840   7.586
11234WAT     H233945   5.235   1.992   7.613
11235WAT      O33946   7.466   1.167   8.492
11235WAT     H133947   7.388   1.110   8.464
11235WAT     H233948   7.547   1.139   8.441
11236WAT      O33949   4.971   2.756   4.054
11236WAT     H133950   4.970   2.808   4.139
11236WAT     H233951   4.943   2.662   4.072
11237WAT      O33952   6.879   0.309   5.338
11237WAT     H133953   6.796   0.359   5.364
11237WAT     H233954   6.863   0.260   5.252
11238WAT      O33955   4.180   0.051   2.612
11238WAT     H133956   4.094   0.001   2.613
11238WAT     H233957   4.165   0.144   2.643
11239WAT      O33958   7.010   7.292   6.684
11239WAT     H133959   6.933   7.278   6.623
11239WAT     H233960   6.983   7.271   6.778
11240WAT      O33961   9.407   2.079   2.650
11240WAT     H133962   9.401   1.982   2.675
11240WAT     H233963   9.361   2.094   2.563
11241WAT      O33964   4.298   2.710   9.186
11241WAT     H133965   4.331   2.799   9.216
11241WAT     H233966   4.272   2.655   9.266
11242WAT      O33967   6.217   5.875   0.806
11242WAT     H133968   6.256   5.791   0.845
11242WAT     H233969   6.118   5.865   0.797
11243WAT      O33970   0.601   5.079   9.816
11243WAT     H133971   0.583   4.983   9.838
11243WAT     H233972   0.699   5.094   9.808
11244WAT      O33973   4.800   0.928   0.042
11244WAT     H133974   4.748   0.854   0.001
11244WAT     H233975   4.892   0.930   0.002
11245WAT      O33976   8.803   4.565   6.228
11245WAT     H133977   8.713   4.568   6.185
11245WAT     H233978   8.798   4.509   6.311
11246WAT      O33979   2.970   6.220   7.048
11246WAT     H133980   2.965   6.189   7.143
11246WAT     H233981   2.921   6.156   6.989
11247WAT      O33982   9.304   7.444   7.314
11247WAT     H133983   9.256   7.530   7.332
11247WAT     H233984   9.363   7.423   7.391
11248WAT      O33985   7.650   9.204   1.111
11248WAT     H133986   7.589   9.261   1.165
11248WAT     H233987   7.597   9.139   1.057
11249WAT      O33988   1.547   2.374   5.350
11249WAT     H133989   1.583   2.400   5.261
11249WAT     H233990   1.504   2.453   5.393
11250WAT      O33991   0.680   2.466   8.604
11250WAT     H133992   0.614   2.444   8.532
11250WAT     H233993   0.773   2.451   8.570
11251WAT      O33994   2.973   8.447   6.388
11251WAT     H133995   3.070   8.429   6.405
11251WAT     H233996   2.951   8.539   6.422
11252WAT      O33997   7.771   7.109   9.784
11252WAT     H133998   7.848   7.142   9.838
11252WAT     H233999   7.774   7.153   9.693
11253WAT      O34000   2.336   8.809   1.417
11253WAT     H134001   2.423   8.799   1.368
11253WAT     H234002   2.338   8.895   1.469
11254WAT      O34003   0.672   8.358   3.707
11254WAT     H134004   0.727   8.380   3.626
11254WAT     H234005   0.580   8.333   3.678
11255WAT      O34006   4.147   2.784   1.101
11255WAT     H134007   4.073   2.736   1.148
11255WAT     H234008   4.111   2.826   1.017
11256WAT      O34009   9.269   3.509   6.786
11256WAT     H134010   9.280   3.425   6.731
11256WAT     H234011   9.239   3.485   6.878
11257WAT      O34012   4.154   3.813   4.983
11257WAT     H134013   4.171   3.804   5.081
11257WAT     H234014   4.056   3.824   4.967
11258WAT      O34015   5.766   1.841   2.026
11258WAT     H134016   5.772   1.747   1.993
11258WAT     H234017   5.690   1.888   1.980
11259WAT      O34018   7.298   0.699   3.676
11259WAT     H134019   7.344   0.635   3.614
11259WAT     H234020   7.238   0.648   3.737
11260WAT      O34021   6.928   3.816   4.251
11260WAT     H134022   6.965   3.729   4.217
11260WAT     H234023   6.845   3.838   4.200
11261WAT      O34024   1.279   9.143   7.458
11261WAT     H134025   1.228   9.099   7.532
11261WAT     H234026   1.343   9.209   7.496
11262WAT      O34027   3.538   3.617   1.990
11262WAT     H134028   3.608   3.550   1.965
11262WAT     H234029   3.580   3.693   2.039
11263WAT      O34030   5.757   9.112   7.763
11263WAT     H134031   5.732   9.094   7.858
11263WAT     H234032   5.839   9.060   7.739
11264WAT      O34033   6.165   0.563   1.347
11264WAT     H134034   6.149   0.645   1.291
11264WAT     H234035   6.087   0.550   1.408
11265WAT      O34036   7.333   8.023   4.321
11265WAT     H134037   7.389   8.105   4.310
11265WAT     H234038   7.238   8.043   4.296
11266WAT      O34039   0.014   5.561   4.071
11266WAT     H134040  -0.079   5.595   4.086
11266WAT     H234041   0.024   5.535   3.975
11267WAT      O34042   7.451   7.868   9.068
11267WAT     H134043   7.497   7.956   9.054
11267WAT     H234044   7.504   7.813   9.133
11268WAT      O34045   0.269   8.117   0.805
11268WAT     H134046   0.187   8.116   0.749
11268WAT     H234047   0.342   8.067   0.758
11269WAT      O34048   2.966   9.153   8.033
11269WAT     H134049   3.049   9.143   8.086
11269WAT     H234050   2.968   9.090   7.955
11270WAT      O34051   8.909   0.167   6.352
11270WAT     H134052   8.979   0.122   6.297
11270WAT     H234053   8.822   0.168   6.302
11271WAT      O34054   7.214   6.104   9.295
11271WAT     H134055   7.212   6.104   9.195
11271WAT     H234056   7.139   6.048   9.330
11272WAT      O34057   0.654   3.367   3.417
11272WAT     H134058   0.632   3.412   3.330
11272WAT     H234059   0.740   3.315   3.407
11273WAT      O34060   1.555   6.664   9.393
11273WAT     H134061   1.644   6.683   9.435
11273WAT     H234062   1.508   6.750   9.374
11274WAT      O34063   8.799   0.415   0.224
11274WAT     H134064   8.780   0.438   0.129
11274WAT     H234065   8.762   0.324   0.245
11275WAT      O34066   0.067   4.889   3.875
11275WAT     H134067  -0.032   4.890   3.892
11275WAT     H234068   0.103   4.799   3.898
11276WAT      O34069   2.617   0.852   0.625
11276WAT     H134070   2.552   0.922   0.654
11276WAT     H234071   2.576   0.762   0.637
11277WAT      O34072   4.539   3.546   2.450
11277WAT     H134073   4.575   3.588   2.534
11277WAT     H234074   4.444   3.573   2.437
11278WAT      O34075   0.012   7.251   0.642
11278WAT     H134076  -0.075   7.214   0.609
11278WAT     H234077   0.066   7.284   0.565
11279WAT      O34078   7.866   4.823   5.033
11279WAT     H134079   7.820   4.763   4.967
11279WAT     H234080   7.926   4.768   5.091
11280WAT      O34081   1.335   3.452   5.355
11280WAT     H134082   1.380   3.527   5.404
11280WAT     H234083   1.330   3.475   5.257
11281WAT      O34084   8.853   0.827   3.475
11281WAT     H134085   8.771   0.776   3.498
11281WAT     H234086   8.933   0.780   3.512
11282WAT      O34087   9.229   0.716   6.241
11282WAT     H134088   9.154   0.726   6.175
11282WAT     H234089   9.204   0.649   6.310
11283WAT      O34090   7.835   6.585   2.954
11283WAT     H134091   7.829   6.486   2.962
11283WAT     H234092   7.746   6.622   2.931
11284WAT      O34093   0.163   7.215   7.870
11284WAT     H134094   0.258   7.240   7.883
11284WAT     H234095   0.131   7.162   7.949
11285WAT      O34096   8.931   9.351   2.210
11285WAT     H134097   8.919   9.313   2.302
11285WAT     H234098   8.912   9.449   2.213
11286WAT      O34099   1.216   5.666   7.321
11286WAT     H134100   1.281   5.706   7.257
11286WAT     H234101   1.200   5.570   7.298
11287WAT      O34102   9.302   5.605   6.789
11287WAT     H134103   9.206   5.626   6.807
11287WAT     H234104   9.359   5.644   6.862
11288WAT      O34105   4.443   4.198   9.476
11288WAT     H134106   4.540   4.212   9.457
11288WAT     H234107   4.407   4.275   9.528
11289WAT      O34108   4.997   1.276   4.071
11289WAT     H134109   5.056   1.292   3.992
11289WAT     H234110   4.982   1.178   4.081
11290WAT      O34111   5.921   0.407   8.059
11290WAT     H134112   5.897   0.320   8.018
11290WAT     H234113   5.840   0.451   8.097
11291WAT      O34114   7.186   8.663   5.430
11291WAT     H134115   7.105   8.617   5.394
11291WAT     H234116   7.169   8.761   5.435
11292WAT      O34117   7.052   7.363   9.207
11292WAT     H134118   7.130   7.303   9.223
11292WAT     H234119   6.989   7.319   9.144
11293WAT      O34120   2.873   1.226   2.049
11293WAT     H134121   2.860   1.266   2.139
11293WAT     H234122   2.940   1.280   1.998
11294WAT      O34123   7.407   7.180   7.808
11294WAT     H134124   7.341   7.105   7.808
11294WAT     H234125   7.424   7.210   7.714
11295WAT      O34126   2.710   0.859   2.078
11295WAT     H134127   2.682   0.928   2.012
11295WAT     H234128   2.668   0.771   2.056
11296WAT      O34129   4.147   1.892   8.916
11296WAT     H134130   4.077   1.834   8.874
11296WAT     H234131   4.123   1.909   9.012
11297WAT      O34132   3.791   6.716   6.567
11297WAT     H134133   3.792   6.806   6.610
11297WAT     H234134   3.794   6.645   6.638
11298WAT      O34135   8.380   8.530   4.245
11298WAT     H134136   8.354   8.560   4.337
11298WAT     H234137   8.408   8.433   4.248
11299WAT      O34138   9.433   6.159   5.339
11299WAT     H134139   9.484   6.172   5.253
11299WAT     H234140   9.365   6.087   5.327
11300WAT      O34141   7.135   7.927   6.807
11300WAT     H134142   7.079   7.993   6.856
11300WAT     H234143   7.105   7.834   6.830
11301WAT      O34144   3.545   9.385   9.069
11301WAT     H134145   3.461   9.399   9.017
11301WAT     H234146   3.527   9.323   9.146
11302WAT      O34147   6.097   1.459   2.334
11302WAT     H134148   6.140   1.410   2.258
11302WAT     H234149   6.137   1.550   2.342
11303WAT      O34150   4.457   6.909   9.813
11303WAT     H134151   4.464   6.887   9.716
11303WAT     H234152   4.541   6.952   9.844
11304WAT      O34153   9.728   9.570   0.365
11304WAT     H134154   9.704   9.595   0.271
11304WAT     H234155   9.823   9.537   0.367
11305WAT      O34156   6.667   7.703   1.956
11305WAT     H134157   6.670   7.707   1.856
11305WAT     H234158   6.612   7.624   1.984
11306WAT      O34159   1.918   6.882   9.095
11306WAT     H134160   1.947   6.938   9.017
11306WAT     H234161   1.827   6.844   9.077
11307WAT      O34162   7.883   1.562   7.932
11307WAT     H134163   7.903   1.590   7.838
11307WAT     H234164   7.865   1.464   7.934
11308WAT      O34165   5.348   7.865   6.522
11308WAT     H134166   5.424   7.930   6.526
11308WAT     H234167   5.341   7.828   6.429
11309WAT      O34168   6.707   5.268   7.415
11309WAT     H134169   6.681   5.294   7.508
11309WAT     H234170   6.676   5.174   7.397
11310WAT      O34171   7.915   9.124   0.056
11310WAT     H134172   7.996   9.148   0.002
11310WAT     H234173   7.851   9.201   0.054
11311WAT      O34174   3.304   2.788   3.678
11311WAT     H134175   3.334   2.870   3.726
11311WAT     H234176   3.241   2.813   3.605
11312WAT      O34177   6.760   7.131   3.309
11312WAT     H134178   6.779   7.228   3.299
11312WAT     H234179   6.844   7.082   3.331
11313WAT      O34180   3.487   8.092   2.116
11313WAT     H134181   3.403   8.049   2.150
11313WAT     H234182   3.480   8.191   2.126
11314WAT      O34183   2.534   4.026   6.753
11314WAT     H134184   2.595   4.034   6.832
11314WAT     H234185   2.476   3.946   6.763
11315WAT      O34186   7.718   8.355   1.643
11315WAT     H134187   7.761   8.444   1.655
11315WAT     H234188   7.764   8.288   1.701
11316WAT      O34189   1.220   8.933   5.158
11316WAT     H134190   1.221   8.941   5.258
11316WAT     H234191   1.128   8.907   5.128
11317WAT      O34192   7.602   1.476   9.668
11317WAT     H134193   7.615   1.565   9.713
11317WAT     H234194   7.530   1.425   9.716
11318WAT      O34195   3.532   5.070   1.332
11318WAT     H134196   3.447   5.122   1.319
11318WAT     H234197   3.510   4.973   1.343
11319WAT      O34198   2.830   1.639   3.025
11319WAT     H134199   2.770   1.600   3.096
11319WAT     H234200   2.904   1.574   3.005
11320WAT      O34201   3.346   0.979   1.492
11320WAT     H134202   3.409   1.051   1.524
11320WAT     H234203   3.315   1.000   1.400
11321WAT      O34204   9.287   5.599   8.190
11321WAT     H134205   9.288   5.621   8.093
11321WAT     H234206   9.373   5.556   8.215
11322WAT      O34207   2.085   3.867   1.339
11322WAT     H134208   2.148   3.816   1.397
11322WAT     H234209   2.041   3.804   1.275
11323WAT      O34210   1.080   3.369   2.546
11323WAT     H134211   1.141   3.439   2.582
11323WAT     H234212   0.986   3.387   2.577
11324WAT      O34213   0.836   1.925   6.994
11324WAT     H134214   0.878   1.947   7.082
11324WAT     H234215   0.903   1.879   6.936
11325WAT      O34216   8.037   9.138   4.197
11325WAT     H134217   8.128   9.161   4.233
11325WAT     H234218   7.992   9.075   4.260
11326WAT      O34219   2.024   0.422   0.939
11326WAT     H134220   1.935   0.438   0.982
11326WAT     H234221   2.036   0.324   0.922
11327WAT      O34222   0.538   6.104   1.955
11327WAT     H134223   0.631   6.131   1.981
11327WAT     H234224   0.537   6.077   1.859
11328WAT      O34225   5.257   2.754   3.227
11328WAT     H134226   5.269   2.819   3.152
11328WAT     H234227   5.236   2.803   3.311
11329WAT      O34228   4.261   2.071   8.738
11329WAT     H134229   4.225   2.003   8.801
11329WAT     H234230   4.232   2.163   8.767
11330WAT      O34231   9.621   1.124   9.572
11330WAT     H134232   9.573   1.184   9.508
11330WAT     H234233   9.672   1.055   9.521
11331WAT      O34234   9.835   1.334   7.372
11331WAT     H134235   9.923   1.354   7.330
11331WAT     H234236   9.833   1.239   7.402
11332WAT      O34237   3.819   4.821   9.187
11332WAT     H134238   3.908   4.803   9.144
11332WAT     H234239   3.747   4.774   9.135
11333WAT      O34240   4.519   3.362   0.073
11333WAT     H134241   4.445   3.370   0.140
11333WAT     H234242   4.604   3.337   0.120
11334WAT      O34243   3.064   2.322   4.836
11334WAT     H134244   2.999   2.293   4.906
11334WAT     H234245   3.029   2.296   4.746
11335WAT      O34246   5.141   5.299   1.764
11335WAT     H134247   5.063   5.300   1.827
11335WAT     H234248   5.132   5.373   1.698
11336WAT      O34249   5.438   3.595   8.308
11336WAT     H134250   5.532   3.582   8.274
11336WAT     H234251   5.387   3.651   8.243
11337WAT      O34252   4.472   0.279   6.963
11337WAT     H134253   4.443   0.223   6.885
11337WAT     H234254   4.412   0.359   6.970
11338WAT      O34255   6.360   0.684   2.497
11338WAT     H134256   6.383   0.734   2.414
11338WAT     H234257   6.437   0.625   2.523
11339WAT      O34258   2.353   7.226   1.558
11339WAT     H134259   2.349   7.127   1.552
11339WAT     H234260   2.425   7.253   1.622
11340WAT      O34261   3.293   0.368   9.486
11340WAT     H134262   3.357   0.305   9.529
11340WAT     H234263   3.265   0.332   9.397
11341WAT      O34264   3.578   9.390   0.961
11341WAT     H134265   3.547   9.297   0.980
11341WAT     H234266   3.634   9.390   0.878
11342WAT      O34267   7.602   8.894   7.217
11342WAT     H134268   7.510   8.875   7.253
11342WAT     H234269   7.613   8.848   7.129
11343WAT      O34270   9.862   8.705   9.356
11343WAT     H134271   9.850   8.789   9.303
11343WAT     H234272   9.808   8.632   9.314
11344WAT      O34273   1.905   5.302   6.615
11344WAT     H134274   2.000   5.332   6.614
11344WAT     H234275   1.861   5.332   6.700
11345WAT      O34276   5.091   0.747   1.040
11345WAT     H134277   5.036   0.790   0.968
11345WAT     H234278   5.049   0.767   1.129
11346WAT      O34279   4.846   8.862   2.130
11346WAT     H134280   4.856   8.781   2.189
11346WAT     H234281   4.758   8.906   2.149
11347WAT      O34282   3.736   0.070   8.652
11347WAT     H134283   3.777  -0.003   8.597
11347WAT     H234284   3.672   0.030   8.718
11348WAT      O34285   1.615   7.091   1.476
11348WAT     H134286   1.531   7.144   1.464
11348WAT     H234287   1.645   7.057   1.386
11349WAT      O34288   1.315   1.244   2.861
11349WAT     H134289   1.364   1.309   2.918
11349WAT     H234290   1.235   1.210   2.911
11350WAT      O34291   0.356   9.042   2.780
11350WAT     H134292   0.423   8.977   2.743
11350WAT     H234293   0.404   9.123   2.813
11351WAT      O34294   0.101   7.669   1.764
11351WAT     H134295   0.027   7.642   1.702
11351WAT     H234296   0.181   7.697   1.711
11352WAT      O34297   4.557   4.062   5.439
11352WAT     H134298   4.598   4.150   5.416
11352WAT     H234299   4.463   4.058   5.404
11353WAT      O34300   4.398   7.846   7.458
11353WAT     H134301   4.431   7.761   7.501
11353WAT     H234302   4.341   7.823   7.379
11354WAT      O34303   8.766   5.591   4.768
11354WAT     H134304   8.790   5.583   4.865
11354WAT     H234305   8.849   5.609   4.715
11355WAT      O34306   2.369   7.163   5.393
11355WAT     H134307   2.420   7.240   5.431
11355WAT     H234308   2.324   7.114   5.467
11356WAT      O34309   0.007   1.316   4.690
11356WAT     H134310  -0.002   1.370   4.606
11356WAT     H234311   0.078   1.247   4.677
11357WAT      O34312   7.528   1.938   8.457
11357WAT     H134313   7.573   1.974   8.538
11357WAT     H234314   7.522   2.010   8.387
11358WAT      O34315   3.893   4.367   9.241
11358WAT     H134316   3.980   4.385   9.197
11358WAT     H234317   3.906   4.298   9.313
11359WAT      O34318   0.092   8.598   7.195
11359WAT     H134319   0.160   8.555   7.135
11359WAT     H234320   0.103   8.563   7.288
11360WAT      O34321   6.894   8.797   4.381
11360WAT     H134322   6.960   8.722   4.372
11360WAT     H234323   6.810   8.773   4.333
11361WAT      O34324   6.453   5.733   2.236
11361WAT     H134325   6.368   5.684   2.256
11361WAT     H234326   6.465   5.806   2.303
11362WAT      O34327   0.138   8.475   9.189
11362WAT     H134328   0.179   8.519   9.269
11362WAT     H234329   0.075   8.403   9.219
11363WAT      O34330   2.188   5.613   9.352
11363WAT     H134331   2.145   5.612   9.442
11363WAT     H234332   2.189   5.707   9.317
11364WAT      O34333   8.762   7.298   3.834
11364WAT     H134334   8.733   7.283   3.740
11364WAT     H234335   8.851   7.254   3.848
11365WAT      O34336   5.711   8.698   5.528
11365WAT     H134337   5.652   8.618   5.518
11365WAT     H234338   5.727   8.716   5.625
11366WAT      O34339   2.047   8.332   9.455
11366WAT     H134340   2.030   8.409   9.394
11366WAT     H234341   2.138   8.294   9.438
11367WAT      O34342   1.688   0.396   4.344
11367WAT     H134343   1.662   0.381   4.439
11367WAT     H234344   1.783   0.426   4.338
11368WAT      O34345   8.511   0.169   8.428
11368WAT     H134346   8.595   0.160   8.482
11368WAT     H234347   8.487   0.081   8.388
11369WAT      O34348   3.088   1.303   1.443
11369WAT     H134349   3.037   1.220   1.465
11369WAT     H234350   3.028   1.382   1.452
11370WAT      O34351   4.587   2.231   6.226
11370WAT     H134352   4.512   2.223   6.292
11370WAT     H234353   4.563   2.298   6.156
11371WAT      O34354   3.030   9.454   3.128
11371WAT     H134355   3.114   9.477   3.177
11371WAT     H234356   3.052   9.408   3.043
11372WAT      O34357   8.821   8.910   8.477
11372WAT     H134358   8.908   8.870   8.448
11372WAT     H234359   8.750   8.889   8.410
11373WAT      O34360   8.644   7.143   8.880
11373WAT     H134361   8.717   7.093   8.833
11373WAT     H234362   8.556   7.117   8.841
11374WAT      O34363   3.048   4.837   0.761
11374WAT     H134364   3.060   4.820   0.858
11374WAT     H234365   3.120   4.792   0.709
11375WAT      O34366   4.928   7.843   8.188
11375WAT     H134367   5.015   7.798   8.209
11375WAT     H234368   4.932   7.882   8.096
11376WAT      O34369   6.651   7.054   8.454
11376WAT     H134370   6.571   7.025   8.506
11376WAT     H234371   6.635   7.146   8.417
11377WAT      O34372   2.000   4.438   2.804
11377WAT     H134373   2.024   4.463   2.898
11377WAT     H234374   1.912   4.479   2.780
11378WAT      O34375   6.044   6.176   7.122
11378WAT     H134376   6.006   6.107   7.184
11378WAT     H234377   6.142   6.182   7.136
11379WAT      O34378   3.406   8.397   7.831
11379WAT     H134379   3.481   8.350   7.785
11379WAT     H234380   3.319   8.357   7.803
11380WAT      O34381   9.768   6.422   5.531
11380WAT     H134382   9.742   6.352   5.598
11380WAT     H234383   9.734   6.396   5.440
11381WAT      O34384   5.121   7.134   3.299
11381WAT     H134385   5.053   7.061   3.305
11381WAT     H234386   5.186   7.125   3.375
11382WAT      O34387   2.309   0.311   9.334
11382WAT     H134388   2.266   0.370   9.266
11382WAT     H234389   2.244   0.294   9.408
11383WAT      O34390   3.385   8.455   3.061
11383WAT     H134391   3.379   8.474   3.159
11383WAT     H234392   3.424   8.364   3.047
11384WAT      O34393   1.469   3.134   9.231
11384WAT     H134394   1.440   3.063   9.294
11384WAT     H234395   1.561   3.114   9.197
11385WAT      O34396   4.871   1.964   7.129
11385WAT     H134397   4.899   1.881   7.080
11385WAT     H234398   4.776   1.954   7.157
11386WAT      O34399   5.189   9.306   0.122
11386WAT     H134400   5.248   9.377   0.161
11386WAT     H234401   5.128   9.347   0.054
11387WAT      O34402   4.824   6.889   0.529
11387WAT     H134403   4.804   6.911   0.625
11387WAT     H234404   4.916   6.850   0.522
11388WAT      O34405   2.454   3.473   1.561
11388WAT     H134406   2.551   3.481   1.540
11388WAT     H234407   2.422   3.381   1.537
11389WAT      O34408   7.157   7.701   5.373
11389WAT     H134409   7.061   7.672   5.377
11389WAT     H234410   7.165   7.795   5.408
11390WAT      O34411   8.887   4.456   3.985
11390WAT     H134412   8.905   4.404   4.068
11390WAT     H234413   8.904   4.399   3.905
11391WAT      O34414   0.437   0.750   0.500
11391WAT     H134415   0.521   0.717   0.542
11391WAT     H234416   0.395   0.818   0.559
11392WAT      O34417   3.833   2.171   8.614
11392WAT     H134418   3.750   2.164   8.558
11392WAT     H234419   3.900   2.229   8.567
11393WAT      O34420   2.168   1.370   2.459
11393WAT     H134421   2.099   1.395   2.391
11393WAT     H234422   2.193   1.274   2.447
11394WAT      O34423   1.189   1.675   7.203
11394WAT     H134424   1.118   1.657   7.270
11394WAT     H234425   1.241   1.756   7.231
11395WAT      O34426   4.867   5.420   8.834
11395WAT     H134427   4.778   5.379   8.814
11395WAT     H234428   4.913   5.367   8.906
11396WAT      O34429   9.754   1.043   2.842
11396WAT     H134430   9.720   0.950   2.827
11396WAT     H234431   9.772   1.057   2.939
11397WAT      O34432   6.048   1.464   7.128
11397WAT     H134433   6.080   1.387   7.073
11397WAT     H234434   5.968   1.436   7.181
11398WAT      O34435   2.486   3.902   5.414
11398WAT     H134436   2.516   3.810   5.439
11398WAT     H234437   2.560   3.949   5.365
11399WAT      O34438   5.996   8.881   1.279
11399WAT     H134439   6.049   8.860   1.361
11399WAT     H234440   5.937   8.960   1.297
11400WAT      O34441   3.559   3.819   9.563
11400WAT     H134442   3.547   3.873   9.646
11400WAT     H234443   3.584   3.726   9.586
11401WAT      O34444   1.246   2.056   8.278
11401WAT     H134445   1.193   2.073   8.361
11401WAT     H234446   1.339   2.029   8.302
11402WAT      O34447   2.030   4.710   7.246
11402WAT     H134448   2.122   4.711   7.286
11402WAT     H234449   2.037   4.731   7.148
11403WAT      O34450   8.938   8.162   1.349
11403WAT     H134451   8.907   8.248   1.390
11403WAT     H234452   9.015   8.181   1.288
11404WAT      O34453   1.221   3.959   7.482
11404WAT     H134454   1.168   3.974   7.399
11404WAT     H234455   1.283   3.881   7.469
11405WAT      O34456   8.787   2.022   0.500
11405WAT     H134457   8.882   2.051   0.494
11405WAT     H234458   8.782   1.922   0.487
11406WAT      O34459   0.755   1.772   5.261
11406WAT     H134460   0.659   1.760   5.232
11406WAT     H234461   0.783   1.866   5.244
11407WAT      O34462   1.263   1.084   1.181
11407WAT     H134463   1.295   1.169   1.140
11407WAT     H234464   1.171   1.097   1.218
11408WAT      O34465   0.714   1.387   5.110
11408WAT     H134466   0.648   1.428   5.173
11408WAT     H234467   0.749   1.457   5.048
11409WAT      O34468   7.207   8.872   0.936
11409WAT     H134469   7.195   8.926   0.853
11409WAT     H234470   7.303   8.849   0.946
11410WAT      O34471   7.765   1.185   6.278
11410WAT     H134472   7.756   1.087   6.294
11410WAT     H234473   7.674   1.227   6.281
11411WAT      O34474   7.415   4.060   5.718
11411WAT     H134475   7.411   4.014   5.630
11411WAT     H234476   7.497   4.117   5.722
11412WAT      O34477   1.914   4.257   3.082
11412WAT     H134478   1.816   4.242   3.070
11412WAT     H234479   1.929   4.318   3.160
11413WAT      O34480   8.867   7.309   6.817
11413WAT     H134481   8.912   7.312   6.728
11413WAT     H234482   8.837   7.401   6.842
11414WAT      O34483   4.016   4.576   2.826
11414WAT     H134484   3.996   4.501   2.762
11414WAT     H234485   4.005   4.544   2.920
11415WAT      O34486   5.649   3.600   9.611
11415WAT     H134487   5.588   3.523   9.628
11415WAT     H234488   5.739   3.580   9.650
11416WAT      O34489   6.587   6.129   4.029
11416WAT     H134490   6.499   6.130   3.982
11416WAT     H234491   6.573   6.150   4.126
11417WAT      O34492   4.206   2.252   2.613
11417WAT     H134493   4.166   2.334   2.572
11417WAT     H234494   4.286   2.223   2.560
11418WAT      O34495   8.872   2.340   5.624
11418WAT     H134496   8.932   2.353   5.546
11418WAT     H234497   8.883   2.417   5.688
11419WAT      O34498   9.393   5.201   5.975
11419WAT     H134499   9.382   5.135   5.901
11419WAT     H234500   9.489   5.201   6.005
11420WAT      O34501   5.591   9.008   3.052
11420WAT     H134502   5.565   9.077   3.120
11420WAT     H234503   5.559   8.918   3.082
11421WAT      O34504   8.005   1.230   8.931
11421WAT     H134505   8.085   1.253   8.875
11421WAT     H234506   7.939   1.180   8.875
11422WAT      O34507   3.133   8.696   7.664
11422WAT     H134508   3.230   8.699   7.686
11422WAT     H234509   3.120   8.656   7.574
11423WAT      O34510   3.443   1.976   7.930
11423WAT     H134511   3.527   2.026   7.951
11423WAT     H234512   3.387   1.968   8.013
11424WAT      O34513   9.488   8.572   6.816
11424WAT     H134514   9.489   8.622   6.729
11424WAT     H234515   9.582   8.556   6.846
11425WAT      O34516   4.678   1.663   0.262
11425WAT     H134517   4.654   1.729   0.192
11425WAT     H234518   4.606   1.594   0.270
11426WAT      O34519   6.457   4.852   2.070
11426WAT     H134520   6.366   4.863   2.111
11426WAT     H234521   6.496   4.941   2.050
11427WAT      O34522   0.740   5.548   5.653
11427WAT     H134523   0.721   5.524   5.748
11427WAT     H234524   0.806   5.622   5.650
11428WAT      O34525   4.326   6.541   0.803
11428WAT     H134526   4.245   6.593   0.779
11428WAT     H234527   4.364   6.576   0.889
11429WAT      O34528   0.395   0.615   2.566
11429WAT     H134529   0.462   0.659   2.507
11429WAT     H234530   0.363   0.680   2.635
11430WAT      O34531   9.609   2.440   0.581
11430WAT     H134532   9.629   2.342   0.588
11430WAT     H234533   9.692   2.488   0.552
11431WAT      O34534   5.992   9.787   4.879
11431WAT     H134535   6.001   9.818   4.784
11431WAT     H234536   5.918   9.838   4.923
11432WAT      O34537   1.885   4.889   2.398
11432WAT     H134538   1.834   4.811   2.362
11432WAT     H234539   1.961   4.909   2.337
11433WAT      O34540   2.454   5.041   3.223
11433WAT     H134541   2.484   4.962   3.169
11433WAT     H234542   2.511   5.120   3.202
11434WAT      O34543   3.197   6.775   2.107
11434WAT     H134544   3.206   6.824   2.021
11434WAT     H234545   3.130   6.821   2.165
11435WAT      O34546   7.729   8.609   7.940
11435WAT     H134547   7.649   8.581   7.993
11435WAT     H234548   7.725   8.568   7.849
11436WAT      O34549   4.674   5.314   3.849
11436WAT     H134550   4.651   5.223   3.817
11436WAT     H234551   4.729   5.362   3.780
11437WAT      O34552   0.065   8.726   3.896
11437WAT     H134553   0.123   8.700   3.819
11437WAT     H234554   0.052   8.826   3.896
11438WAT      O34555   5.064   4.937   7.534
11438WAT     H134556   4.982   4.898   7.493
11438WAT     H234557   5.101   4.873   7.602
11439WAT      O34558   1.413   0.575   3.235
11439WAT     H134559   1.344   0.505   3.255
11439WAT     H234560   1.489   0.534   3.186
11440WAT      O34561   0.682   9.693   4.508
11440WAT     H134562   0.779   9.693   4.483
11440WAT     H234563   0.658   9.780   4.550
11441WAT      O34564   8.963   6.756   1.581
11441WAT     H134565   9.011   6.668   1.579
11441WAT     H234566   8.872   6.743   1.621
11442WAT      O34567   7.490   5.368   5.635
11442WAT     H134568   7.434   5.441   5.595
11442WAT     H234569   7.476   5.284   5.582
11443WAT      O34570   1.376   5.834   5.376
11443WAT     H134571   1.299   5.872   5.324
11443WAT     H234572   1.460   5.845   5.323
11444WAT      O34573   8.309   1.546   8.882
11444WAT     H134574   8.298   1.463   8.828
11444WAT     H234575   8.240   1.548   8.954
11445WAT      O34576   5.018   7.583   1.986
11445WAT     H134577   5.105   7.627   1.967
11445WAT     H234578   4.957   7.649   2.031
11446WAT      O34579   4.299   2.499   6.370
11446WAT     H134580   4.296   2.559   6.290
11446WAT     H234581   4.252   2.543   6.447
11447WAT      O34582   6.246   0.127   4.974
11447WAT     H134583   6.278   0.208   5.024
11447WAT     H234584   6.206   0.062   5.039
11448WAT      O34585   1.883   2.245   1.057
11448WAT     H134586   1.947   2.234   0.981
11448WAT     H234587   1.866   2.155   1.099
11449WAT      O34588   2.915   2.411   7.055
11449WAT     H134589   2.999   2.396   7.004
11449WAT     H234590   2.838   2.369   7.005
11450WAT      O34591   9.878   4.134   4.115
11450WAT     H134592   9.840   4.212   4.166
11450WAT     H234593   9.942   4.084   4.173
11451WAT      O34594   8.256   1.926   4.608
11451WAT     H134595   8.237   1.963   4.699
11451WAT     H234596   8.354   1.933   4.589
11452WAT      O34597   3.512   3.453   1.111
11452WAT     H134598   3.492   3.359   1.137
11452WAT     H234599   3.489   3.514   1.187
11453WAT      O34600   6.665   9.748   7.186
11453WAT     H134601   6.744   9.705   7.143
11453WAT     H234602   6.673   9.847   7.181
11454WAT      O34603   6.381   9.653   6.317
11454WAT     H134604   6.326   9.711   6.258
11454WAT     H234605   6.474   9.647   6.281
11455WAT      O34606   9.517   1.907   1.628
11455WAT     H134607   9.476   1.864   1.547
11455WAT     H234608   9.613   1.881   1.635
11456WAT      O34609   0.150   7.767   9.084
11456WAT     H134610   0.051   7.757   9.095
11456WAT     H234611   0.195   7.761   9.173
11457WAT      O34612   7.730   9.151   9.507
11457WAT     H134613   7.643   9.147   9.456
11457WAT     H234614   7.742   9.066   9.558
11458WAT      O34615   8.858   8.716   8.671
11458WAT     H134616   8.933   8.665   8.629
11458WAT     H234617   8.840   8.799   8.617
11459WAT      O34618   7.036   3.216   7.736
11459WAT     H134619   6.986   3.133   7.760
11459WAT     H234620   6.980   3.296   7.757
11460WAT      O34621   4.863   5.675   4.440
11460WAT     H134622   4.954   5.656   4.404
11460WAT     H234623   4.839   5.771   4.424
11461WAT      O34624   9.329   0.871   7.586
11461WAT     H134625   9.362   0.916   7.669
11461WAT     H234626   9.342   0.931   7.508
11462WAT      O34627   4.463   1.727   2.946
11462WAT     H134628   4.519   1.803   2.979
11462WAT     H234629   4.417   1.755   2.861
11463WAT      O34630   7.342   0.784   8.761
11463WAT     H134631   7.330   0.775   8.860
11463WAT     H234632   7.379   0.874   8.739
11464WAT      O34633   0.750   0.011   2.542
11464WAT     H134634   0.749  -0.062   2.474
11464WAT     H234635   0.660   0.054   2.547
11465WAT      O34636   7.828   6.321   5.905
11465WAT     H134637   7.798   6.245   5.848
11465WAT     H234638   7.749   6.372   5.937
11466WAT      O34639   7.573   6.663   2.060
11466WAT     H134640   7.550   6.642   1.965
11466WAT     H234641   7.519   6.742   2.090
11467WAT      O34642   0.712   0.042   1.600
11467WAT     H134643   0.702  -0.031   1.668
11467WAT     H234644   0.656   0.120   1.627
11468WAT      O34645   4.669   8.583   7.885
11468WAT     H134646   4.718   8.661   7.844
11468WAT     H234647   4.652   8.514   7.814
11469WAT      O34648   5.761   9.008   2.054
11469WAT     H134649   5.780   8.924   2.003
11469WAT     H234650   5.664   9.032   2.043
11470WAT      O34651   0.834   8.998   6.705
11470WAT     H134652   0.848   8.900   6.719
11470WAT     H234653   0.782   9.035   6.782
11471WAT      O34654   4.741   9.381   6.365
11471WAT     H134655   4.683   9.307   6.329
11471WAT     H234656   4.683   9.452   6.405
11472WAT      O34657   8.045   3.802   0.118
11472WAT     H134658   7.976   3.873   0.105
11472WAT     H234659   8.039   3.735   0.044
11473WAT      O34660   6.988   8.548   1.481
11473WAT     H134661   6.979   8.568   1.579
11473WAT     H234662   6.897   8.536   1.441
11474WAT      O34663   9.691   2.116   9.307
11474WAT     H134664   9.617   2.077   9.362
11474WAT     H234665   9.736   2.189   9.359
11475WAT      O34666   1.426   9.327   1.286
11475WAT     H134667   1.416   9.424   1.263
11475WAT     H234668   1.523   9.303   1.286
11476WAT      O34669   6.006   4.653   9.376
11476WAT     H134670   5.995   4.567   9.328
11476WAT     H234671   5.953   4.725   9.331
11477WAT      O34672   3.001   2.423   7.538
11477WAT     H134673   3.084   2.464   7.574
11477WAT     H234674   3.022   2.374   7.453
11478WAT      O34675   8.296   4.692   4.947
11478WAT     H134676   8.349   4.608   4.936
11478WAT     H234677   8.259   4.696   5.040
11479WAT      O34678   4.268   9.437   9.647
11479WAT     H134679   4.248   9.370   9.575
11479WAT     H234680   4.188   9.497   9.660
11480WAT      O34681   4.901   8.144   0.734
11480WAT     H134682   4.899   8.204   0.653
11480WAT     H234683   4.862   8.055   0.709
11481WAT      O34684   4.523   8.440   0.561
11481WAT     H134685   4.498   8.469   0.468
11481WAT     H234686   4.537   8.521   0.618
11482WAT      O34687   1.381   0.949   2.506
11482WAT     H134688   1.463   0.905   2.469
11482WAT     H234689   1.408   1.015   2.576
11483WAT      O34690   6.769   9.690   9.807
11483WAT     H134691   6.672   9.713   9.798
11483WAT     H234692   6.818   9.722   9.727
11484WAT      O34693   7.726   4.603   9.186
11484WAT     H134694   7.710   4.505   9.176
11484WAT     H234695   7.795   4.633   9.120
11485WAT      O34696   6.244   1.092   2.519
11485WAT     H134697   6.194   1.078   2.433
11485WAT     H234698   6.215   1.178   2.561
11486WAT      O34699   9.419   2.786   1.411
11486WAT     H134700   9.441   2.693   1.382
11486WAT     H234701   9.338   2.784   1.470
11487WAT      O34702   7.987   0.314   5.003
11487WAT     H134703   7.940   0.235   5.044
11487WAT     H234704   8.049   0.282   4.931
11488WAT      O34705   1.441   7.329   6.971
11488WAT     H134706   1.469   7.413   7.018
11488WAT     H234707   1.394   7.352   6.886
11489WAT      O34708   5.983   7.196   7.664
11489WAT     H134709   5.923   7.162   7.737
11489WAT     H234710   6.041   7.121   7.632
11490WAT      O34711   8.988   4.492   1.843
11490WAT     H134712   8.987   4.395   1.817
11490WAT     H234713   9.081   4.520   1.863
11491WAT      O34714   5.341   1.470   7.609
11491WAT     H134715   5.313   1.375   7.594
11491WAT     H234716   5.431   1.485   7.568
11492WAT      O34717   6.682   6.041   1.710
11492WAT     H134718   6.687   6.045   1.810
11492WAT     H234719   6.592   6.009   1.682
11493WAT      O34720   4.027   3.560   5.053
11493WAT     H134721   3.963   3.598   4.987
11493WAT     H234722   4.029   3.617   5.135
11494WAT      O34723   2.762   9.596   3.075
11494WAT     H134724   2.777   9.641   3.163
11494WAT     H234725   2.850   9.578   3.031
11495WAT      O34726   1.209   2.423   5.170
11495WAT     H134727   1.197   2.472   5.256
11495WAT     H234728   1.157   2.468   5.098
11496WAT      O34729   5.569   0.472   2.162
11496WAT     H134730   5.645   0.445   2.222
11496WAT     H234731   5.541   0.565   2.183
11497WAT      O34732   0.069   8.692   9.628
11497WAT     H134733   0.057   8.786   9.659
11497WAT     H234734   0.041   8.684   9.533
11498WAT      O34735   0.765   1.920   0.904
11498WAT     H134736   0.790   1.865   0.824
11498WAT     H234737   0.682   1.972   0.884
11499WAT      O34738   5.561   2.750   6.921
11499WAT     H134739   5.567   2.847   6.941
11499WAT     H234740   5.497   2.706   6.984
11500WAT      O34741   4.678   9.734   6.578
11500WAT     H134742   4.763   9.730   6.525
11500WAT     H234743   4.618   9.658   6.553
11501WAT      O34744   4.284   2.852   7.874
11501WAT     H134745   4.239   2.924   7.822
11501WAT     H234746   4.236   2.839   7.961
11502WAT      O34747   1.130   6.259   0.935
11502WAT     H134748   1.102   6.181   0.991
11502WAT     H234749   1.186   6.321   0.989
11503WAT      O34750   4.383   5.905   8.152
11503WAT     H134751   4.441   5.940   8.078
11503WAT     H234752   4.399   5.958   8.235
11504WAT      O34753   7.950   1.051   9.214
11504WAT     H134754   8.047   1.040   9.236
11504WAT     H234755   7.896   1.052   9.299
11505WAT      O34756   9.377   3.226   2.786
11505WAT     H134757   9.306   3.156   2.790
11505WAT     H234758   9.394   3.251   2.691
11506WAT      O34759   6.807   5.180   2.196
11506WAT     H134760   6.894   5.227   2.180
11506WAT     H234761   6.731   5.243   2.182
11507WAT      O34762   2.809   0.922   3.303
11507WAT     H134763   2.843   0.838   3.259
11507WAT     H234764   2.844   1.002   3.254
11508WAT      O34765   7.562   6.913   2.325
11508WAT     H134766   7.490   6.893   2.260
11508WAT     H234767   7.552   6.854   2.406
11509WAT      O34768   9.885   1.905   5.619
11509WAT     H134769   9.913   1.971   5.689
11509WAT     H234770   9.886   1.813   5.658
11510WAT      O34771   4.023   9.684   0.645
11510WAT     H134772   4.032   9.585   0.639
11510WAT     H234773   3.951   9.707   0.711
11511WAT      O34774   1.652   3.946   1.660
11511WAT     H134775   1.735   3.908   1.619
11511WAT     H234776   1.661   4.046   1.668
11512WAT      O34777   6.089   7.523   0.355
11512WAT     H134778   6.174   7.469   0.355
11512WAT     H234779   6.094   7.592   0.282
11513WAT      O34780   2.460   1.708   5.162
11513WAT     H134781   2.475   1.739   5.256
11513WAT     H234782   2.423   1.615   5.164
11514WAT      O34783   0.055   1.739   2.951
11514WAT     H134784   0.122   1.688   2.898
11514WAT     H234785   0.022   1.681   3.026
11515WAT      O34786   9.558   6.824   4.381
11515WAT     H134787   9.640   6.831   4.438
11515WAT     H234788   9.541   6.728   4.360
11516WAT      O34789   7.757   4.473   1.799
11516WAT     H134790   7.677   4.509   1.847
11516WAT     H234791   7.742   4.378   1.773
11517WAT      O34792   4.572   1.893   1.116
11517WAT     H134793   4.558   1.795   1.135
11517WAT     H234794   4.621   1.903   1.030
11518WAT      O34795   2.314   6.083   8.427
11518WAT     H134796   2.328   6.051   8.333
11518WAT     H234797   2.403   6.096   8.471
11519WAT      O34798   2.508   6.743   9.529
11519WAT     H134799   2.539   6.672   9.593
11519WAT     H234800   2.451   6.701   9.458
11520WAT      O34801   1.523   0.954   9.543
11520WAT     H134802   1.483   1.021   9.605
11520WAT     H234803   1.548   0.872   9.594
11521WAT      O34804   8.774   9.621   5.252
11521WAT     H134805   8.864   9.662   5.270
11521WAT     H234806   8.711   9.693   5.224
11522WAT      O34807   6.315   6.784   7.497
11522WAT     H134808   6.375   6.768   7.419
11522WAT     H234809   6.226   6.742   7.479
11523WAT      O34810   9.221   7.621   4.842
11523WAT     H134811   9.209   7.549   4.910
11523WAT     H234812   9.161   7.603   4.764
11524WAT      O34813   8.522   1.301   8.494
11524WAT     H134814   8.550   1.387   8.538
11524WAT     H234815   8.537   1.308   8.396
11525WAT      O34816   5.286   0.102   1.715
11525WAT     H134817   5.347   0.105   1.636
11525WAT     H234818   5.243   0.012   1.721
11526WAT      O34819   3.621   4.168   7.137
11526WAT     H134820   3.687   4.111   7.089
11526WAT     H234821   3.663   4.256   7.161
11527WAT      O34822   3.436   8.860   8.729
11527WAT     H134823   3.535   8.854   8.717
11527WAT     H234824   3.411   8.819   8.817
11528WAT      O34825   7.614   8.498   6.058
11528WAT     H134826   7.661   8.459   5.978
11528WAT     H234827   7.516   8.483   6.049
11529WAT      O34828   3.752   0.932   1.748
11529WAT     H134829   3.834   0.877   1.735
11529WAT     H234830   3.731   0.981   1.663
11530WAT      O34831   8.502   7.731   1.432
11530WAT     H134832   8.539   7.783   1.354
11530WAT     H234833   8.410   7.763   1.453
11531WAT      O34834   2.527   6.905   5.717
11531WAT     H134835   2.604   6.922   5.654
11531WAT     H234836   2.528   6.973   5.790
11532WAT      O34837   8.746   2.958   1.486
11532WAT     H134838   8.732   2.897   1.408
11532WAT     H234839   8.767   2.904   1.567
11533WAT      O34840   7.019   8.503   1.142
11533WAT     H134841   7.073   8.559   1.079
11533WAT     H234842   7.067   8.416   1.157
11534WAT      O34843   8.139   4.400   7.318
11534WAT     H134844   8.211   4.357   7.372
11534WAT     H234845   8.177   4.431   7.231
11535WAT      O34846   0.605   1.835   5.872
11535WAT     H134847   0.630   1.748   5.914
11535WAT     H234848   0.541   1.819   5.797
11536WAT      O34849   9.390   3.760   7.079
11536WAT     H134850   9.387   3.800   6.988
11536WAT     H234851   9.475   3.710   7.091
11537WAT      O34852   4.890   0.542   1.173
11537WAT     H134853   4.916   0.637   1.191
11537WAT     H234854   4.822   0.513   1.240
11538WAT      O34855   0.451   8.925   6.250
11538WAT     H134856   0.546   8.906   6.227
11538WAT     H234857   0.440   9.023   6.266
11539WAT      O34858   0.117   1.049   4.559
11539WAT     H134859   0.185   1.117   4.532
11539WAT     H234860   0.162   0.962   4.578
11540WAT      O34861   7.944   2.131   8.354
11540WAT     H134862   7.871   2.171   8.410
11540WAT     H234863   7.931   2.157   8.258
11541WAT      O34864   8.836   3.271   5.013
11541WAT     H134865   8.897   3.283   5.092
11541WAT     H234866   8.760   3.212   5.039
11542WAT      O34867   2.067   1.912   6.964
11542WAT     H134868   1.968   1.927   6.970
11542WAT     H234869   2.087   1.817   6.989
11543WAT      O34870   7.537   9.808   3.775
11543WAT     H134871   7.452   9.772   3.736
11543WAT     H234872   7.613   9.785   3.715
11544WAT      O34873   9.873   6.562   9.785
11544WAT     H134874   9.800   6.589   9.723
11544WAT     H234875   9.958   6.607   9.758
11545WAT      O34876   7.542   6.632   1.752
11545WAT     H134877   7.597   6.714   1.734
11545WAT     H234878   7.602   6.555   1.772
11546WAT      O34879   6.630   1.054   2.076
11546WAT     H134880   6.602   1.141   2.117
11546WAT     H234881   6.609   1.055   1.978
11547WAT      O34882   1.589   3.140   4.833
11547WAT     H134883   1.578   3.234   4.864
11547WAT     H234884   1.568   3.077   4.907
11548WAT      O34885   7.468   4.775   5.257
11548WAT     H134886   7.489   4.715   5.180
11548WAT     H234887   7.552   4.801   5.303
11549WAT      O34888   6.826   6.498   9.853
11549WAT     H134889   6.899   6.544   9.803
11549WAT     H234890   6.786   6.562   9.919
11550WAT      O34891   0.669   2.472   3.198
11550WAT     H134892   0.656   2.456   3.295
11550WAT     H234893   0.583   2.457   3.149
11551WAT      O34894   1.051   8.011   6.821
11551WAT     H134895   1.134   8.040   6.869
11551WAT     H234896   0.978   8.077   6.837
11552WAT      O34897   6.161   9.471   6.692
11552WAT     H134898   6.180   9.459   6.595
11552WAT     H234899   6.240   9.440   6.745
11553WAT      O34900   6.423   9.063   3.029
11553WAT     H134901   6.381   9.035   2.943
11553WAT     H234902   6.377   9.144   3.064
11554WAT      O34903   8.836   4.419   6.772
11554WAT     H134904   8.908   4.432   6.704
11554WAT     H234905   8.866   4.458   6.859
11555WAT      O34906   6.788   3.480   8.951
11555WAT     H134907   6.817   3.407   8.890
11555WAT     H234908   6.693   3.465   8.979
11556WAT      O34909   9.025   2.615   4.991
11556WAT     H134910   8.985   2.532   4.951
11556WAT     H234911   8.964   2.692   4.976
11557WAT      O34912   0.211   1.456   6.316
11557WAT     H134913   0.241   1.383   6.377
11557WAT     H234914   0.203   1.421   6.223
11558WAT      O34915   6.026   0.762   2.493
11558WAT     H134916   6.106   0.789   2.547
11558WAT     H234917   5.992   0.840   2.441
11559WAT      O34918   0.438   3.315   6.407
11559WAT     H134919   0.501   3.290   6.481
11559WAT     H234920   0.442   3.414   6.393
11560WAT      O34921   7.140   6.482   2.625
11560WAT     H134922   7.150   6.431   2.539
11560WAT     H234923   7.221   6.539   2.640
11561WAT      O34924   2.960   5.241   3.825
11561WAT     H134925   3.056   5.268   3.829
11561WAT     H234926   2.902   5.320   3.845
11562WAT      O34927   4.895   8.811   7.114
11562WAT     H134928   4.810   8.792   7.064
11562WAT     H234929   4.899   8.753   7.195
11563WAT      O34930   2.572   2.499   5.408
11563WAT     H134931   2.520   2.582   5.388
11563WAT     H234932   2.548   2.428   5.342
11564WAT      O34933   3.751   9.250   9.377
11564WAT     H134934   3.704   9.190   9.313
11564WAT     H234935   3.695   9.331   9.394
11565WAT      O34936   8.135   8.522   8.106
11565WAT     H134937   8.146   8.423   8.097
11565WAT     H234938   8.149   8.566   8.017
11566WAT      O34939   7.589   7.983   8.531
11566WAT     H134940   7.666   7.932   8.570
11566WAT     H234941   7.506   7.927   8.536
11567WAT      O34942   9.585   6.680   1.242
11567WAT     H134943   9.603   6.775   1.267
11567WAT     H234944   9.544   6.677   1.151
11568WAT      O34945   7.268   8.498   0.035
11568WAT     H134946   7.179   8.455   0.026
11568WAT     H234947   7.266   8.589  -0.005
11569WAT      O34948   1.039   3.363   7.357
11569WAT     H134949   1.066   3.276   7.318
11569WAT     H234950   1.119   3.410   7.394
11570WAT      O34951   9.743   5.651   1.075
11570WAT     H134952   9.779   5.741   1.049
11570WAT     H234953   9.819   5.593   1.106
11571WAT      O34954   5.142   0.406   4.275
11571WAT     H134955   5.234   0.374   4.256
11571WAT     H234956   5.129   0.497   4.235
11572WAT      O34957   4.757   6.465   0.959
11572WAT     H134958   4.720   6.550   0.997
11572WAT     H234959   4.764   6.397   1.032
11573WAT      O34960   8.746   8.211   2.137
11573WAT     H134961   8.798   8.246   2.214
11573WAT     H234962   8.721   8.116   2.154
11574WAT      O34963   8.518   2.363   4.945
11574WAT     H134964   8.579   2.325   4.875
11574WAT     H234965   8.504   2.295   5.017
11575WAT      O34966   1.037   5.930   8.740
11575WAT     H134967   0.997   5.853   8.790
11575WAT     H234968   1.135   5.936   8.761
11576WAT      O34969   2.232   2.854   8.626
11576WAT     H134970   2.217   2.850   8.527
11576WAT     H234971   2.310   2.797   8.651
11577WAT      O34972   6.190   5.064   3.666
11577WAT     H134973   6.132   5.018   3.734
11577WAT     H234974   6.240   5.139   3.710
11578WAT      O34975   7.628   3.719   5.507
11578WAT     H134976   7.682   3.636   5.501
11578WAT     H234977   7.629   3.754   5.601
11579WAT      O34978   5.525   9.602   9.567
11579WAT     H134979   5.459   9.671   9.595
11579WAT     H234980   5.510   9.578   9.471
11580WAT      O34981   7.756   1.820   3.553
11580WAT     H134982   7.793   1.810   3.645
11580WAT     H234983   7.771   1.913   3.521
11581WAT      O34984   8.513   1.845   6.546
11581WAT     H134985   8.586   1.839   6.478
11581WAT     H234986   8.441   1.779   6.523
11582WAT      O34987   1.692   6.589   9.770
11582WAT     H134988   1.754   6.516   9.796
11582WAT     H234989   1.703   6.610   9.673
11583WAT      O34990   4.432   1.326   6.558
11583WAT     H134991   4.505   1.334   6.625
11583WAT     H234992   4.357   1.386   6.583
11584WAT      O34993   3.719   6.865   8.379
11584WAT     H134994   3.736   6.825   8.289
11584WAT     H234995   3.775   6.817   8.448
11585WAT      O34996   3.453   1.287   6.704
11585WAT     H134997   3.397   1.238   6.637
11585WAT     H234998   3.470   1.227   6.783
11586WAT      O34999   6.270   0.151   9.619
11586WAT     H135000   6.221   0.200   9.546
11586WAT     H235001   6.205   0.127   9.692
11587WAT      O35002   2.757   7.037   0.833
11587WAT     H135003   2.690   6.998   0.896
11587WAT     H235004   2.767   6.976   0.754
11588WAT      O35005   7.420   8.551   7.020
11588WAT     H135006   7.468   8.464   7.027
11588WAT     H235007   7.366   8.553   6.936
11589WAT      O35008   4.106   7.816   4.907
11589WAT     H135009   4.057   7.775   4.830
11589WAT     H235010   4.195   7.850   4.876
11590WAT      O35011   7.679   5.098   6.671
11590WAT     H135012   7.680   5.186   6.623
11590WAT     H235013   7.767   5.053   6.660
11591WAT      O35014   6.089   6.133   3.309
11591WAT     H135015   6.009   6.072   3.308
11591WAT     H235016   6.150   6.106   3.383
11592WAT      O35017   3.302   0.701   8.884
11592WAT     H135018   3.230   0.670   8.946
11592WAT     H235019   3.354   0.774   8.929
11593WAT      O35020   8.064   5.538   7.729
11593WAT     H135021   8.053   5.627   7.772
11593WAT     H235022   8.006   5.532   7.648
11594WAT      O35023   6.759   9.490   4.857
11594WAT     H135024   6.694   9.416   4.838
11594WAT     H235025   6.781   9.490   4.954
11595WAT      O35026   6.091   1.731   7.185
11595WAT     H135027   6.058   1.639   7.165
11595WAT     H235028   6.017   1.797   7.175
11596WAT      O35029   6.526   2.340   3.573
11596WAT     H135030   6.485   2.405   3.509
11596WAT     H235031   6.595   2.285   3.525
11597WAT      O35032   5.815   7.672   7.120
11597WAT     H135033   5.750   7.629   7.057
11597WAT     H235034   5.802   7.634   7.211
11598WAT      O35035   5.304   9.645   6.876
11598WAT     H135036   5.305   9.546   6.867
11598WAT     H235037   5.376   9.685   6.820
11599WAT      O35038   9.329   6.162   1.000
11599WAT     H135039   9.315   6.259   1.021
11599WAT     H235040   9.248   6.111   1.028
11600WAT      O35041   3.213   6.256   4.107
11600WAT     H135042   3.241   6.179   4.164
11600WAT     H235043   3.274   6.333   4.123
11601WAT      O35044   3.804   8.356   0.069
11601WAT     H135045   3.833   8.446   0.101
11601WAT     H235046   3.704   8.352   0.065
11602WAT      O35047   4.338   3.836   3.353
11602WAT     H135048   4.363   3.866   3.445
11602WAT     H235049   4.309   3.740   3.355
11603WAT      O35050   7.430   4.425   5.301
11603WAT     H135051   7.509   4.454   5.355
11603WAT     H235052   7.346   4.440   5.353
11604WAT      O35053   9.653   0.194   5.326
11604WAT     H135054   9.707   0.272   5.357
11604WAT     H235055   9.660   0.120   5.394
11605WAT      O35056   2.210   3.004   9.395
11605WAT     H135057   2.306   3.031   9.384
11605WAT     H235058   2.203   2.936   9.468
11606WAT      O35059   4.717   4.829   9.457
11606WAT     H135060   4.783   4.883   9.509
11606WAT     H235061   4.644   4.889   9.424
11607WAT      O35062   8.768   9.018   6.399
11607WAT     H135063   8.691   8.979   6.448
11607WAT     H235064   8.836   8.947   6.381
11608WAT      O35065   6.403   4.248   9.873
11608WAT     H135066   6.436   4.330   9.921
11608WAT     H235067   6.465   4.226   9.798
11609WAT      O35068   1.110   8.159   4.664
11609WAT     H135069   1.160   8.183   4.581
11609WAT     H235070   1.036   8.224   4.678
11610WAT      O35071   9.489   5.000   1.124
11610WAT     H135072   9.543   5.084   1.134
11610WAT     H235073   9.463   4.966   1.215
11611WAT      O35074   2.174   0.453   6.937
11611WAT     H135075   2.242   0.430   7.006
11611WAT     H235076   2.084   0.464   6.982
11612WAT      O35077   8.968   8.882   1.333
11612WAT     H135078   8.967   8.978   1.304
11612WAT     H235079   9.051   8.838   1.301
11613WAT      O35080   3.007   8.093   5.690
11613WAT     H135081   3.053   8.161   5.746
11613WAT     H235082   3.002   8.125   5.595
11614WAT      O35083   1.857   2.714   1.638
11614WAT     H135084   1.813   2.728   1.726
11614WAT     H235085   1.797   2.661   1.578
11615WAT      O35086   4.168   4.230   2.247
11615WAT     H135087   4.226   4.294   2.197
11615WAT     H235088   4.199   4.225   2.342
11616WAT      O35089   7.722   4.614   2.136
11616WAT     H135090   7.812   4.618   2.092
11616WAT     H235091   7.717   4.532   2.194
11617WAT      O35092   4.885   3.540   6.284
11617WAT     H135093   4.820   3.470   6.312
11617WAT     H235094   4.842   3.630   6.287
11618WAT      O35095   7.567   0.154   5.156
11618WAT     H135096   7.476   0.124   5.185
11618WAT     H235097   7.599   0.227   5.217
11619WAT      O35098   4.677   9.734   0.211
11619WAT     H135099   4.690   9.675   0.291
11619WAT     H235100   4.654   9.827   0.241
11620WAT      O35101   6.171   8.544   0.851
11620WAT     H135102   6.223   8.461   0.826
11620WAT     H235103   6.082   8.518   0.887
11621WAT      O35104   9.679   1.611   4.744
11621WAT     H135105   9.603   1.669   4.714
11621WAT     H235106   9.644   1.521   4.771
11622WAT      O35107   3.101   7.620   4.307
11622WAT     H135108   3.192   7.617   4.348
11622WAT     H235109   3.101   7.568   4.222
11623WAT      O35110   8.714   4.005   8.239
11623WAT     H135111   8.798   3.957   8.264
11623WAT     H235112   8.736   4.076   8.172
11624WAT      O35113   4.428   8.719   6.828
11624WAT     H135114   4.512   8.720   6.774
11624WAT     H235115   4.366   8.650   6.791
11625WAT      O35116   9.102   6.256   0.138
11625WAT     H135117   9.119   6.228   0.043
11625WAT     H235118   9.004   6.268   0.152
11626WAT      O35119   1.637   8.817   2.476
11626WAT     H135120   1.659   8.797   2.572
11626WAT     H235121   1.606   8.732   2.431
11627WAT      O35122   7.774   9.268   8.642
11627WAT     H135123   7.805   9.199   8.575
11627WAT     H235124   7.706   9.227   8.703
11628WAT      O35125   5.921   8.719   9.598
11628WAT     H135126   5.906   8.675   9.509
11628WAT     H235127   6.014   8.702   9.629
11629WAT      O35128   5.474   1.794   6.110
11629WAT     H135129   5.427   1.707   6.098
11629WAT     H235130   5.558   1.795   6.055
11630WAT      O35131   9.863   6.049   2.913
11630WAT     H135132   9.922   6.099   2.850
11630WAT     H235133   9.775   6.097   2.921
11631WAT      O35134   2.633   6.070   0.274
11631WAT     H135135   2.649   5.972   0.285
11631WAT     H235136   2.687   6.105   0.197
11632WAT      O35137   9.039   1.292   4.443
11632WAT     H135138   9.081   1.201   4.446
11632WAT     H235139   8.995   1.306   4.354
11633WAT      O35140   5.548   1.234   8.766
11633WAT     H135141   5.476   1.172   8.733
11633WAT     H235142   5.624   1.234   8.701
11634WAT      O35143   9.879   5.895   1.040
11634WAT     H135144   9.941   5.894   0.961
11634WAT     H235145   9.844   5.988   1.054
11635WAT      O35146   6.681   5.466   0.447
11635WAT     H135147   6.630   5.479   0.363
11635WAT     H235148   6.778   5.487   0.430
11636WAT      O35149   3.263   4.203   3.173
11636WAT     H135150   3.203   4.200   3.253
11636WAT     H235151   3.353   4.166   3.197
11637WAT      O35152   5.398   9.368   0.720
11637WAT     H135153   5.431   9.300   0.785
11637WAT     H235154   5.322   9.419   0.762
11638WAT      O35155   5.977   8.276   8.284
11638WAT     H135156   5.883   8.256   8.258
11638WAT     H235157   6.036   8.273   8.203
11639WAT      O35158   0.619   2.014   5.471
11639WAT     H135159   0.718   2.005   5.485
11639WAT     H235160   0.572   1.945   5.526
11640WAT      O35161   6.243   8.043   7.035
11640WAT     H135162   6.193   8.114   6.986
11640WAT     H235163   6.338   8.039   7.002
11641WAT      O35164   9.289   2.686   9.126
11641WAT     H135165   9.229   2.691   9.047
11641WAT     H235166   9.384   2.701   9.097
11642WAT      O35167   9.157   6.275   2.885
11642WAT     H135168   9.202   6.329   2.813
11642WAT     H235169   9.226   6.243   2.950
11643WAT      O35170   5.257   5.061   5.739
11643WAT     H135171   5.243   5.035   5.644
11643WAT     H235172   5.316   5.141   5.744
11644WAT      O35173   4.766   3.407   0.212
11644WAT     H135174   4.723   3.436   0.297
11644WAT     H235175   4.768   3.483   0.147
11645WAT      O35176   0.221   1.966   2.957
11645WAT     H135177   0.255   1.965   3.051
11645WAT     H235178   0.138   1.911   2.950
11646WAT      O35179   2.604   1.115   3.851
11646WAT     H135180   2.667   1.159   3.786
11646WAT     H235181   2.646   1.033   3.888
11647WAT      O35182   7.456   8.121   4.724
11647WAT     H135183   7.551   8.134   4.752
11647WAT     H235184   7.428   8.198   4.667
11648WAT      O35185   1.461   1.828   3.970
11648WAT     H135186   1.555   1.835   4.003
11648WAT     H235187   1.402   1.887   4.025
11649WAT      O35188   8.297   2.191   8.726
11649WAT     H135189   8.262   2.118   8.668
11649WAT     H235190   8.347   2.151   8.803
11650WAT      O35191   3.511   0.028   5.852
11650WAT     H135192   3.583  -0.004   5.790
11650WAT     H235193   3.450   0.090   5.803
11651WAT      O35194   1.048   9.706   5.112
11651WAT     H135195   1.001   9.758   5.184
11651WAT     H235196   1.006   9.725   5.024
11652WAT      O35197   0.105   7.812   4.287
11652WAT     H135198   0.101   7.900   4.336
11652WAT     H235199   0.130   7.740   4.352
11653WAT      O35200   3.729   5.694   4.750
11653WAT     H135201   3.650   5.753   4.729
11653WAT     H235202   3.812   5.749   4.749
11654WAT      O35203   4.226   2.039   3.176
11654WAT     H135204   4.177   1.997   3.100
11654WAT     H235205   4.187   2.007   3.263
11655WAT      O35206   3.211   7.997   1.137
11655WAT     H135207   3.294   7.989   1.192
11655WAT     H235208   3.204   8.090   1.100
11656WAT      O35209   3.995   8.843   3.080
11656WAT     H135210   4.083   8.854   3.127
11656WAT     H235211   3.957   8.753   3.101
11657WAT      O35212   2.630   3.186   6.027
11657WAT     H135213   2.645   3.105   6.084
11657WAT     H235214   2.538   3.222   6.043
11658WAT      O35215   8.805   7.130   2.615
11658WAT     H135216   8.826   7.042   2.573
11658WAT     H235217   8.869   7.199   2.582
11659WAT      O35218   9.206   0.513   1.619
11659WAT     H135219   9.262   0.568   1.681
11659WAT     H235220   9.161   0.440   1.670
11660WAT      O35221   9.831   2.007   1.547
11660WAT     H135222   9.767   2.040   1.478
11660WAT     H235223   9.851   2.080   1.612
11661WAT      O35224   8.613   1.625   6.734
11661WAT     H135225   8.611   1.714   6.688
11661WAT     H235226   8.645   1.636   6.828
11662WAT      O35227   7.576   3.001   6.822
11662WAT     H135228   7.674   2.986   6.832
11662WAT     H235229   7.527   2.948   6.891
11663WAT      O35230   7.203   8.659   5.044
11663WAT     H135231   7.211   8.565   5.075
11663WAT     H235232   7.162   8.661   4.952
11664WAT      O35233   8.933   4.069   0.814
11664WAT     H135234   8.892   4.110   0.732
11664WAT     H235235   8.899   3.975   0.824
11665WAT      O35236   8.398   7.013   8.356
11665WAT     H135237   8.444   7.101   8.373
11665WAT     H235238   8.332   6.995   8.430
11666WAT      O35239   0.739   0.821   5.413
11666WAT     H135240   0.818   0.785   5.363
11666WAT     H235241   0.765   0.904   5.462
11667WAT      O35242   6.352   7.737   9.494
11667WAT     H135243   6.313   7.722   9.585
11667WAT     H235244   6.442   7.693   9.488
11668WAT      O35245   0.695   9.689   1.170
11668WAT     H135246   0.723   9.751   1.243
11668WAT     H235247   0.653   9.741   1.095
11669WAT      O35248   4.395   5.453   5.807
11669WAT     H135249   4.470   5.474   5.870
11669WAT     H235250   4.328   5.527   5.811
11670WAT      O35251   1.437   1.786   0.919
11670WAT     H135252   1.527   1.744   0.934
11670WAT     H235253   1.448   1.867   0.861
11671WAT      O35254   5.617   8.728   0.155
11671WAT     H135255   5.569   8.815   0.168
11671WAT     H235256   5.555   8.652   0.178
11672WAT      O35257   9.289   9.571   9.708
11672WAT     H135258   9.210   9.587   9.648
11672WAT     H235259   9.342   9.493   9.674
11673WAT      O35260   6.444   0.805   2.243
11673WAT     H135261   6.529   0.856   2.239
11673WAT     H235262   6.464   0.707   2.253
11674WAT      O35263   4.142   8.488   2.120
11674WAT     H135264   4.046   8.464   2.139
11674WAT     H235265   4.176   8.433   2.045
11675WAT      O35266   4.621   2.643   7.159
11675WAT     H135267   4.650   2.549   7.179
11675WAT     H235268   4.549   2.670   7.223
11676WAT      O35269   0.332   3.467   1.314
11676WAT     H135270   0.384   3.391   1.352
11676WAT     H235271   0.242   3.435   1.284
11677WAT      O35272   7.171   8.103   4.786
11677WAT     H135273   7.270   8.111   4.791
11677WAT     H235274   7.141   8.028   4.845
11678WAT      O35275   4.502   0.595   3.495
11678WAT     H135276   4.482   0.649   3.413
11678WAT     H235277   4.565   0.521   3.471
11679WAT      O35278   8.045   2.143   4.051
11679WAT     H135279   8.071   2.155   3.955
11679WAT     H235280   8.067   2.050   4.080
11680WAT      O35281   3.882   1.432   6.517
11680WAT     H135282   3.936   1.413   6.599
11680WAT     H235283   3.932   1.400   6.436
11681WAT      O35284   5.726   8.765   9.209
11681WAT     H135285   5.725   8.778   9.110
11681WAT     H235286   5.653   8.819   9.250
11682WAT      O35287   5.456   2.664   0.112
11682WAT     H135288   5.378   2.708   0.157
11682WAT     H235289   5.498   2.599   0.175
11683WAT      O35290   6.350   9.176   9.006
11683WAT     H135291   6.393   9.266   9.003
11683WAT     H235292   6.335   9.149   9.101
11684WAT      O35293   5.241   9.344   0.980
11684WAT     H135294   5.330   9.298   0.986
11684WAT     H235295   5.177   9.301   1.043
11685WAT      O35296   7.039   6.672   3.694
11685WAT     H135297   7.098   6.753   3.690
11685WAT     H235298   6.949   6.698   3.729
11686WAT      O35299   2.909   5.360   8.139
11686WAT     H135300   2.820   5.405   8.137
11686WAT     H235301   2.954   5.377   8.227
11687WAT      O35302   1.647   8.487   1.551
11687WAT     H135303   1.656   8.416   1.621
11687WAT     H235304   1.708   8.468   1.475
11688WAT      O35305   8.975   5.146   8.655
11688WAT     H135306   9.033   5.066   8.666
11688WAT     H235307   8.892   5.120   8.605
11689WAT      O35308   9.225   7.870   9.541
11689WAT     H135309   9.271   7.817   9.470
11689WAT     H235310   9.222   7.966   9.514
11690WAT      O35311   8.175   9.277   4.639
11690WAT     H135312   8.115   9.241   4.710
11690WAT     H235313   8.259   9.310   4.681
11691WAT      O35314   7.187   7.270   9.849
11691WAT     H135315   7.201   7.254   9.751
11691WAT     H235316   7.115   7.208   9.882
11692WAT      O35317   7.044   5.544   7.720
11692WAT     H135318   7.068   5.612   7.652
11692WAT     H235319   7.090   5.457   7.699
11693WAT      O35320   1.891   3.828   9.588
11693WAT     H135321   1.823   3.773   9.637
11693WAT     H235322   1.948   3.877   9.654
11694WAT      O35323   8.210   7.124   9.463
11694WAT     H135324   8.188   7.220   9.477
11694WAT     H235325   8.309   7.111   9.472
11695WAT      O35326   0.944   8.973   5.484
11695WAT     H135327   0.882   9.005   5.413
11695WAT     H235328   0.928   8.876   5.502
11696WAT      O35329   6.608   0.185   7.788
11696WAT     H135330   6.544   0.132   7.731
11696WAT     H235331   6.669   0.122   7.836
11697WAT      O35332   8.385   3.657   6.231
11697WAT     H135333   8.293   3.643   6.196
11697WAT     H235334   8.452   3.624   6.164
11698WAT      O35335   3.225   6.755   8.889
11698WAT     H135336   3.225   6.850   8.919
11698WAT     H235337   3.272   6.698   8.956
11699WAT      O35338   6.657   6.387   0.402
11699WAT     H135339   6.724   6.323   0.365
11699WAT     H235340   6.601   6.341   0.471
11700WAT      O35341   5.576   9.455   3.511
11700WAT     H135342   5.600   9.391   3.438
11700WAT     H235343   5.656   9.510   3.534
11701WAT      O35344   2.796   7.701   1.375
11701WAT     H135345   2.829   7.769   1.442
11701WAT     H235346   2.810   7.609   1.412
11702WAT      O35347   3.118   9.721   4.429
11702WAT     H135348   3.064   9.737   4.346
11702WAT     H235349   3.204   9.772   4.422
11703WAT      O35350   5.550   6.025   6.417
11703WAT     H135351   5.538   6.120   6.387
11703WAT     H235352   5.619   5.981   6.360
11704WAT      O35353   9.773   8.676   1.277
11704WAT     H135354   9.846   8.640   1.219
11704WAT     H235355   9.720   8.745   1.227
11705WAT      O35356   4.535   1.664   9.340
11705WAT     H135357   4.537   1.763   9.349
11705WAT     H235358   4.629   1.628   9.348
11706WAT      O35359   2.012   6.431   2.496
11706WAT     H135360   1.922   6.473   2.494
11706WAT     H235361   2.074   6.487   2.552
11707WAT      O35362   1.182   5.242   9.703
11707WAT     H135363   1.155   5.198   9.788
11707WAT     H235364   1.149   5.336   9.702
11708WAT      O35365   1.253   6.156   1.198
11708WAT     H135366   1.326   6.117   1.255
11708WAT     H235367   1.274   6.252   1.178
11709WAT      O35368   3.503   6.925   6.576
11709WAT     H135369   3.508   6.830   6.607
11709WAT     H235370   3.424   6.970   6.617
11710WAT      O35371   6.187   5.185   4.157
11710WAT     H135372   6.116   5.210   4.091
11710WAT     H235373   6.157   5.210   4.250
11711WAT      O35374   8.388   6.629   1.823
11711WAT     H135375   8.414   6.634   1.919
11711WAT     H235376   8.467   6.600   1.769
11712WAT      O35377   7.665   8.520   7.200
11712WAT     H135378   7.625   8.443   7.149
11712WAT     H235379   7.655   8.504   7.298
11713WAT      O35380   6.601   1.764   7.936
11713WAT     H135381   6.591   1.789   8.032
11713WAT     H235382   6.585   1.844   7.879
11714WAT      O35383   8.231   4.830   8.853
11714WAT     H135384   8.191   4.747   8.891
11714WAT     H235385   8.317   4.849   8.901
11715WAT      O35386   0.959   6.638   8.210
11715WAT     H135387   0.877   6.606   8.162
11715WAT     H235388   0.985   6.728   8.173
11716WAT      O35389   4.702   4.893   0.813
11716WAT     H135390   4.650   4.975   0.836
11716WAT     H235391   4.734   4.850   0.898
11717WAT      O35392   7.320   9.267   7.582
11717WAT     H135393   7.264   9.211   7.643
11717WAT     H235394   7.346   9.351   7.629
11718WAT      O35395   3.069   5.342   2.774
11718WAT     H135396   3.131   5.354   2.697
11718WAT     H235397   2.998   5.276   2.750
11719WAT      O35398   9.188   7.899   4.834
11719WAT     H135399   9.235   7.812   4.825
11719WAT     H235400   9.089   7.885   4.824
11720WAT      O35401   0.714   1.111   8.556
11720WAT     H135402   0.792   1.060   8.521
11720WAT     H235403   0.741   1.205   8.577
11721WAT      O35404   5.827   6.838   6.931
11721WAT     H135405   5.732   6.866   6.922
11721WAT     H235406   5.836   6.740   6.910
11722WAT      O35407   4.464   2.446   7.780
11722WAT     H135408   4.389   2.381   7.770
11722WAT     H235409   4.434   2.537   7.753
11723WAT      O35410   1.606   4.427   8.253
11723WAT     H135411   1.568   4.467   8.337
11723WAT     H235412   1.704   4.446   8.249
11724WAT      O35413   9.746   4.296   6.866
11724WAT     H135414   9.834   4.319   6.826
11724WAT     H235415   9.700   4.380   6.896
11725WAT      O35416   1.729   2.460   0.953
11725WAT     H135417   1.644   2.429   0.997
11725WAT     H235418   1.802   2.395   0.973
11726WAT      O35419   8.396   1.181   2.681
11726WAT     H135420   8.479   1.126   2.698
11726WAT     H235421   8.420   1.261   2.627
11727WAT      O35422   0.163   8.759   0.124
11727WAT     H135423   0.227   8.763   0.201
11727WAT     H235424   0.193   8.689   0.059
11728WAT      O35425   5.822   4.652   2.305
11728WAT     H135426   5.773   4.570   2.276
11728WAT     H235427   5.909   4.659   2.257
11729WAT      O35428   0.740   9.667   7.579
11729WAT     H135429   0.787   9.718   7.651
11729WAT     H235430   0.738   9.570   7.603
11730WAT      O35431   5.098   8.564   9.108
11730WAT     H135432   5.038   8.561   9.029
11730WAT     H235433   5.159   8.643   9.101
11731WAT      O35434   8.398   9.763   0.636
11731WAT     H135435   8.401   9.719   0.547
11731WAT     H235436   8.490   9.795   0.660
11732WAT      O35437   7.780   8.254   2.371
11732WAT     H135438   7.703   8.271   2.309
11732WAT     H235439   7.761   8.297   2.459
11733WAT      O35440   6.557   6.424   7.392
11733WAT     H135441   6.596   6.430   7.484
11733WAT     H235442   6.614   6.476   7.328
11734WAT      O35443   4.991   3.668   8.342
11734WAT     H135444   5.064   3.608   8.309
11734WAT     H235445   5.003   3.684   8.440
11735WAT      O35446   9.377   5.055   1.729
11735WAT     H135447   9.383   5.062   1.828
11735WAT     H235448   9.376   5.147   1.689
11736WAT      O35449   6.534   2.642   6.975
11736WAT     H135450   6.492   2.674   6.890
11736WAT     H235451   6.480   2.672   7.053
11737WAT      O35452   2.065   9.575   6.436
11737WAT     H135453   2.075   9.493   6.493
11737WAT     H235454   2.019   9.647   6.489
11738WAT      O35455   6.760   9.046   7.955
11738WAT     H135456   6.828   8.975   7.939
11738WAT     H235457   6.754   9.106   7.875
11739WAT      O35458   2.455   4.109   8.108
11739WAT     H135459   2.546   4.144   8.087
11739WAT     H235460   2.450   4.086   8.205
11740WAT      O35461   8.860   6.154   4.416
11740WAT     H135462   8.832   6.249   4.401
11740WAT     H235463   8.816   6.095   4.348
11741WAT      O35464   0.727   6.124   2.390
11741WAT     H135465   0.661   6.131   2.314
11741WAT     H235466   0.711   6.039   2.440
11742WAT      O35467   7.053   0.980   5.340
11742WAT     H135468   7.122   1.029   5.286
11742WAT     H235469   7.051   1.017   5.433
11743WAT      O35470   0.898   3.177   4.338
11743WAT     H135471   0.825   3.150   4.275
11743WAT     H235472   0.898   3.277   4.348
11744WAT      O35473   9.097   6.307   9.285
11744WAT     H135474   9.105   6.230   9.221
11744WAT     H235475   9.053   6.276   9.369
11745WAT      O35476   1.898   3.836   0.443
11745WAT     H135477   1.862   3.759   0.495
11745WAT     H235478   1.844   3.918   0.461
11746WAT      O35479   1.265   8.649   4.473
11746WAT     H135480   1.208   8.690   4.545
11746WAT     H235481   1.208   8.591   4.414
11747WAT      O35482   9.193   8.646   2.664
11747WAT     H135483   9.224   8.595   2.744
11747WAT     H235484   9.118   8.596   2.620
11748WAT      O35485   7.654   4.826   4.729
11748WAT     H135486   7.735   4.771   4.748
11748WAT     H235487   7.608   4.848   4.815
11749WAT      O35488   3.796   2.726   4.245
11749WAT     H135489   3.808   2.634   4.207
11749WAT     H235490   3.868   2.786   4.211
11750WAT      O35491   6.013   7.309   8.589
11750WAT     H135492   5.929   7.347   8.628
11750WAT     H235493   5.989   7.236   8.525
11751WAT      O35494   4.047   3.014   8.009
11751WAT     H135495   4.102   2.943   8.054
11751WAT     H235496   3.950   2.999   8.030
11752WAT      O35497   5.542   7.663   3.833
11752WAT     H135498   5.575   7.693   3.922
11752WAT     H235499   5.531   7.742   3.773
11753WAT      O35500   9.055   7.149   6.520
11753WAT     H135501   9.083   7.063   6.562
11753WAT     H235502   8.965   7.175   6.552
11754WAT      O35503   0.888   7.911   1.203
11754WAT     H135504   0.849   7.930   1.113
11754WAT     H235505   0.964   7.972   1.220
11755WAT      O35506   3.699   3.158   8.266
11755WAT     H135507   3.754   3.104   8.203
11755WAT     H235508   3.710   3.123   8.359
11756WAT      O35509   0.482   7.015   4.335
11756WAT     H135510   0.460   6.918   4.321
11756WAT     H235511   0.574   7.023   4.373
11757WAT      O35512   1.646   5.040   7.637
11757WAT     H135513   1.725   4.990   7.600
11757WAT     H235514   1.590   5.074   7.561
11758WAT      O35515   2.615   1.295   5.610
11758WAT     H135516   2.667   1.255   5.535
11758WAT     H235517   2.642   1.251   5.696
11759WAT      O35518   7.470   7.322   3.742
11759WAT     H135519   7.553   7.345   3.794
11759WAT     H235520   7.486   7.239   3.689
11760WAT      O35521   2.602   6.609   1.420
11760WAT     H135522   2.702   6.621   1.420
11760WAT     H235523   2.561   6.672   1.485
11761WAT      O35524   3.298   4.905   7.285
11761WAT     H135525   3.315   4.869   7.377
11761WAT     H235526   3.257   4.996   7.292
11762WAT      O35527   8.203   4.426   8.750
11762WAT     H135528   8.197   4.327   8.739
11762WAT     H235529   8.295   4.457   8.722
11763WAT      O35530   7.181   6.388   2.370
11763WAT     H135531   7.270   6.348   2.391
11763WAT     H235532   7.160   6.373   2.274
11764WAT      O35533   4.271   3.633   4.186
11764WAT     H135534   4.220   3.692   4.123
11764WAT     H235535   4.344   3.586   4.136
11765WAT      O35536   5.695   8.238   8.199
11765WAT     H135537   5.672   8.151   8.244
11765WAT     H235538   5.629   8.256   8.127
11766WAT      O35539   3.762   4.592   1.756
11766WAT     H135540   3.741   4.496   1.771
11766WAT     H235541   3.762   4.640   1.844
11767WAT      O35542   8.307   6.818   8.642
11767WAT     H135543   8.253   6.781   8.718
11767WAT     H235544   8.376   6.752   8.614
11768WAT      O35545   8.373   9.268   3.621
11768WAT     H135546   8.401   9.309   3.708
11768WAT     H235547   8.397   9.171   3.621
11769WAT      O35548   9.647   5.309   5.727
11769WAT     H135549   9.745   5.308   5.704
11769WAT     H235550   9.629   5.242   5.798
11770WAT      O35551   5.539   4.527   2.964
11770WAT     H135552   5.591   4.538   3.048
11770WAT     H235553   5.467   4.597   2.959
11771WAT      O35554   5.440   2.400   5.517
11771WAT     H135555   5.479   2.484   5.479
11771WAT     H235556   5.396   2.420   5.604
11772WAT      O35557   4.244   1.495   3.617
11772WAT     H135558   4.284   1.455   3.700
11772WAT     H235559   4.222   1.423   3.552
11773WAT      O35560   8.052   4.203   5.884
11773WAT     H135561   8.058   4.185   5.982
11773WAT     H235562   8.143   4.198   5.843
11774WAT      O35563   0.717   6.799   8.427
11774WAT     H135564   0.786   6.832   8.492
11774WAT     H235565   0.730   6.701   8.413
11775WAT      O35566   3.049   7.069   8.384
11775WAT     H135567   3.105   6.991   8.356
11775WAT     H235568   2.962   7.037   8.421
11776WAT      O35569   7.644   3.510   4.514
11776WAT     H135570   7.598   3.450   4.580
11776WAT     H235571   7.703   3.574   4.563
11777WAT      O35572   3.472   8.894   9.688
11777WAT     H135573   3.501   8.838   9.765
11777WAT     H235574   3.536   8.970   9.676
11778WAT      O35575   2.745   4.675   9.865
11778WAT     H135576   2.795   4.591   9.889
11778WAT     H235577   2.776   4.708   9.776
11779WAT      O35578   3.444   2.217   3.122
11779WAT     H135579   3.352   2.246   3.149
11779WAT     H235580   3.501   2.208   3.204
11780WAT      O35581   5.124   2.998   6.275
11780WAT     H135582   5.066   2.996   6.194
11780WAT     H235583   5.180   3.080   6.274
11781WAT      O35584   3.354   9.570   6.536
11781WAT     H135585   3.279   9.589   6.472
11781WAT     H235586   3.432   9.629   6.514
11782WAT      O35587   5.133   8.782   8.824
11782WAT     H135588   5.096   8.858   8.878
11782WAT     H235589   5.063   8.712   8.813
11783WAT      O35590   3.376   9.822   6.061
11783WAT     H135591   3.431   9.828   5.979
11783WAT     H235592   3.395   9.900   6.121
11784WAT      O35593   4.293   6.985   6.644
11784WAT     H135594   4.283   6.986   6.545
11784WAT     H235595   4.349   6.906   6.671
11785WAT      O35596   9.878   2.223   8.321
11785WAT     H135597   9.965   2.174   8.325
11785WAT     H235598   9.807   2.167   8.364
11786WAT      O35599   1.579   7.796   3.566
11786WAT     H135600   1.651   7.785   3.634
11786WAT     H235601   1.610   7.858   3.494
11787WAT      O35602   4.490   8.074   3.476
11787WAT     H135603   4.469   7.982   3.444
11787WAT     H235604   4.463   8.141   3.406
11788WAT      O35605   8.745   8.548   6.972
11788WAT     H135606   8.801   8.482   6.922
11788WAT     H235607   8.749   8.636   6.925
11789WAT      O35608   4.618   7.136   4.899
11789WAT     H135609   4.592   7.178   4.985
11789WAT     H235610   4.618   7.205   4.827
11790WAT      O35611   2.166   6.047   8.875
11790WAT     H135612   2.071   6.037   8.906
11790WAT     H235613   2.204   6.132   8.911
11791WAT      O35614   6.473   3.013   4.470
11791WAT     H135615   6.415   2.985   4.393
11791WAT     H235616   6.569   3.000   4.446
11792WAT      O35617   6.282   8.972   9.585
11792WAT     H135618   6.233   8.927   9.511
11792WAT     H235619   6.257   8.931   9.673
11793WAT      O35620   8.177   0.745   6.450
11793WAT     H135621   8.205   0.729   6.355
11793WAT     H235622   8.206   0.836   6.478
11794WAT      O35623   6.037   6.081   8.322
11794WAT     H135624   6.008   6.005   8.264
11794WAT     H235625   6.040   6.165   8.268
11795WAT      O35626   0.040   9.521   7.144
11795WAT     H135627   0.053   9.434   7.193
11795WAT     H235628  -0.004   9.587   7.205
11796WAT      O35629   0.081   5.470   1.108
11796WAT     H135630   0.061   5.375   1.084
11796WAT     H235631   0.094   5.523   1.024
11797WAT      O35632   6.423   1.128   0.172
11797WAT     H135633   6.481   1.154   0.249
11797WAT     H235634   6.395   1.033   0.182
11798WAT      O35635   7.081   2.652   8.532
11798WAT     H135636   7.012   2.641   8.461
11798WAT     H235637   7.049   2.719   8.599
11799WAT      O35638   9.415   0.982   5.401
11799WAT     H135639   9.348   1.001   5.473
11799WAT     H235640   9.506   0.978   5.442
11800WAT      O35641   1.906   5.883   4.034
11800WAT     H135642   1.887   5.845   4.125
11800WAT     H235643   1.973   5.956   4.042
11801WAT      O35644   9.859   5.767   2.997
11801WAT     H135645   9.896   5.857   2.978
11801WAT     H235646   9.870   5.708   2.917
11802WAT      O35647   3.813   6.826   4.789
11802WAT     H135648   3.863   6.771   4.855
11802WAT     H235649   3.722   6.847   4.825
11803WAT      O35650   9.601   2.951   7.561
11803WAT     H135651   9.597   2.914   7.469
11803WAT     H235652   9.694   2.983   7.580
11804WAT      O35653   6.849   3.933   5.704
11804WAT     H135654   6.877   4.016   5.656
11804WAT     H235655   6.801   3.872   5.640
11805WAT      O35656   1.405   8.333   1.131
11805WAT     H135657   1.328   8.380   1.088
11805WAT     H235658   1.401   8.347   1.230
11806WAT      O35659   4.238   1.200   5.962
11806WAT     H135660   4.265   1.131   5.894
11806WAT     H235661   4.271   1.290   5.934
11807WAT      O35662   5.822   8.094   6.014
11807WAT     H135663   5.757   8.022   6.038
11807WAT     H235664   5.773   8.179   5.996
11808WAT      O35665   5.214   2.850   1.768
11808WAT     H135666   5.192   2.780   1.699
11808WAT     H235667   5.270   2.810   1.840
11809WAT      O35668   9.695   3.348   3.443
11809WAT     H135669   9.756   3.272   3.467
11809WAT     H235670   9.694   3.359   3.343
11810WAT      O35671   5.897   2.926   5.930
11810WAT     H135672   5.934   2.932   6.023
11810WAT     H235673   5.960   2.971   5.867
11811WAT      O35674   9.886   5.174   0.195
11811WAT     H135675   9.935   5.091   0.167
11811WAT     H235676   9.854   5.163   0.289
11812WAT      O35677   3.440   4.600   0.202
11812WAT     H135678   3.453   4.698   0.189
11812WAT     H235679   3.375   4.565   0.135
11813WAT      O35680   3.148   1.972   4.477
11813WAT     H135681   3.157   1.897   4.543
11813WAT     H235682   3.129   1.935   4.387
11814WAT      O35683   1.729   3.661   2.015
11814WAT     H135684   1.645   3.715   2.015
11814WAT     H235685   1.718   3.584   1.952
11815WAT      O35686   5.270   5.936   5.187
11815WAT     H135687   5.227   5.955   5.099
11815WAT     H235688   5.287   6.021   5.236
11816WAT      O35689   7.880   8.323   0.489
11816WAT     H135690   7.930   8.405   0.518
11816WAT     H235691   7.809   8.350   0.422
11817WAT      O35692   2.468   8.659   9.488
11817WAT     H135693   2.529   8.637   9.564
11817WAT     H235694   2.426   8.748   9.504
11818WAT      O35695   9.440   0.101   6.377
11818WAT     H135696   9.523   0.055   6.410
11818WAT     H235697   9.407   0.165   6.448
11819WAT      O35698   5.264   6.923   9.327
11819WAT     H135699   5.181   6.895   9.375
11819WAT     H235700   5.282   6.862   9.250
11820WAT      O35701   0.087   5.184   4.628
11820WAT     H135702   0.167   5.222   4.580
11820WAT     H235703   0.063   5.243   4.704
11821WAT      O35704   7.742   2.007   2.387
11821WAT     H135705   7.774   2.077   2.324
11821WAT     H235706   7.651   2.033   2.421
11822WAT      O35707   1.091   2.083   2.126
11822WAT     H135708   1.148   2.106   2.047
11822WAT     H235709   1.047   1.995   2.111
11823WAT      O35710   4.243   8.013   1.774
11823WAT     H135711   4.172   7.963   1.724
11823WAT     H235712   4.249   8.106   1.738
11824WAT      O35713   1.671   5.785   3.280
11824WAT     H135714   1.579   5.769   3.244
11824WAT     H235715   1.720   5.698   3.287
11825WAT      O35716   9.161   7.316   8.694
11825WAT     H135717   9.194   7.390   8.752
11825WAT     H235718   9.224   7.304   8.617
11826WAT      O35719   4.885   0.609   9.124
11826WAT     H135720   4.822   0.675   9.082
11826WAT     H235721   4.888   0.526   9.069
11827WAT      O35722   4.616   4.068   3.420
11827WAT     H135723   4.630   4.146   3.481
11827WAT     H235724   4.536   4.017   3.451
11828WAT      O35725   6.067   4.434   1.084
11828WAT     H135726   6.064   4.519   1.137
11828WAT     H235727   5.981   4.422   1.034
11829WAT      O35728   0.690   5.431   2.800
11829WAT     H135729   0.594   5.422   2.826
11829WAT     H235730   0.746   5.438   2.883
11830WAT      O35731   2.808   8.233   9.528
11830WAT     H135732   2.812   8.220   9.627
11830WAT     H235733   2.787   8.146   9.484
11831WAT      O35734   4.976   6.763   5.839
11831WAT     H135735   4.953   6.813   5.923
11831WAT     H235736   5.074   6.772   5.820
11832WAT      O35737   3.775   6.577   1.000
11832WAT     H135738   3.728   6.525   1.071
11832WAT     H235739   3.761   6.674   1.015
11833WAT      O35740   2.823   7.272   6.109
11833WAT     H135741   2.861   7.344   6.052
11833WAT     H235742   2.774   7.312   6.186
11834WAT      O35743   6.444   0.161   5.349
11834WAT     H135744   6.503   0.210   5.413
11834WAT     H235745   6.477   0.068   5.338
11835WAT      O35746   9.845   3.690   1.296
11835WAT     H135747   9.889   3.774   1.328
11835WAT     H235748   9.781   3.712   1.223
11836WAT      O35749   1.045   9.827   2.385
11836WAT     H135750   0.961   9.864   2.424
11836WAT     H235751   1.039   9.829   2.285
11837WAT      O35752   0.239   8.007   0.382
11837WAT     H135753   0.276   8.099   0.369
11837WAT     H235754   0.214   7.969   0.293
11838WAT      O35755   8.536   8.437   2.792
11838WAT     H135756   8.460   8.411   2.734
11838WAT     H235757   8.556   8.363   2.856
11839WAT      O35758   5.349   6.997   5.098
11839WAT     H135759   5.415   6.921   5.093
11839WAT     H235760   5.259   6.965   5.068
11840WAT      O35761   8.699   4.524   7.243
11840WAT     H135762   8.728   4.497   7.335
11840WAT     H235763   8.602   4.545   7.243
11841WAT      O35764   9.230   1.796   7.867
11841WAT     H135765   9.325   1.767   7.885
11841WAT     H235766   9.169   1.753   7.934
11842WAT      O35767   7.676   1.365   6.031
11842WAT     H135768   7.623   1.405   5.956
11842WAT     H235769   7.613   1.328   6.100
11843WAT      O35770   4.754   0.964   6.522
11843WAT     H135771   4.779   0.889   6.461
11843WAT     H235772   4.660   0.992   6.504
11844WAT      O35773   1.171   9.082   8.167
11844WAT     H135774   1.198   9.039   8.081
11844WAT     H235775   1.246   9.073   8.233
11845WAT      O35776   1.238   4.108   3.945
11845WAT     H135777   1.332   4.110   3.913
11845WAT     H235778   1.236   4.115   4.045
11846WAT      O35779   1.131   8.757   1.780
11846WAT     H135780   1.103   8.813   1.702
11846WAT     H235781   1.228   8.774   1.799
11847WAT      O35782   5.520   5.483   9.427
11847WAT     H135783   5.605   5.502   9.476
11847WAT     H235784   5.498   5.386   9.433
11848WAT      O35785   8.680   0.632   2.945
11848WAT     H135786   8.636   0.629   3.035
11848WAT     H235787   8.730   0.718   2.936
11849WAT      O35788   7.738   3.866   8.891
11849WAT     H135789   7.731   3.777   8.846
11849WAT     H235790   7.677   3.931   8.844
11850WAT      O35791   6.621   7.170   9.687
11850WAT     H135792   6.536   7.120   9.666
11850WAT     H235793   6.635   7.241   9.618
11851WAT      O35794   4.496   0.930   8.781
11851WAT     H135795   4.406   0.899   8.752
11851WAT     H235796   4.557   0.934   8.702
11852WAT      O35797   1.309   5.966   3.827
11852WAT     H135798   1.244   5.959   3.752
11852WAT     H235799   1.357   5.879   3.838
11853WAT      O35800   3.344   7.783   7.746
11853WAT     H135801   3.337   7.855   7.815
11853WAT     H235802   3.264   7.788   7.686
11854WAT      O35803   7.895   3.627   5.829
11854WAT     H135804   7.903   3.658   5.924
11854WAT     H235805   7.987   3.605   5.794
11855WAT      O35806   0.762   7.756   9.439
11855WAT     H135807   0.798   7.830   9.382
11855WAT     H235808   0.749   7.790   9.532
11856WAT      O35809   5.167   5.316   8.206
11856WAT     H135810   5.076   5.278   8.224
11856WAT     H235811   5.161   5.415   8.203
11857WAT      O35812   4.735   0.432   2.985
11857WAT     H135813   4.734   0.332   2.994
11857WAT     H235814   4.821   0.468   3.021
11858WAT      O35815   0.097   7.017   3.321
11858WAT     H135816   0.078   7.099   3.375
11858WAT     H235817   0.048   7.023   3.234
11859WAT      O35818   9.226   2.115   3.593
11859WAT     H135819   9.216   2.138   3.496
11859WAT     H235820   9.141   2.137   3.642
11860WAT      O35821   8.434   5.123   3.422
11860WAT     H135822   8.486   5.106   3.505
11860WAT     H235823   8.496   5.124   3.344
11861WAT      O35824   6.525   9.643   1.491
11861WAT     H135825   6.489   9.591   1.413
11861WAT     H235826   6.620   9.667   1.474
11862WAT      O35827   5.950   8.055   5.122
11862WAT     H135828   5.859   8.078   5.086
11862WAT     H235829   6.015   8.126   5.096
11863WAT      O35830   9.353   0.838   1.432
11863WAT     H135831   9.417   0.808   1.503
11863WAT     H235832   9.281   0.769   1.421
11864WAT      O35833   1.342   3.426   7.817
11864WAT     H135834   1.263   3.463   7.866
11864WAT     H235835   1.358   3.480   7.734
11865WAT      O35836   0.988   6.478   4.748
11865WAT     H135837   1.046   6.546   4.791
11865WAT     H235838   0.898   6.478   4.790
11866WAT      O35839   8.793   7.314   1.388
11866WAT     H135840   8.824   7.376   1.460
11866WAT     H235841   8.872   7.273   1.342
11867WAT      O35842   2.252   6.993   2.723
11867WAT     H135843   2.317   6.992   2.647
11867WAT     H235844   2.169   7.042   2.695
11868WAT      O35845   3.174   0.580   3.889
11868WAT     H135846   3.174   0.483   3.865
11868WAT     H235847   3.104   0.596   3.959
11869WAT      O35848   6.936   1.306   8.215
11869WAT     H135849   6.938   1.391   8.269
11869WAT     H235850   7.020   1.299   8.160
11870WAT      O35851   5.227   5.669   5.266
11870WAT     H135852   5.248   5.760   5.229
11870WAT     H235853   5.213   5.605   5.191
11871WAT      O35854   7.730   2.356   2.344
11871WAT     H135855   7.737   2.438   2.400
11871WAT     H235856   7.637   2.319   2.352
11872WAT      O35857   3.588   6.736   3.143
11872WAT     H135858   3.657   6.743   3.216
11872WAT     H235859   3.522   6.811   3.151
11873WAT      O35860   0.404   3.194   0.150
11873WAT     H135861   0.428   3.288   0.175
11873WAT     H235862   0.484   3.134   0.163
11874WAT      O35863   3.165   0.275   1.764
11874WAT     H135864   3.244   0.336   1.756
11874WAT     H235865   3.189   0.198   1.824
11875WAT      O35866   3.683   0.376   0.461
11875WAT     H135867   3.602   0.419   0.419
11875WAT     H235868   3.761   0.386   0.398
11876WAT      O35869   6.738   1.136   8.963
11876WAT     H135870   6.697   1.058   8.917
11876WAT     H235871   6.666   1.189   9.008
11877WAT      O35872   9.314   4.361   3.297
11877WAT     H135873   9.406   4.398   3.302
11877WAT     H235874   9.295   4.332   3.203
11878WAT      O35875   4.338   6.353   2.201
11878WAT     H135876   4.311   6.290   2.274
11878WAT     H235877   4.435   6.340   2.181
11879WAT      O35878   8.915   1.641   0.156
11879WAT     H135879   8.894   1.739   0.158
11879WAT     H235880   8.976   1.619   0.232
11880WAT      O35881   6.664   4.148   4.643
11880WAT     H135882   6.696   4.068   4.694
11880WAT     H235883   6.607   4.205   4.702
11881WAT      O35884   6.551   3.889   1.441
11881WAT     H135885   6.546   3.864   1.537
11881WAT     H235886   6.562   3.988   1.433
11882WAT      O35887   3.511   0.667   9.801
11882WAT     H135888   3.501   0.616   9.715
11882WAT     H235889   3.548   0.606   9.871
11883WAT      O35890   3.827   3.661   4.831
11883WAT     H135891   3.763   3.635   4.903
11883WAT     H235892   3.781   3.655   4.742
11884WAT      O35893   0.909   0.075   0.933
11884WAT     H135894   0.815   0.044   0.945
11884WAT     H235895   0.910   0.168   0.897
11885WAT      O35896   7.756   3.973   4.028
11885WAT     H135897   7.732   3.922   3.946
11885WAT     H235898   7.829   4.038   4.007
11886WAT      O35899   5.085   6.745   9.732
11886WAT     H135900   5.024   6.781   9.802
11886WAT     H235901   5.155   6.688   9.775
11887WAT      O35902   2.963   5.132   4.735
11887WAT     H135903   2.969   5.036   4.761
11887WAT     H235904   2.966   5.190   4.816
11888WAT      O35905   3.789   8.007   2.492
11888WAT     H135906   3.703   8.052   2.468
11888WAT     H235907   3.808   7.935   2.426
11889WAT      O35908   4.559   0.620   4.235
11889WAT     H135909   4.519   0.638   4.145
11889WAT     H235910   4.491   0.635   4.306
11890WAT      O35911   8.331   7.235   0.284
11890WAT     H135912   8.322   7.256   0.186
11890WAT     H235913   8.370   7.314   0.331
11891WAT      O35914   3.505   8.516   3.598
11891WAT     H135915   3.556   8.441   3.555
11891WAT     H235916   3.564   8.596   3.607
11892WAT      O35917   5.171   8.975   3.419
11892WAT     H135918   5.197   9.011   3.508
11892WAT     H235919   5.203   9.037   3.347
11893WAT      O35920   0.087   8.778   3.546
11893WAT     H135921   0.175   8.804   3.507
11893WAT     H235922   0.042   8.860   3.584
11894WAT      O35923   0.333   7.954   5.985
11894WAT     H135924   0.332   7.881   6.053
11894WAT     H235925   0.389   7.927   5.907
11895WAT      O35926   2.283   3.346   9.132
11895WAT     H135927   2.184   3.346   9.144
11895WAT     H235928   2.316   3.440   9.128
11896WAT      O35929   1.767   2.282   2.732
11896WAT     H135930   1.719   2.344   2.794
11896WAT     H235931   1.767   2.190   2.770
11897WAT      O35932   9.120   9.621   0.431
11897WAT     H135933   9.139   9.565   0.511
11897WAT     H235934   9.151   9.715   0.448
11898WAT      O35935   8.092   7.901   1.290
11898WAT     H135936   8.092   7.997   1.260
11898WAT     H235937   8.012   7.884   1.348
11899WAT      O35938   7.545   5.984   8.180
11899WAT     H135939   7.623   6.010   8.122
11899WAT     H235940   7.468   5.957   8.123
11900WAT      O35941   5.389   4.678   9.139
11900WAT     H135942   5.471   4.647   9.187
11900WAT     H235943   5.317   4.698   9.205
11901WAT      O35944   2.485   6.499   8.559
11901WAT     H135945   2.482   6.558   8.640
11901WAT     H235946   2.544   6.540   8.490
11902WAT      O35947   6.366   0.842   1.852
11902WAT     H135948   6.456   0.816   1.817
11902WAT     H235949   6.324   0.763   1.897
11903WAT      O35950   9.259   9.036   6.461
11903WAT     H135951   9.246   9.135   6.460
11903WAT     H235952   9.201   8.994   6.391
11904WAT      O35953   3.117   9.021   5.399
11904WAT     H135954   3.107   8.923   5.386
11904WAT     H235955   3.193   9.039   5.461
11905WAT      O35956   0.951   8.261   8.652
11905WAT     H135957   0.957   8.341   8.711
11905WAT     H235958   1.043   8.232   8.626
11906WAT      O35959   6.324   6.935   8.637
11906WAT     H135960   6.231   6.925   8.671
11906WAT     H235961   6.328   7.014   8.575
11907WAT      O35962   1.222   0.586   7.232
11907WAT     H135963   1.206   0.681   7.205
11907WAT     H235964   1.202   0.526   7.155
11908WAT      O35965   8.070   7.479   5.194
11908WAT     H135966   8.131   7.461   5.117
11908WAT     H235967   8.124   7.493   5.277
11909WAT      O35968   8.598   1.793   6.120
11909WAT     H135969   8.641   1.707   6.092
11909WAT     H235970   8.660   1.869   6.099
11910WAT      O35971   1.652   7.502   6.291
11910WAT     H135972   1.679   7.555   6.210
11910WAT     H235973   1.656   7.405   6.270
11911WAT      O35974   5.275   3.047   7.632
11911WAT     H135975   5.341   3.099   7.577
11911WAT     H235976   5.247   2.965   7.582
11912WAT      O35977   2.442   2.639   2.576
11912WAT     H135978   2.480   2.700   2.507
11912WAT     H235979   2.426   2.690   2.661
11913WAT      O35980   8.096   8.544   6.402
11913WAT     H135981   8.072   8.604   6.478
11913WAT     H235982   8.132   8.458   6.437
11914WAT      O35983   1.650   1.076   5.711
11914WAT     H135984   1.736   1.109   5.750
11914WAT     H235985   1.664   1.050   5.616
11915WAT      O35986   0.767   0.422   8.726
11915WAT     H135987   0.715   0.340   8.752
11915WAT     H235988   0.863   0.410   8.753
11916WAT      O35989   1.736   5.112   4.072
11916WAT     H135990   1.658   5.173   4.084
11916WAT     H235991   1.705   5.025   4.034
11917WAT      O35992   2.447   2.659   6.237
11917WAT     H135993   2.380   2.631   6.168
11917WAT     H235994   2.413   2.739   6.286
11918WAT      O35995   6.281   6.776   0.599
11918WAT     H135996   6.303   6.857   0.545
11918WAT     H235997   6.184   6.778   0.625
11919WAT      O35998   1.019   7.849   7.380
11919WAT     H135999   0.992   7.830   7.475
11919WAT     H236000   0.976   7.935   7.351
11920WAT      O36001   8.906   0.174   1.375
11920WAT     H136002   8.814   0.169   1.414
11920WAT     H236003   8.958   0.093   1.402
11921WAT      O36004   8.487   5.767   1.832
11921WAT     H136005   8.419   5.819   1.885
11921WAT     H236006   8.567   5.824   1.815
11922WAT      O36007   1.673   3.364   0.113
11922WAT     H136008   1.622   3.354   0.028
11922WAT     H236009   1.633   3.437   0.168
11923WAT      O36010   7.987   2.904   6.019
11923WAT     H136011   7.919   2.928   5.949
11923WAT     H236012   8.069   2.867   5.975
11924WAT      O36013   7.232   9.452   4.916
11924WAT     H136014   7.168   9.500   4.856
11924WAT     H236015   7.193   9.447   5.008
11925WAT      O36016   9.077   3.923   6.528
11925WAT     H136017   9.161   3.951   6.575
11925WAT     H236018   9.048   3.834   6.562
11926WAT      O36019   5.595   0.864   6.648
11926WAT     H136020   5.650   0.781   6.660
11926WAT     H236021   5.635   0.938   6.702
11927WAT      O36022   1.938   0.677   4.063
11927WAT     H136023   2.028   0.653   4.100
11927WAT     H236024   1.891   0.594   4.034
11928WAT      O36025   4.392   6.617   2.061
11928WAT     H136026   4.362   6.529   2.098
11928WAT     H236027   4.481   6.606   2.016
11929WAT      O36028   8.980   2.544   5.766
11929WAT     H136029   9.076   2.515   5.765
11929WAT     H236030   8.975   2.641   5.790
11930WAT      O36031   8.695   4.574   0.936
11930WAT     H136032   8.617   4.596   0.878
11930WAT     H236033   8.748   4.500   0.893
11931WAT      O36034   2.718   6.376   0.682
11931WAT     H136035   2.802   6.324   0.697
11931WAT     H236036   2.661   6.328   0.616
11932WAT      O36037   7.408   5.002   6.995
11932WAT     H136038   7.371   4.953   7.074
11932WAT     H236039   7.416   4.940   6.917
11933WAT      O36040   3.325   4.899   5.274
11933WAT     H136041   3.279   4.970   5.219
11933WAT     H236042   3.407   4.938   5.317
11934WAT      O36043   5.340   6.439   5.898
11934WAT     H136044   5.349   6.345   5.865
11934WAT     H236045   5.274   6.488   5.841
11935WAT      O36046   5.198   4.563   7.576
11935WAT     H136047   5.252   4.500   7.633
11935WAT     H236048   5.191   4.651   7.623
11936WAT      O36049   9.712   7.626   2.329
11936WAT     H136050   9.753   7.706   2.285
11936WAT     H236051   9.614   7.638   2.337
11937WAT      O36052   2.042   4.646   9.726
11937WAT     H136053   1.962   4.588   9.745
11937WAT     H236054   2.011   4.731   9.682
11938WAT      O36055   2.959   5.205   9.138
11938WAT     H136056   2.961   5.165   9.046
11938WAT     H236057   2.973   5.132   9.205
11939WAT      O36058   9.577   5.562   1.702
11939WAT     H136059   9.500   5.513   1.660
11939WAT     H236060   9.662   5.512   1.684
11940WAT      O36061   3.956   6.733   9.697
11940WAT     H136062   3.975   6.759   9.603
11940WAT     H236063   4.040   6.736   9.751
11941WAT      O36064   9.617   8.364   1.816
11941WAT     H136065   9.585   8.387   1.908
11941WAT     H236066   9.622   8.447   1.760
11942WAT      O36067   8.785   1.256   9.324
11942WAT     H136068   8.800   1.354   9.318
11942WAT     H236069   8.766   1.230   9.418
11943WAT      O36070   9.028   0.430   6.129
11943WAT     H136071   9.028   0.481   6.044
11943WAT     H236072   9.098   0.358   6.125
11944WAT      O36073   3.486   6.380   1.762
11944WAT     H136074   3.431   6.299   1.784
11944WAT     H236075   3.582   6.353   1.754
11945WAT      O36076   7.630   5.435   0.460
11945WAT     H136077   7.730   5.439   0.457
11945WAT     H236078   7.600   5.340   0.457
11946WAT      O36079   3.707   5.049   6.233
11946WAT     H136080   3.691   5.148   6.243
11946WAT     H236081   3.658   5.016   6.152
11947WAT      O36082   9.412   0.060   3.015
11947WAT     H136083   9.476   0.037   3.089
11947WAT     H236084   9.329   0.100   3.053
11948WAT      O36085   6.229   2.667   6.829
11948WAT     H136086   6.165   2.718   6.887
11948WAT     H236087   6.182   2.637   6.746
11949WAT      O36088   8.381   6.407   0.195
11949WAT     H136089   8.389   6.493   0.246
11949WAT     H236090   8.348   6.335   0.256
11950WAT      O36091   4.732   0.071   9.442
11950WAT     H136092   4.726   0.024   9.530
11950WAT     H236093   4.675   0.153   9.445
11951WAT      O36094   7.076   2.767   7.271
11951WAT     H136095   6.996   2.708   7.262
11951WAT     H236096   7.153   2.714   7.306
11952WAT      O36097   7.572   0.740   3.294
11952WAT     H136098   7.611   0.667   3.350
11952WAT     H236099   7.552   0.819   3.351
11953WAT      O36100   9.097   8.838   8.121
11953WAT     H136101   9.144   8.761   8.079
11953WAT     H236102   9.106   8.919   8.064
11954WAT      O36103   1.970   9.780   8.036
11954WAT     H136104   1.974   9.810   7.941
11954WAT     H236105   2.036   9.706   8.051
11955WAT      O36106   2.423   1.710   4.788
11955WAT     H136107   2.466   1.704   4.698
11955WAT     H236108   2.455   1.792   4.835
11956WAT      O36109   4.674   8.032   5.184
11956WAT     H136110   4.716   7.986   5.106
11956WAT     H236111   4.644   8.124   5.156
11957WAT      O36112   2.517   2.084   2.245
11957WAT     H136113   2.584   2.116   2.177
11957WAT     H236114   2.557   2.091   2.336
11958WAT      O36115   4.375   1.029   6.815
11958WAT     H136116   4.313   1.061   6.887
11958WAT     H236117   4.321   0.989   6.741
11959WAT      O36118   8.031   6.796   2.999
11959WAT     H136119   7.945   6.831   3.036
11959WAT     H236120   8.013   6.710   2.951
11960WAT      O36121   1.848   8.420   6.546
11960WAT     H136122   1.834   8.476   6.465
11960WAT     H236123   1.783   8.344   6.545
11961WAT      O36124   2.005   1.708   2.156
11961WAT     H136125   2.067   1.708   2.078
11961WAT     H236126   1.926   1.766   2.136
11962WAT      O36127   5.121   6.058   4.994
11962WAT     H136128   5.044   6.017   4.946
11962WAT     H236129   5.196   6.073   4.929
11963WAT      O36130   8.293   5.149   8.571
11963WAT     H136131   8.372   5.209   8.565
11963WAT     H236132   8.238   5.175   8.651
11964WAT      O36133   8.829   7.622   3.506
11964WAT     H136134   8.787   7.665   3.586
11964WAT     H236135   8.894   7.552   3.537
11965WAT      O36136   8.601   7.171   2.337
11965WAT     H136137   8.551   7.205   2.257
11965WAT     H236138   8.555   7.203   2.420
11966WAT      O36139   6.451   2.080   6.534
11966WAT     H136140   6.476   2.138   6.612
11966WAT     H236141   6.402   1.999   6.566
11967WAT      O36142   2.567   2.047   2.538
11967WAT     H136143   2.543   1.990   2.617
11967WAT     H236144   2.499   2.120   2.528
11968WAT      O36145   9.269   2.847   3.890
11968WAT     H136146   9.234   2.821   3.980
11968WAT     H236147   9.270   2.947   3.883
11969WAT      O36148   0.010   6.181   1.764
11969WAT     H136149   0.077   6.127   1.714
11969WAT     H236150  -0.056   6.220   1.700
11970WAT      O36151   2.690   7.025   1.230
11970WAT     H136152   2.698   7.002   1.327
11970WAT     H236153   2.774   7.071   1.201
11971WAT      O36154   7.220   3.166   4.822
11971WAT     H136155   7.217   3.155   4.723
11971WAT     H236156   7.293   3.108   4.859
11972WAT      O36157   1.441   9.315   6.312
11972WAT     H136158   1.532   9.301   6.272
11972WAT     H236159   1.381   9.358   6.244
11973WAT      O36160   3.534   2.309   8.812
11973WAT     H136161   3.495   2.231   8.764
11973WAT     H236162   3.464   2.353   8.868
11974WAT      O36163   0.543   6.183   6.656
11974WAT     H136164   0.582   6.225   6.574
11974WAT     H236165   0.617   6.155   6.717
11975WAT      O36166   2.350   6.806   4.351
11975WAT     H136167   2.258   6.781   4.380
11975WAT     H236168   2.361   6.786   4.253
11976WAT      O36169   3.227   2.589   0.843
11976WAT     H136170   3.222   2.506   0.787
11976WAT     H236171   3.278   2.569   0.927
11977WAT      O36172   3.229   0.817   4.463
11977WAT     H136173   3.242   0.861   4.374
11977WAT     H236174   3.135   0.828   4.493
11978WAT      O36175   2.783   1.104   2.686
11978WAT     H136176   2.702   1.082   2.631
11978WAT     H236177   2.805   1.201   2.676
11979WAT      O36178   9.177   9.462   8.779
11979WAT     H136179   9.235   9.380   8.784
11979WAT     H236180   9.167   9.490   8.683
11980WAT      O36181   7.265   8.607   4.057
11980WAT     H136182   7.365   8.618   4.066
11980WAT     H236183   7.240   8.513   4.081
11981WAT      O36184   3.137   8.127   8.169
11981WAT     H136185   3.107   8.218   8.197
11981WAT     H236186   3.102   8.107   8.077
11982WAT      O36187   8.284   8.487   5.923
11982WAT     H136188   8.278   8.401   5.873
11982WAT     H236189   8.231   8.557   5.876
11983WAT      O36190   3.541   5.347   7.428
11983WAT     H136191   3.520   5.428   7.482
11983WAT     H236192   3.636   5.350   7.399
11984WAT      O36193   9.434   8.609   4.778
11984WAT     H136194   9.459   8.582   4.685
11984WAT     H236195   9.501   8.675   4.812
11985WAT      O36196   9.688   0.847   5.036
11985WAT     H136197   9.708   0.789   4.957
11985WAT     H236198   9.718   0.940   5.017
11986WAT      O36199   0.339   5.209   1.338
11986WAT     H136200   0.411   5.140   1.342
11986WAT     H236201   0.376   5.297   1.368
11987WAT      O36202   1.011   1.147   2.055
11987WAT     H136203   0.956   1.080   2.004
11987WAT     H236204   1.004   1.236   2.009
11988WAT      O36205   7.171   2.482   4.150
11988WAT     H136206   7.103   2.544   4.189
11988WAT     H236207   7.174   2.398   4.205
11989WAT      O36208   2.942   3.411   9.547
11989WAT     H136209   3.024   3.439   9.497
11989WAT     H236210   2.883   3.490   9.561
11990WAT      O36211   8.082   3.417   1.979
11990WAT     H136212   8.180   3.429   1.993
11990WAT     H236213   8.032   3.482   2.036
11991WAT      O36214   1.216   1.122   8.568
11991WAT     H136215   1.255   1.060   8.636
11991WAT     H236216   1.274   1.124   8.487
11992WAT      O36217   0.029   3.854   7.825
11992WAT     H136218   0.074   3.926   7.773
11992WAT     H236219   0.070   3.847   7.916
11993WAT      O36220   0.634   7.943   0.004
11993WAT     H136221   0.690   8.008   0.057
11993WAT     H236222   0.565   7.994  -0.048
11994WAT      O36223   1.615   9.001   1.702
11994WAT     H136224   1.585   9.038   1.614
11994WAT     H236225   1.708   9.030   1.721
11995WAT      O36226   9.035   9.494   7.591
11995WAT     H136227   9.104   9.560   7.559
11995WAT     H236228   8.944   9.524   7.563
11996WAT      O36229   7.365   4.575   1.349
11996WAT     H136230   7.434   4.557   1.419
11996WAT     H236231   7.274   4.572   1.389
11997WAT      O36232   0.658   6.279   3.978
11997WAT     H136233   0.617   6.353   3.925
11997WAT     H236234   0.623   6.191   3.946
11998WAT      O36235   5.916   6.902   3.896
11998WAT     H136236   6.005   6.868   3.925
11998WAT     H236237   5.875   6.839   3.830
11999WAT      O36238   1.601   3.397   8.551
11999WAT     H136239   1.580   3.301   8.570
11999WAT     H236240   1.536   3.455   8.601
12000WAT      O36241   1.016   6.945   6.603
12000WAT     H136242   1.070   7.007   6.659
12000WAT     H236243   0.925   6.983   6.589
12001WAT      O36244   8.194   4.991   9.678
12001WAT     H136245   8.203   5.051   9.758
12001WAT     H236246   8.122   4.923   9.695
12002WAT      O36247   5.694   7.070   5.300
12002WAT     H136248   5.735   7.012   5.230
12002WAT     H236249   5.661   7.154   5.259
12003WAT      O36250   7.618   7.913   0.620
12003WAT     H136251   7.618   7.821   0.580
12003WAT     H236252   7.609   7.906   0.719
12004WAT      O36253   0.887   3.555   8.431
12004WAT     H136254   0.938   3.629   8.475
12004WAT     H236255   0.836   3.505   8.501
12005WAT      O36256   6.407   7.254   7.424
12005WAT     H136257   6.349   7.265   7.343
12005WAT     H236258   6.391   7.164   7.465
12006WAT      O36259   0.931   2.064   1.313
12006WAT     H136260   0.846   2.088   1.361
12006WAT     H236261   0.918   2.074   1.215
12007WAT      O36262   2.216   4.421   4.273
12007WAT     H136263   2.215   4.484   4.351
12007WAT     H236264   2.123   4.409   4.239
12008WAT      O36265   7.543   6.212   8.732
12008WAT     H136266   7.518   6.192   8.637
12008WAT     H236267   7.569   6.308   8.741
12009WAT      O36268   7.296   2.404   0.971
12009WAT     H136269   7.233   2.446   1.036
12009WAT     H236270   7.321   2.471   0.901
12010WAT      O36271   3.767   3.284   0.830
12010WAT     H136272   3.729   3.192   0.828
12010WAT     H236273   3.710   3.345   0.775
12011WAT      O36274   6.313   8.752   3.160
12011WAT     H136275   6.274   8.772   3.251
12011WAT     H236276   6.239   8.749   3.093
12012WAT      O36277   7.911   7.271   4.270
12012WAT     H136278   7.938   7.226   4.355
12012WAT     H236279   7.960   7.358   4.262
12013WAT      O36280   2.741   8.196   0.155
12013WAT     H136281   2.744   8.295   0.165
12013WAT     H236282   2.678   8.172   0.081
12014WAT      O36283   3.023   5.138   8.696
12014WAT     H136284   2.989   5.127   8.603
12014WAT     H236285   3.088   5.214   8.699
12015WAT      O36286   3.690   4.415   7.221
12015WAT     H136287   3.718   4.457   7.135
12015WAT     H236288   3.705   4.479   7.296
12016WAT      O36289   5.581   6.167   0.590
12016WAT     H136290   5.602   6.211   0.677
12016WAT     H236291   5.516   6.224   0.539
12017WAT      O36292   2.003   7.658   3.618
12017WAT     H136293   2.083   7.662   3.558
12017WAT     H236294   2.029   7.614   3.704
12018WAT      O36295   1.074   2.745   3.002
12018WAT     H136296   1.128   2.821   2.965
12018WAT     H236297   1.026   2.775   3.084
12019WAT      O36298   0.433   9.700   4.863
12019WAT     H136299   0.422   9.609   4.902
12019WAT     H236300   0.528   9.731   4.877
12020WAT      O36301   7.187   0.657   8.449
12020WAT     H136302   7.109   0.717   8.432
12020WAT     H236303   7.183   0.578   8.388
12021WAT      O36304   1.147   8.912   9.454
12021WAT     H136305   1.182   8.820   9.472
12021WAT     H236306   1.170   8.972   9.531
12022WAT      O36307   5.573   1.684   7.300
12022WAT     H136308   5.504   1.668   7.230
12022WAT     H236309   5.552   1.769   7.348
12023WAT      O36310   7.764   0.199   2.482
12023WAT     H136311   7.706   0.166   2.407
12023WAT     H236312   7.772   0.298   2.476
12024WAT      O36313   3.202   5.298   3.424
12024WAT     H136314   3.164   5.347   3.502
12024WAT     H236315   3.291   5.336   3.400
12025WAT      O36316   6.371   9.503   2.020
12025WAT     H136317   6.408   9.564   1.951
12025WAT     H236318   6.427   9.419   2.023
12026WAT      O36319   3.457   4.373   7.359
12026WAT     H136320   3.378   4.387   7.299
12026WAT     H236321   3.539   4.357   7.303
12027WAT      O36322   8.370   0.692   0.093
12027WAT     H136323   8.421   0.658   0.014
12027WAT     H236324   8.434   0.719   0.165
12028WAT      O36325   3.592   9.761   8.087
12028WAT     H136326   3.635   9.728   8.172
12028WAT     H236327   3.521   9.828   8.110
12029WAT      O36328   2.281   3.668   6.269
12029WAT     H136329   2.239   3.580   6.289
12029WAT     H236330   2.361   3.654   6.211
12030WAT      O36331   2.241   0.460   3.652
12030WAT     H136332   2.215   0.365   3.634
12030WAT     H236333   2.162   0.519   3.640
12031WAT      O36334   2.237   8.692   9.786
12031WAT     H136335   2.215   8.599   9.816
12031WAT     H236336   2.313   8.728   9.841
12032WAT      O36337   6.773   3.786   5.467
12032WAT     H136338   6.721   3.702   5.485
12032WAT     H236339   6.741   3.827   5.382
12033WAT      O36340   8.434   0.221   2.045
12033WAT     H136341   8.471   0.304   2.085
12033WAT     H236342   8.507   0.154   2.031
12034WAT      O36343   1.633   3.755   0.806
12034WAT     H136344   1.583   3.821   0.750
12034WAT     H236345   1.707   3.802   0.855
12035WAT      O36346   2.050   8.082   5.071
12035WAT     H136347   2.109   8.002   5.062
12035WAT     H236348   1.955   8.053   5.078
12036WAT      O36349   2.270   6.098   7.450
12036WAT     H136350   2.332   6.175   7.470
12036WAT     H236351   2.218   6.119   7.367
12037WAT      O36352   4.631   2.004   9.455
12037WAT     H136353   4.538   1.982   9.484
12037WAT     H236354   4.679   2.054   9.528
12038WAT      O36355   4.519   0.387   6.289
12038WAT     H136356   4.611   0.421   6.267
12038WAT     H236357   4.457   0.409   6.214
12039WAT      O36358   6.781   6.887   8.263
12039WAT     H136359   6.879   6.896   8.277
12039WAT     H236360   6.732   6.935   8.337
12040WAT      O36361   6.431   5.443   3.242
12040WAT     H136362   6.461   5.503   3.317
12040WAT     H236363   6.383   5.498   3.173
12041WAT      O36364   5.754   9.377   7.997
12041WAT     H136365   5.808   9.323   8.061
12041WAT     H236366   5.720   9.459   8.042
12042WAT      O36367   0.572   6.592   5.324
12042WAT     H136368   0.665   6.559   5.342
12042WAT     H236369   0.536   6.638   5.406
12043WAT      O36370   8.297   2.887   0.466
12043WAT     H136371   8.259   2.823   0.399
12043WAT     H236372   8.395   2.871   0.474
12044WAT      O36373   6.495   6.878   2.536
12044WAT     H136374   6.548   6.842   2.460
12044WAT     H236375   6.450   6.803   2.585
12045WAT      O36376   4.086   5.420   4.176
12045WAT     H136377   4.052   5.413   4.083
12045WAT     H236378   4.052   5.343   4.230
12046WAT      O36379   8.673   7.113   4.488
12046WAT     H136380   8.677   7.013   4.500
12046WAT     H236381   8.583   7.146   4.517
12047WAT      O36382   1.362   1.906   6.430
12047WAT     H136383   1.291   1.837   6.444
12047WAT     H236384   1.428   1.872   6.363
12048WAT      O36385   0.837   3.360   6.531
12048WAT     H136386   0.891   3.414   6.595
12048WAT     H236387   0.864   3.264   6.538
12049WAT      O36388   8.277   4.608   4.248
12049WAT     H136389   8.351   4.627   4.312
12049WAT     H236390   8.287   4.666   4.167
12050WAT      O36391   2.509   4.473   2.133
12050WAT     H136392   2.524   4.561   2.178
12050WAT     H236393   2.513   4.485   2.033
12051WAT      O36394   8.072   1.839   5.646
12051WAT     H136395   8.054   1.935   5.624
12051WAT     H236396   8.143   1.834   5.716
12052WAT      O36397   9.175   5.434   0.974
12052WAT     H136398   9.202   5.463   1.066
12052WAT     H236399   9.131   5.345   0.979
12053WAT      O36400   0.436   5.554   6.186
12053WAT     H136401   0.403   5.479   6.129
12053WAT     H236402   0.512   5.521   6.243
12054WAT      O36403   9.673   1.539   6.069
12054WAT     H136404   9.581   1.563   6.098
12054WAT     H236405   9.712   1.615   6.016
12055WAT      O36406   0.145   5.389   3.125
12055WAT     H136407   0.137   5.450   3.046
12055WAT     H236408   0.240   5.362   3.137
12056WAT      O36409   7.792   2.586   2.459
12056WAT     H136410   7.882   2.580   2.415
12056WAT     H236411   7.750   2.674   2.437
12057WAT      O36412   0.706   0.712   6.099
12057WAT     H136413   0.784   0.728   6.039
12057WAT     H236414   0.621   0.728   6.048
12058WAT      O36415   6.182   7.666   1.245
12058WAT     H136416   6.266   7.720   1.252
12058WAT     H236417   6.182   7.594   1.315
12059WAT      O36418   2.334   7.714   6.449
12059WAT     H136419   2.294   7.694   6.538
12059WAT     H236420   2.377   7.632   6.412
12060WAT      O36421   0.521   1.410   6.560
12060WAT     H136422   0.599   1.364   6.602
12060WAT     H236423   0.449   1.423   6.628
12061WAT      O36424   2.336   3.669   6.774
12061WAT     H136425   2.325   3.754   6.825
12061WAT     H236426   2.251   3.649   6.724
12062WAT      O36427   4.304   3.973   9.435
12062WAT     H136428   4.364   4.054   9.432
12062WAT     H236429   4.235   3.986   9.506
12063WAT      O36430   0.845   7.993   4.836
12063WAT     H136431   0.941   7.979   4.857
12063WAT     H236432   0.791   7.920   4.879
12064WAT      O36433   0.432   0.891   9.071
12064WAT     H136434   0.526   0.899   9.038
12064WAT     H236435   0.429   0.911   9.169
12065WAT      O36436   5.360   5.965   9.493
12065WAT     H136437   5.389   5.879   9.537
12065WAT     H236438   5.281   6.002   9.542
12066WAT      O36439   7.802   5.000   7.613
12066WAT     H136440   7.850   5.086   7.628
12066WAT     H236441   7.868   4.928   7.590
12067WAT      O36442   5.538   6.517   7.246
12067WAT     H136443   5.486   6.432   7.238
12067WAT     H236444   5.484   6.592   7.207
12068WAT      O36445   8.642   0.821   2.645
12068WAT     H136446   8.549   0.792   2.665
12068WAT     H236447   8.686   0.754   2.584
12069WAT      O36448   6.800   2.477   0.924
12069WAT     H136449   6.886   2.430   0.903
12069WAT     H236450   6.764   2.520   0.841
12070WAT      O36451   2.121   2.583   0.238
12070WAT     H136452   2.199   2.638   0.268
12070WAT     H236453   2.072   2.631   0.165
12071WAT      O36454   0.858   8.840   1.169
12071WAT     H136455   0.951   8.861   1.198
12071WAT     H236456   0.793   8.871   1.238
12072WAT      O36457   6.375   1.534   5.835
12072WAT     H136458   6.285   1.523   5.793
12072WAT     H236459   6.365   1.537   5.935
12073WAT      O36460   1.969   7.363   6.316
12073WAT     H136461   1.979   7.435   6.248
12073WAT     H236462   1.900   7.297   6.286
12074WAT      O36463   6.669   5.591   8.842
12074WAT     H136464   6.666   5.635   8.753
12074WAT     H236465   6.591   5.622   8.897
12075WAT      O36466   1.865   3.347   8.966
12075WAT     H136467   1.919   3.326   9.047
12075WAT     H236468   1.771   3.315   8.979
12076WAT      O36469   7.619   8.195   2.901
12076WAT     H136470   7.552   8.157   2.965
12076WAT     H236471   7.707   8.149   2.914
12077WAT      O36472   9.384   6.649   6.407
12077WAT     H136473   9.374   6.728   6.346
12077WAT     H236474   9.384   6.680   6.502
12078WAT      O36475   5.936   8.509   2.786
12078WAT     H136476   5.925   8.606   2.765
12078WAT     H236477   5.854   8.475   2.831
12079WAT      O36478   2.937   1.441   0.589
12079WAT     H136479   2.964   1.534   0.616
12079WAT     H236480   2.914   1.388   0.670
12080WAT      O36481   1.921   4.861   9.583
12080WAT     H136482   1.833   4.850   9.537
12080WAT     H236483   1.949   4.957   9.579
12081WAT      O36484   6.923   2.167   2.126
12081WAT     H136485   6.840   2.218   2.145
12081WAT     H236486   7.001   2.214   2.168
12082WAT      O36487   9.060   0.422   2.195
12082WAT     H136488   9.110   0.504   2.167
12082WAT     H236489   9.110   0.341   2.167
12083WAT      O36490   3.605   8.572   0.687
12083WAT     H136491   3.540   8.542   0.617
12083WAT     H236492   3.572   8.657   0.728
12084WAT      O36493   9.488   5.725   6.982
12084WAT     H136494   9.587   5.720   6.970
12084WAT     H236495   9.460   5.821   6.986
12085WAT      O36496   3.176   3.465   4.266
12085WAT     H136497   3.082   3.451   4.237
12085WAT     H236498   3.237   3.459   4.187
12086WAT      O36499   7.558   3.760   8.228
12086WAT     H136500   7.540   3.698   8.305
12086WAT     H236501   7.473   3.804   8.201
12087WAT      O36502   7.202   2.348   4.423
12087WAT     H136503   7.279   2.410   4.439
12087WAT     H236504   7.146   2.342   4.506
12088WAT      O36505   6.568   5.132   5.985
12088WAT     H136506   6.542   5.211   6.040
12088WAT     H236507   6.486   5.095   5.940
12089WAT      O36508   6.599   3.135   7.305
12089WAT     H136509   6.656   3.071   7.254
12089WAT     H236510   6.519   3.160   7.251
12090WAT      O36511   7.333   7.398   0.357
12090WAT     H136512   7.258   7.383   0.293
12090WAT     H236513   7.384   7.313   0.369
12091WAT      O36514   5.005   0.308   5.682
12091WAT     H136515   5.030   0.230   5.738
12091WAT     H236516   4.966   0.380   5.739
12092WAT      O36517   5.015   2.409   4.037
12092WAT     H136518   4.928   2.438   4.077
12092WAT     H236519   5.068   2.359   4.106
12093WAT      O36520   7.155   5.990   8.260
12093WAT     H136521   7.137   5.967   8.355
12093WAT     H236522   7.175   5.906   8.209
12094WAT      O36523   0.530   1.623   8.928
12094WAT     H136524   0.468   1.687   8.972
12094WAT     H236525   0.560   1.661   8.840
12095WAT      O36526   6.466   0.580   4.843
12095WAT     H136527   6.464   0.628   4.756
12095WAT     H236528   6.477   0.482   4.826
12096WAT      O36529   7.849   8.079   4.215
12096WAT     H136530   7.926   8.097   4.154
12096WAT     H236531   7.830   8.160   4.270
12097WAT      O36532   6.384   3.618   9.242
12097WAT     H136533   6.426   3.607   9.333
12097WAT     H236534   6.299   3.567   9.239
12098WAT      O36535   2.863   4.532   6.616
12098WAT     H136536   2.946   4.510   6.668
12098WAT     H236537   2.870   4.493   6.524
12099WAT      O36538   5.168   3.838   5.797
12099WAT     H136539   5.191   3.745   5.768
12099WAT     H236540   5.249   3.896   5.789
12100WAT      O36541   1.918   8.001   0.560
12100WAT     H136542   1.911   8.045   0.649
12100WAT     H236543   1.827   7.992   0.520
12101WAT      O36544   4.580   2.766   0.494
12101WAT     H136545   4.668   2.813   0.503
12101WAT     H236546   4.509   2.819   0.539
12102WAT      O36547   9.443   9.774   9.565
12102WAT     H136548   9.400   9.690   9.598
12102WAT     H236549   9.505   9.809   9.635
12103WAT      O36550   9.825   9.492   8.927
12103WAT     H136551   9.834   9.557   8.851
12103WAT     H236552   9.914   9.452   8.946
12104WAT      O36553   3.034   2.756   4.900
12104WAT     H136554   3.069   2.703   4.978
12104WAT     H236555   2.953   2.808   4.929
12105WAT      O36556   9.663   8.392   7.366
12105WAT     H136557   9.616   8.411   7.453
12105WAT     H236558   9.691   8.479   7.324
12106WAT      O36559   4.088   1.285   5.689
12106WAT     H136560   3.996   1.320   5.672
12106WAT     H236561   4.121   1.319   5.777
12107WAT      O36562   8.833   1.783   0.811
12107WAT     H136563   8.808   1.690   0.785
12107WAT     H236564   8.917   1.810   0.763
12108WAT      O36565   3.233   2.634   6.718
12108WAT     H136566   3.170   2.692   6.770
12108WAT     H236567   3.184   2.553   6.686
12109WAT      O36568   0.435   1.627   4.871
12109WAT     H136569   0.437   1.532   4.840
12109WAT     H236570   0.528   1.664   4.869
12110WAT      O36571   2.165   2.058   9.153
12110WAT     H136572   2.070   2.085   9.137
12110WAT     H236573   2.177   1.962   9.127
12111WAT      O36574   8.626   2.756   9.802
12111WAT     H136575   8.580   2.822   9.743
12111WAT     H236576   8.654   2.801   9.887
12112WAT      O36577   4.558   6.850   0.473
12112WAT     H136578   4.655   6.850   0.498
12112WAT     H236579   4.508   6.912   0.533
12113WAT      O36580   4.777   0.698   7.749
12113WAT     H136581   4.778   0.768   7.820
12113WAT     H236582   4.826   0.731   7.668
12114WAT      O36583   9.197   8.437   7.526
12114WAT     H136584   9.295   8.423   7.541
12114WAT     H236585   9.180   8.451   7.428
12115WAT      O36586   9.268   5.838   2.097
12115WAT     H136587   9.331   5.768   2.130
12115WAT     H236588   9.174   5.809   2.117
12116WAT      O36589   4.160   1.884   5.352
12116WAT     H136590   4.115   1.929   5.429
12116WAT     H236591   4.099   1.814   5.314
12117WAT      O36592   4.025   9.454   3.316
12117WAT     H136593   4.080   9.401   3.251
12117WAT     H236594   4.083   9.482   3.392
12118WAT      O36595   2.694   1.036   5.768
12118WAT     H136596   2.759   1.088   5.823
12118WAT     H236597   2.637   0.978   5.828
12119WAT      O36598   4.136   7.814   9.098
12119WAT     H136599   4.209   7.746   9.109
12119WAT     H236600   4.175   7.897   9.057
12120WAT      O36601   0.775   7.488   0.132
12120WAT     H136602   0.789   7.551   0.208
12120WAT     H236603   0.699   7.427   0.154
12121WAT      O36604   0.153   3.972   0.451
12121WAT     H136605   0.077   3.963   0.386
12121WAT     H236606   0.179   3.882   0.485
12122WAT      O36607   0.900   9.311   6.569
12122WAT     H136608   0.975   9.250   6.592
12122WAT     H236609   0.831   9.307   6.641
12123WAT      O36610   6.219   5.979   9.453
12123WAT     H136611   6.264   5.981   9.364
12123WAT     H236612   6.248   6.057   9.507
12124WAT      O36613   7.993   6.282   7.617
12124WAT     H136614   8.002   6.259   7.520
12124WAT     H236615   7.935   6.362   7.628
12125WAT      O36616   7.303   5.515   2.717
12125WAT     H136617   7.402   5.532   2.719
12125WAT     H236618   7.280   5.462   2.636
12126WAT      O36619   2.096   8.480   0.992
12126WAT     H136620   2.063   8.538   0.917
12126WAT     H236621   2.087   8.529   1.078
12127WAT      O36622   0.148   4.523   0.042
12127WAT     H136623   0.236   4.557   0.075
12127WAT     H236624   0.102   4.472   0.115
12128WAT      O36625   5.372   5.962   1.254
12128WAT     H136626   5.428   5.943   1.334
12128WAT     H236627   5.428   5.955   1.171
12129WAT      O36628   0.776   4.036   0.162
12129WAT     H136629   0.714   4.114   0.154
12129WAT     H236630   0.812   4.012   0.072
12130WAT      O36631   3.571   8.589   1.066
12130WAT     H136632   3.513   8.629   0.995
12130WAT     H236633   3.524   8.592   1.154
12131WAT      O36634   4.129   0.488   4.913
12131WAT     H136635   4.157   0.584   4.913
12131WAT     H236636   4.074   0.469   4.832
12132WAT      O36637   3.787   8.535   9.120
12132WAT     H136638   3.772   8.544   9.022
12132WAT     H236639   3.798   8.626   9.160
12133WAT      O36640   6.443   3.164   7.542
12133WAT     H136641   6.506   3.175   7.465
12133WAT     H236642   6.496   3.146   7.625
12134WAT      O36643   8.828   8.945   0.739
12134WAT     H136644   8.785   9.002   0.669
12134WAT     H236645   8.758   8.892   0.786
12135WAT      O36646   4.191   1.512   6.206
12135WAT     H136647   4.284   1.477   6.209
12135WAT     H236648   4.126   1.438   6.225
12136WAT      O36649   5.881   1.100   5.042
12136WAT     H136650   5.903   1.101   4.944
12136WAT     H236651   5.809   1.167   5.061
12137WAT      O36652   3.691   9.219   5.815
12137WAT     H136653   3.746   9.284   5.867
12137WAT     H236654   3.600   9.258   5.797
12138WAT      O36655   7.487   2.567   8.378
12138WAT     H136656   7.575   2.602   8.411
12138WAT     H236657   7.466   2.481   8.425
12139WAT      O36658   4.400   3.254   9.767
12139WAT     H136659   4.430   3.300   9.851
12139WAT     H236660   4.398   3.319   9.692
12140WAT      O36661   0.769   3.529   5.835
12140WAT     H136662   0.794   3.439   5.872
12140WAT     H236663   0.684   3.520   5.782
12141WAT      O36664   7.961   9.828   2.003
12141WAT     H136665   8.009   9.786   2.080
12141WAT     H236666   8.025   9.840   1.927
12142WAT      O36667   8.027   3.852   2.093
12142WAT     H136668   8.109   3.865   2.036
12142WAT     H236669   8.055   3.844   2.189
12143WAT      O36670   2.146   6.435   7.621
12143WAT     H136671   2.103   6.388   7.544
12143WAT     H236672   2.158   6.532   7.599
12144WAT      O36673   0.429   2.215   3.331
12144WAT     H136674   0.516   2.212   3.380
12144WAT     H236675   0.403   2.310   3.316
12145WAT      O36676   1.975   7.233   2.265
12145WAT     H136677   1.938   7.239   2.172
12145WAT     H236678   1.906   7.262   2.331
12146WAT      O36679   4.095   3.186   3.847
12146WAT     H136680   4.185   3.143   3.843
12146WAT     H236681   4.031   3.133   3.791
12147WAT      O36682   6.572   6.519   0.852
12147WAT     H136683   6.538   6.440   0.903
12147WAT     H236684   6.514   6.534   0.772
12148WAT      O36685   4.939   8.161   9.689
12148WAT     H136686   5.026   8.114   9.695
12148WAT     H236687   4.923   8.191   9.595
12149WAT      O36688   4.132   2.101   5.844
12149WAT     H136689   4.092   2.164   5.778
12149WAT     H236690   4.198   2.041   5.798
12150WAT      O36691   3.606   6.643   7.802
12150WAT     H136692   3.550   6.722   7.825
12150WAT     H236693   3.555   6.582   7.741
12151WAT      O36694   4.603   7.712   0.258
12151WAT     H136695   4.580   7.752   0.347
12151WAT     H236696   4.532   7.735   0.191
12152WAT      O36697   5.457   7.706   2.151
12152WAT     H136698   5.500   7.623   2.116
12152WAT     H236699   5.527   7.764   2.194
12153WAT      O36700   4.160   0.709   8.181
12153WAT     H136701   4.098   0.642   8.221
12153WAT     H236702   4.127   0.802   8.200
12154WAT      O36703   4.585   7.406   2.928
12154WAT     H136704   4.492   7.417   2.964
12154WAT     H236705   4.636   7.342   2.986
12155WAT      O36706   4.723   7.442   7.479
12155WAT     H136707   4.648   7.505   7.459
12155WAT     H236708   4.722   7.367   7.413
12156WAT      O36709   6.213   6.964   7.119
12156WAT     H136710   6.295   6.918   7.084
12156WAT     H236711   6.147   6.895   7.149
12157WAT      O36712   0.305   3.664   7.752
12157WAT     H136713   0.271   3.598   7.685
12157WAT     H236714   0.306   3.623   7.843
12158WAT      O36715   2.434   2.817   2.090
12158WAT     H136716   2.379   2.804   2.008
12158WAT     H236717   2.516   2.870   2.068
12159WAT      O36718   2.365   8.883   8.237
12159WAT     H136719   2.283   8.928   8.201
12159WAT     H236720   2.442   8.947   8.233
12160WAT      O36721   5.872   5.439   7.709
12160WAT     H136722   5.803   5.481   7.768
12160WAT     H236723   5.852   5.342   7.697
12161WAT      O36724   1.323   3.900   2.788
12161WAT     H136725   1.226   3.926   2.796
12161WAT     H236726   1.334   3.836   2.712
12162WAT      O36727   2.075   9.823   0.557
12162WAT     H136728   1.990   9.875   0.566
12162WAT     H236729   2.085   9.762   0.635
12163WAT      O36730   8.519   6.620   2.491
12163WAT     H136731   8.527   6.705   2.439
12163WAT     H236732   8.603   6.567   2.480
12164WAT      O36733   9.499   8.913   9.155
12164WAT     H136734   9.416   8.890   9.104
12164WAT     H236735   9.519   8.840   9.221
12165WAT      O36736   3.560   6.143   6.974
12165WAT     H136737   3.540   6.046   6.985
12165WAT     H236738   3.486   6.197   7.014
12166WAT      O36739   4.893   1.770   5.804
12166WAT     H136740   4.816   1.720   5.763
12166WAT     H236741   4.943   1.818   5.732
12167WAT      O36742   2.264   4.320   3.132
12167WAT     H136743   2.352   4.284   3.165
12167WAT     H236744   2.194   4.304   3.202
12168WAT      O36745   2.123   1.640   7.035
12168WAT     H136746   2.026   1.616   7.024
12168WAT     H236747   2.177   1.595   6.963
12169WAT      O36748   7.051   1.296   6.807
12169WAT     H136749   7.104   1.342   6.736
12169WAT     H236750   6.961   1.272   6.771
12170WAT      O36751   3.375   2.428   5.361
12170WAT     H136752   3.360   2.406   5.457
12170WAT     H236753   3.370   2.527   5.348
12171WAT      O36754   4.436   5.219   2.169
12171WAT     H136755   4.412   5.234   2.265
12171WAT     H236756   4.352   5.203   2.116
12172WAT      O36757   7.584   4.245   8.490
12172WAT     H136758   7.517   4.192   8.439
12172WAT     H236759   7.670   4.249   8.439
12173WAT      O36760   5.011   7.479   0.923
12173WAT     H136761   5.015   7.569   0.967
12173WAT     H236762   4.919   7.441   0.933
12174WAT      O36763   4.432   6.829   5.186
12174WAT     H136764   4.462   6.857   5.095
12174WAT     H236765   4.427   6.729   5.189
12175WAT      O36766   5.966   5.721   3.185
12175WAT     H136767   5.949   5.785   3.261
12175WAT     H236768   5.993   5.773   3.104
12176WAT      O36769   1.878   6.291   6.076
12176WAT     H136770   1.873   6.375   6.022
12176WAT     H236771   1.905   6.314   6.170
12177WAT      O36772   4.259   4.780   0.858
12177WAT     H136773   4.239   4.790   0.956
12177WAT     H236774   4.234   4.864   0.810
12178WAT      O36775   1.288   2.859   8.889
12178WAT     H136776   1.236   2.928   8.940
12178WAT     H236777   1.262   2.768   8.919
12179WAT      O36778   8.182   4.864   2.678
12179WAT     H136779   8.104   4.907   2.633
12179WAT     H236780   8.167   4.864   2.777
12180WAT      O36781   4.399   7.234   2.678
12180WAT     H136782   4.425   7.267   2.769
12180WAT     H236783   4.420   7.304   2.610
12181WAT      O36784   1.836   0.263   8.497
12181WAT     H136785   1.885   0.268   8.410
12181WAT     H236786   1.850   0.347   8.549
12182WAT      O36787   3.892   0.593   7.526
12182WAT     H136788   3.963   0.656   7.559
12182WAT     H236789   3.823   0.645   7.476
12183WAT      O36790   8.166   1.630   9.715
12183WAT     H136791   8.080   1.581   9.699
12183WAT     H236792   8.187   1.687   9.636
12184WAT      O36793   4.270   3.017   2.219
12184WAT     H136794   4.185   2.986   2.261
12184WAT     H236795   4.340   2.946   2.227
12185WAT      O36796   2.543   4.284   6.412
12185WAT     H136797   2.539   4.192   6.450
12185WAT     H236798   2.518   4.282   6.315
12186WAT      O36799   0.509   4.429   2.734
12186WAT     H136800   0.428   4.422   2.675
12186WAT     H236801   0.500   4.509   2.794
12187WAT      O36802   3.180   8.492   4.910
12187WAT     H136803   3.156   8.585   4.884
12187WAT     H236804   3.266   8.466   4.868
12188WAT      O36805   0.885   7.622   3.980
12188WAT     H136806   0.844   7.693   3.922
12188WAT     H236807   0.983   7.640   3.990
12189WAT      O36808   3.792   0.531   8.440
12189WAT     H136809   3.772   0.435   8.456
12189WAT     H236810   3.860   0.540   8.367
12190WAT      O36811   3.489   2.975   0.521
12190WAT     H136812   3.399   3.007   0.492
12190WAT     H236813   3.495   2.876   0.510
12191WAT      O36814   2.527   9.069   7.232
12191WAT     H136815   2.508   9.119   7.148
12191WAT     H236816   2.467   8.990   7.239
12192WAT      O36817   0.283   4.125   0.233
12192WAT     H136818   0.259   4.068   0.310
12192WAT     H236819   0.345   4.075   0.172
12193WAT      O36820   0.433   2.744   3.133
12193WAT     H136821   0.517   2.716   3.086
12193WAT     H236822   0.443   2.729   3.231
12194WAT      O36823   9.620   8.128   7.453
12194WAT     H136824   9.651   8.216   7.417
12194WAT     H236825   9.601   8.138   7.551
12195WAT      O36826   0.867   1.496   6.279
12195WAT     H136827   0.904   1.578   6.323
12195WAT     H236828   0.770   1.487   6.303
12196WAT      O36829   0.502   6.719   4.374
12196WAT     H136830   0.588   6.676   4.346
12196WAT     H236831   0.427   6.685   4.317
12197WAT      O36832   8.127   6.095   8.716
12197WAT     H136833   8.055   6.107   8.785
12197WAT     H236834   8.217   6.102   8.759
12198WAT      O36835   2.830   6.215   7.550
12198WAT     H136836   2.838   6.315   7.539
12198WAT     H236837   2.892   6.185   7.623
12199WAT      O36838   3.645   2.225   8.425
12199WAT     H136839   3.625   2.318   8.456
12199WAT     H236840   3.589   2.204   8.345
12200WAT      O36841   2.884   4.917   7.996
12200WAT     H136842   2.837   4.991   8.043
12200WAT     H236843   2.821   4.842   7.979
12201WAT      O36844   4.521   5.717   5.024
12201WAT     H136845   4.611   5.756   5.006
12201WAT     H236846   4.515   5.689   5.120
12202WAT      O36847   8.145   9.270   0.819
12202WAT     H136848   8.129   9.256   0.721
12202WAT     H236849   8.097   9.199   0.871
12203WAT      O36850   1.275   5.924   8.888
12203WAT     H136851   1.320   6.011   8.868
12203WAT     H236852   1.266   5.913   8.987
12204WAT      O36853   8.232   1.248   0.221
12204WAT     H136854   8.155   1.237   0.284
12204WAT     H236855   8.265   1.158   0.193
12205WAT      O36856   7.846   5.201   4.762
12205WAT     H136857   7.811   5.269   4.827
12205WAT     H236858   7.920   5.149   4.804
12206WAT      O36859   1.555   9.168   3.173
12206WAT     H136860   1.505   9.254   3.174
12206WAT     H236861   1.565   9.137   3.078
12207WAT      O36862   5.433   5.390   8.366
12207WAT     H136863   5.345   5.360   8.401
12207WAT     H236864   5.493   5.310   8.354
12208WAT      O36865   0.425   3.929   3.109
12208WAT     H136866   0.486   3.871   3.163
12208WAT     H236867   0.477   3.972   3.035
12209WAT      O36868   1.370   3.809   3.045
12209WAT     H136869   1.342   3.870   2.971
12209WAT     H236870   1.400   3.722   3.006
12210WAT      O36871   4.078   8.147   0.297
12210WAT     H136872   4.121   8.058   0.311
12210WAT     H236873   4.007   8.139   0.227
12211WAT      O36874   5.032   0.161   1.034
12211WAT     H136875   5.059   0.165   0.938
12211WAT     H236876   5.052   0.249   1.078
12212WAT      O36877   2.204   7.031   2.305
12212WAT     H136878   2.135   7.068   2.242
12212WAT     H236879   2.295   7.047   2.268
12213WAT      O36880   8.719   8.882   5.445
12213WAT     H136881   8.753   8.794   5.412
12213WAT     H236882   8.716   8.947   5.369
12214WAT      O36883   4.407   7.556   7.721
12214WAT     H136884   4.340   7.601   7.779
12214WAT     H236885   4.421   7.462   7.753
12215WAT      O36886   3.621   5.097   4.215
12215WAT     H136887   3.544   5.093   4.152
12215WAT     H236888   3.698   5.145   4.173
12216WAT      O36889   3.422   6.545   8.465
12216WAT     H136890   3.366   6.608   8.520
12216WAT     H236891   3.482   6.599   8.405
12217WAT      O36892   3.518   6.423   2.712
12217WAT     H136893   3.563   6.506   2.745
12217WAT     H236894   3.492   6.366   2.790
12218WAT      O36895   6.386   3.555   6.460
12218WAT     H136896   6.322   3.479   6.468
12218WAT     H236897   6.377   3.597   6.370
12219WAT      O36898   6.833   7.726   6.542
12219WAT     H136899   6.857   7.682   6.455
12219WAT     H236900   6.888   7.808   6.553
12220WAT      O36901   4.441   1.534   1.516
12220WAT     H136902   4.372   1.600   1.488
12220WAT     H236903   4.532   1.576   1.513
12221WAT      O36904   7.082   2.554   4.656
12221WAT     H136905   7.045   2.600   4.575
12221WAT     H236906   7.066   2.456   4.648
12222WAT      O36907   7.439   7.822   3.117
12222WAT     H136908   7.383   7.852   3.195
12222WAT     H236909   7.435   7.722   3.110
12223WAT      O36910   8.939   1.341   2.404
12223WAT     H136911   8.914   1.300   2.491
12223WAT     H236912   8.881   1.304   2.331
12224WAT      O36913   1.599   3.938   7.473
12224WAT     H136914   1.520   3.877   7.472
12224WAT     H236915   1.573   4.027   7.434
12225WAT      O36916   0.993   8.424   7.368
12225WAT     H136917   0.956   8.507   7.327
12225WAT     H236918   1.072   8.447   7.425
12226WAT      O36919   0.441   5.670   8.383
12226WAT     H136920   0.497   5.741   8.425
12226WAT     H236921   0.345   5.684   8.407
12227WAT      O36922   7.142   4.126   9.647
12227WAT     H136923   7.152   4.163   9.740
12227WAT     H236924   7.104   4.033   9.652
12228WAT      O36925   7.983   9.836   8.355
12228WAT     H136926   8.050   9.902   8.321
12228WAT     H236927   7.936   9.874   8.435
12229WAT      O36928   6.717   0.057   6.884
12229WAT     H136929   6.792  -0.008   6.869
12229WAT     H236930   6.739   0.115   6.963
12230WAT      O36931   2.508   3.004   8.125
12230WAT     H136932   2.537   2.923   8.177
12230WAT     H236933   2.520   2.988   8.028
12231WAT      O36934   2.334   1.327   0.575
12231WAT     H136935   2.314   1.235   0.543
12231WAT     H236936   2.416   1.361   0.529
12232WAT      O36937   0.389   5.099   9.658
12232WAT     H136938   0.481   5.102   9.696
12232WAT     H236939   0.353   5.006   9.665
12233WAT      O36940   2.704   5.943   2.906
12233WAT     H136941   2.773   5.939   2.833
12233WAT     H236942   2.640   5.866   2.895
12234WAT      O36943   9.296   3.986   2.336
12234WAT     H136944   9.351   3.967   2.417
12234WAT     H236945   9.220   4.047   2.360
12235WAT      O36946   5.665   7.106   4.674
12235WAT     H136947   5.578   7.152   4.655
12235WAT     H236948   5.722   7.108   4.592
12236WAT      O36949   9.420   9.706   2.069
12236WAT     H136950   9.427   9.804   2.047
12236WAT     H236951   9.424   9.694   2.168
12237WAT      O36952   4.447   8.511   5.319
12237WAT     H136953   4.494   8.593   5.350
12237WAT     H236954   4.411   8.462   5.398
12238WAT      O36955   6.808   2.435   2.993
12238WAT     H136956   6.756   2.467   2.914
12238WAT     H236957   6.866   2.509   3.027
12239WAT      O36958   4.794   8.386   1.602
12239WAT     H136959   4.695   8.388   1.589
12239WAT     H236960   4.819   8.302   1.651
12240WAT      O36961   3.721   7.737   6.044
12240WAT     H136962   3.765   7.648   6.058
12240WAT     H236963   3.627   7.733   6.077
12241WAT      O36964   8.834   9.395   5.612
12241WAT     H136965   8.745   9.404   5.567
12241WAT     H236966   8.840   9.461   5.687
12242WAT      O36967   9.648   3.519   1.422
12242WAT     H136968   9.638   3.433   1.373
12242WAT     H236969   9.724   3.571   1.384
12243WAT      O36970   7.212   1.721   4.768
12243WAT     H136971   7.291   1.659   4.765
12243WAT     H236972   7.236   1.807   4.723
12244WAT      O36973   0.013   8.493   2.559
12244WAT     H136974   0.008   8.463   2.654
12244WAT     H236975   0.026   8.414   2.499
12245WAT      O36976   1.862   6.362   0.906
12245WAT     H136977   1.919   6.380   0.825
12245WAT     H236978   1.907   6.294   0.964
12246WAT      O36979   7.075   0.951   4.644
12246WAT     H136980   7.087   0.965   4.545
12246WAT     H236981   7.157   0.908   4.681
12247WAT      O36982   9.883   1.850   6.835
12247WAT     H136983   9.937   1.791   6.775
12247WAT     H236984   9.857   1.799   6.916
12248WAT      O36985   2.141   1.253   1.778
12248WAT     H136986   2.222   1.212   1.820
12248WAT     H236987   2.114   1.335   1.829
12249WAT      O36988   6.853   2.013   5.580
12249WAT     H136989   6.799   2.098   5.583
12249WAT     H236990   6.932   2.026   5.521
12250WAT      O36991   1.905   6.143   1.461
12250WAT     H136992   1.828   6.108   1.514
12250WAT     H236993   1.954   6.068   1.418
12251WAT      O36994   4.524   6.320   4.297
12251WAT     H136995   4.567   6.410   4.305
12251WAT     H236996   4.486   6.309   4.205
12252WAT      O36997   1.872   8.014   6.318
12252WAT     H136998   1.940   7.989   6.249
12252WAT     H236999   1.912   8.079   6.382
12253WAT      O37000   7.962   1.770   0.249
12253WAT     H137001   7.906   1.776   0.331
12253WAT     H237002   7.972   1.675   0.221
12254WAT      O37003   8.245   4.486   0.134
12254WAT     H137004   8.278   4.392   0.129
12254WAT     H237005   8.160   4.489   0.186
12255WAT      O37006   4.637   8.873   4.197
12255WAT     H137007   4.671   8.807   4.129
12255WAT     H237008   4.675   8.963   4.178
12256WAT      O37009   7.460   7.758   9.793
12256WAT     H137010   7.512   7.814   9.858
12256WAT     H237011   7.411   7.686   9.842
12257WAT      O37012   1.918   2.502   9.727
12257WAT     H137013   1.994   2.474   9.668
12257WAT     H237014   1.936   2.473   9.821
12258WAT      O37015   4.272   6.972   4.137
12258WAT     H137016   4.172   6.960   4.143
12258WAT     H237017   4.293   7.033   4.061
12259WAT      O37018   4.052   5.645   9.858
12259WAT     H137019   4.120   5.584   9.817
12259WAT     H237020   4.007   5.698   9.786
12260WAT      O37021   5.378   1.879   4.900
12260WAT     H137022   5.465   1.916   4.933
12260WAT     H237023   5.316   1.866   4.977
12261WAT      O37024   1.272   4.680   9.263
12261WAT     H137025   1.208   4.603   9.261
12261WAT     H237026   1.225   4.761   9.299
12262WAT      O37027   4.866   6.607   4.090
12262WAT     H137028   4.849   6.666   4.011
12262WAT     H237029   4.836   6.514   4.069
12263WAT      O37030   8.928   9.765   9.087
12263WAT     H137031   8.985   9.826   9.143
12263WAT     H237032   8.987   9.697   9.043
12264WAT      O37033   9.492   7.501   2.808
12264WAT     H137034   9.436   7.428   2.770
12264WAT     H237035   9.589   7.475   2.804
12265WAT      O37036   8.841   1.638   1.488
12265WAT     H137037   8.936   1.639   1.456
12265WAT     H237038   8.828   1.710   1.556
12266WAT      O37039   0.264   4.868   9.778
12266WAT     H137040   0.239   4.838   9.686
12266WAT     H237041   0.350   4.824   9.805
12267WAT      O37042   3.653   2.135   7.993
12267WAT     H137043   3.749   2.111   7.985
12267WAT     H237044   3.643   2.234   7.997
12268WAT      O37045   5.771   5.038   0.221
12268WAT     H137046   5.673   5.030   0.208
12268WAT     H237047   5.798   4.998   0.308
12269WAT      O37048   9.120   1.036   0.476
12269WAT     H137049   9.114   1.119   0.420
12269WAT     H237050   9.033   1.021   0.523
12270WAT      O37051   4.524   2.654   4.869
12270WAT     H137052   4.458   2.589   4.907
12270WAT     H237053   4.502   2.746   4.899
12271WAT      O37054   8.006   4.004   4.513
12271WAT     H137055   8.019   3.915   4.469
12271WAT     H237056   8.023   3.995   4.611
12272WAT      O37057   8.598   7.758   9.300
12272WAT     H137058   8.570   7.715   9.214
12272WAT     H237059   8.581   7.695   9.375
12273WAT      O37060   6.608   1.958   2.151
12273WAT     H137061   6.659   1.905   2.083
12273WAT     H237062   6.672   2.007   2.210
12274WAT      O37063   3.508   3.839   6.310
12274WAT     H137064   3.602   3.815   6.287
12274WAT     H237065   3.507   3.900   6.389
12275WAT      O37066   4.758   4.645   6.097
12275WAT     H137067   4.690   4.596   6.152
12275WAT     H237068   4.783   4.730   6.144
12276WAT      O37069   6.431   0.321   7.932
12276WAT     H137070   6.509   0.275   7.888
12276WAT     H237071   6.372   0.361   7.862
12277WAT      O37072   8.243   0.129   1.387
12277WAT     H137073   8.159   0.137   1.334
12277WAT     H237074   8.296   0.213   1.378
12278WAT      O37075   0.399   5.979   2.564
12278WAT     H137076   0.359   5.888   2.550
12278WAT     H237077   0.499   5.971   2.561
12279WAT      O37078   4.510   8.108   9.567
12279WAT     H137079   4.567   8.189   9.553
12279WAT     H237080   4.437   8.129   9.631
12280WAT      O37081   4.276   9.411   6.052
12280WAT     H137082   4.320   9.388   5.965
12280WAT     H237083   4.231   9.500   6.044
12281WAT      O37084   8.575   6.760   0.137
12281WAT     H137085   8.570   6.784   0.040
12281WAT     H237086   8.649   6.812   0.180
12282WAT      O37087   0.598   3.969   1.653
12282WAT     H137088   0.617   3.904   1.727
12282WAT     H237089   0.611   4.063   1.687
12283WAT      O37090   5.981   7.918   9.594
12283WAT     H137091   6.014   7.959   9.679
12283WAT     H237092   5.884   7.895   9.603
12284WAT      O37093   4.145   2.080   3.467
12284WAT     H137094   4.168   1.987   3.495
12284WAT     H237095   4.184   2.145   3.532
12285WAT      O37096   5.141   6.766   7.228
12285WAT     H137097   5.095   6.772   7.317
12285WAT     H237098   5.145   6.856   7.186
12286WAT      O37099   1.419   5.231   6.529
12286WAT     H137100   1.510   5.268   6.546
12286WAT     H237101   1.352   5.305   6.527
12287WAT      O37102   5.061   1.578   6.738
12287WAT     H137103   5.161   1.581   6.738
12287WAT     H237104   5.025   1.663   6.700
12288WAT      O37105   3.966   1.931   6.003
12288WAT     H137106   4.021   1.994   5.948
12288WAT     H237107   4.014   1.843   6.010
12289WAT      O37108   2.273   8.666   7.803
12289WAT     H137109   2.369   8.670   7.831
12289WAT     H237110   2.214   8.660   7.884
12290WAT      O37111   8.677   3.833   4.305
12290WAT     H137112   8.726   3.767   4.362
12290WAT     H237113   8.724   3.844   4.218
12291WAT      O37114   8.121   5.398   0.282
12291WAT     H137115   8.217   5.375   0.267
12291WAT     H237116   8.083   5.438   0.198
12292WAT      O37117   4.680   2.810   6.126
12292WAT     H137118   4.718   2.756   6.052
12292WAT     H237119   4.657   2.751   6.203
12293WAT      O37120   5.197   9.529   2.842
12293WAT     H137121   5.138   9.473   2.784
12293WAT     H237122   5.267   9.574   2.786
12294WAT      O37123   6.663   8.307   9.860
12294WAT     H137124   6.740   8.368   9.842
12294WAT     H237125   6.642   8.255   9.777
12295WAT      O37126   9.636   1.646   4.003
12295WAT     H137127   9.588   1.592   4.072
12295WAT     H237128   9.570   1.701   3.952
12296WAT      O37129   5.090   7.915   2.765
12296WAT     H137130   4.991   7.922   2.756
12296WAT     H237131   5.120   7.823   2.736
12297WAT      O37132   2.402   4.101   0.288
12297WAT     H137133   2.384   4.005   0.266
12297WAT     H237134   2.445   4.108   0.378
12298WAT      O37135   0.115   6.387   0.519
12298WAT     H137136   0.106   6.296   0.481
12298WAT     H237137   0.104   6.455   0.446
12299WAT      O37138   3.533   0.111   3.301
12299WAT     H137139   3.530   0.126   3.400
12299WAT     H237140   3.518   0.014   3.282
12300WAT      O37141   3.235   1.096   8.941
12300WAT     H137142   3.305   1.033   8.907
12300WAT     H237143   3.279   1.176   8.983
12301WAT      O37144   2.044   7.545   1.486
12301WAT     H137145   2.119   7.604   1.516
12301WAT     H237146   2.082   7.468   1.434
12302WAT      O37147   0.960   9.580   6.186
12302WAT     H137148   0.992   9.537   6.271
12302WAT     H237149   1.019   9.657   6.163
12303WAT      O37150   2.472   5.749   5.351
12303WAT     H137151   2.464   5.694   5.268
12303WAT     H237152   2.514   5.836   5.329
12304WAT      O37153   1.471   4.795   0.551
12304WAT     H137154   1.450   4.703   0.518
12304WAT     H237155   1.386   4.844   0.570
12305WAT      O37156   7.402   1.559   4.777
12305WAT     H137157   7.402   1.462   4.755
12305WAT     H237158   7.489   1.584   4.819
12306WAT      O37159   6.515   7.796   8.585
12306WAT     H137160   6.588   7.809   8.518
12306WAT     H237161   6.500   7.699   8.599
12307WAT      O37162   0.364   5.553   1.072
12307WAT     H137163   0.358   5.570   0.974
12307WAT     H237164   0.273   5.538   1.110
12308WAT      O37165   2.202   6.247   6.182
12308WAT     H137166   2.285   6.255   6.239
12308WAT     H237167   2.194   6.154   6.147
12309WAT      O37168   9.416   6.609   7.548
12309WAT     H137169   9.346   6.599   7.477
12309WAT     H237170   9.496   6.554   7.523
12310WAT      O37171   8.212   4.598   0.823
12310WAT     H137172   8.234   4.607   0.920
12310WAT     H237173   8.233   4.505   0.793
12311WAT      O37174   1.324   5.000   1.805
12311WAT     H137175   1.246   5.062   1.810
12311WAT     H237176   1.299   4.911   1.843
12312WAT      O37177   8.768   2.898   9.528
12312WAT     H137178   8.807   2.976   9.575
12312WAT     H237179   8.677   2.877   9.565
12313WAT      O37180   4.359   6.883   7.281
12313WAT     H137181   4.432   6.817   7.265
12313WAT     H237182   4.279   6.836   7.319
12314WAT      O37183   3.400   7.824   5.256
12314WAT     H137184   3.415   7.810   5.354
12314WAT     H237185   3.305   7.849   5.240
12315WAT      O37186   0.960   6.188   6.223
12315WAT     H137187   0.927   6.105   6.179
12315WAT     H237188   1.059   6.194   6.212
12316WAT      O37189   1.770   5.506   3.301
12316WAT     H137190   1.771   5.412   3.269
12316WAT     H237191   1.824   5.514   3.384
12317WAT      O37192   0.410   8.115   1.693
12317WAT     H137193   0.365   8.071   1.615
12317WAT     H237194   0.446   8.204   1.664
12318WAT      O37195   5.514   4.877   9.017
12318WAT     H137196   5.558   4.907   9.102
12318WAT     H237197   5.476   4.786   9.031
12319WAT      O37198   3.160   1.494   3.395
12319WAT     H137199   3.094   1.422   3.416
12319WAT     H237200   3.124   1.582   3.424
12320WAT      O37201   1.471   4.409   4.104
12320WAT     H137202   1.455   4.379   4.010
12320WAT     H237203   1.422   4.348   4.167
12321WAT      O37204   4.878   7.629   3.798
12321WAT     H137205   4.850   7.537   3.769
12321WAT     H237206   4.827   7.655   3.880
12322WAT      O37207   8.755   2.429   1.364
12322WAT     H137208   8.841   2.403   1.322
12322WAT     H237209   8.721   2.514   1.322
12323WAT      O37210   5.919   2.239   0.514
12323WAT     H137211   5.874   2.169   0.570
12323WAT     H237212   6.015   2.247   0.542
12324WAT      O37213   8.516   1.090   2.288
12324WAT     H137214   8.443   1.109   2.354
12324WAT     H237215   8.476   1.079   2.197
12325WAT      O37216   9.065   2.219   6.895
12325WAT     H137217   8.973   2.257   6.909
12325WAT     H237218   9.130   2.266   6.954
12326WAT      O37219   5.907   0.269   6.160
12326WAT     H137220   5.821   0.318   6.150
12326WAT     H237221   5.894   0.174   6.130
12327WAT      O37222   9.792   8.769   4.700
12327WAT     H137223   9.767   8.752   4.605
12327WAT     H237224   9.857   8.699   4.731
12328WAT      O37225   5.496   4.350   4.630
12328WAT     H137226   5.485   4.299   4.715
12328WAT     H237227   5.422   4.416   4.620
12329WAT      O37228   0.453   0.252   1.956
12329WAT     H137229   0.489   0.332   2.004
12329WAT     H237230   0.361   0.272   1.923
12330WAT      O37231   0.177   6.062   3.231
12330WAT     H137232   0.237   6.040   3.154
12330WAT     H237233   0.124   5.981   3.256
12331WAT      O37234   2.817   1.507   9.786
12331WAT     H137235   2.826   1.407   9.784
12331WAT     H237236   2.808   1.541   9.692
12332WAT      O37237   0.222   7.324   1.016
12332WAT     H137238   0.312   7.368   1.026
12332WAT     H237239   0.227   7.231   1.051
12333WAT      O37240   8.790   3.386   8.553
12333WAT     H137241   8.869   3.376   8.613
12333WAT     H237242   8.726   3.453   8.592
12334WAT      O37243   9.274   1.039   9.854
12334WAT     H137244   9.250   1.020   9.949
12334WAT     H237245   9.344   1.110   9.850
12335WAT      O37246   1.225   5.384   8.204
12335WAT     H137247   1.294   5.387   8.276
12335WAT     H237248   1.266   5.416   8.118
12336WAT      O37249   0.839   3.008   4.869
12336WAT     H137250   0.921   2.975   4.915
12336WAT     H237251   0.860   3.031   4.774
12337WAT      O37252   4.335   5.305   1.702
12337WAT     H137253   4.316   5.396   1.666
12337WAT     H237254   4.401   5.259   1.642
12338WAT      O37255   5.010   6.716   6.977
12338WAT     H137256   5.052   6.699   7.066
12338WAT     H237257   5.036   6.807   6.944
12339WAT      O37258   9.797   7.211   0.910
12339WAT     H137259   9.829   7.245   0.998
12339WAT     H237260   9.848   7.255   0.837
12340WAT      O37261   9.585   3.882   9.872
12340WAT     H137262   9.609   3.922   9.960
12340WAT     H237263   9.654   3.815   9.846
12341WAT      O37264   8.090   7.791   0.912
12341WAT     H137265   8.079   7.870   0.852
12341WAT     H237266   8.132   7.716   0.860
12342WAT      O37267   3.613   7.653   6.553
12342WAT     H137268   3.531   7.663   6.496
12342WAT     H237269   3.692   7.633   6.494
12343WAT      O37270   7.791   6.168   5.409
12343WAT     H137271   7.869   6.207   5.359
12343WAT     H237272   7.708   6.216   5.382
12344WAT      O37273   9.440   3.048   2.007
12344WAT     H137274   9.393   3.133   2.029
12344WAT     H237275   9.424   3.025   1.911
12345WAT      O37276   7.855   4.016   9.099
12345WAT     H137277   7.802   4.100   9.089
12345WAT     H237278   7.836   3.955   9.023
12346WAT      O37279   6.048   8.980   2.027
12346WAT     H137280   6.097   9.067   2.023
12346WAT     H237281   6.060   8.930   1.941
12347WAT      O37282   9.822   7.626   7.141
12347WAT     H137283   9.827   7.689   7.064
12347WAT     H237284   9.733   7.581   7.143
12348WAT      O37285   2.995   0.625   0.292
12348WAT     H137286   3.050   0.572   0.227
12348WAT     H237287   2.926   0.566   0.333
12349WAT      O37288   7.416   8.261   9.313
12349WAT     H137289   7.375   8.348   9.343
12349WAT     H237290   7.401   8.249   9.215
12350WAT      O37291   3.249   9.362   8.110
12350WAT     H137292   3.292   9.273   8.091
12350WAT     H237293   3.319   9.427   8.137
12351WAT      O37294   4.541   3.419   4.346
12351WAT     H137295   4.505   3.338   4.300
12351WAT     H237296   4.471   3.459   4.404
12352WAT      O37297   3.156   7.780   6.795
12352WAT     H137298   3.060   7.765   6.821
12352WAT     H237299   3.200   7.838   6.863
12353WAT      O37300   3.510   7.061   7.414
12353WAT     H137301   3.561   7.113   7.483
12353WAT     H237302   3.482   6.973   7.453
12354WAT      O37303   5.026   7.592   7.804
12354WAT     H137304   4.938   7.549   7.786
12354WAT     H237305   5.053   7.574   7.899
12355WAT      O37306   1.493   0.551   2.847
12355WAT     H137307   1.393   0.553   2.842
12355WAT     H237308   1.526   0.640   2.878
12356WAT      O37309   7.643   0.015   5.400
12356WAT     H137310   7.608   0.039   5.309
12356WAT     H237311   7.567   0.004   5.463
12357WAT      O37312   0.313   6.583   5.562
12357WAT     H137313   0.223   6.577   5.607
12357WAT     H237314   0.306   6.545   5.469
12358WAT      O37315   4.102   4.629   8.772
12358WAT     H137316   4.142   4.560   8.711
12358WAT     H237317   4.155   4.632   8.857
12359WAT      O37318   6.418   2.375   2.660
12359WAT     H137319   6.427   2.281   2.625
12359WAT     H237320   6.501   2.401   2.708
12360WAT      O37321   0.483   0.687   4.888
12360WAT     H137322   0.399   0.655   4.931
12360WAT     H237323   0.561   0.635   4.923
12361WAT      O37324   5.695   4.683   7.177
12361WAT     H137325   5.640   4.766   7.181
12361WAT     H237326   5.792   4.707   7.181
12362WAT      O37327   1.570   9.603   2.281
12362WAT     H137328   1.569   9.503   2.282
12362WAT     H237329   1.485   9.636   2.240
12363WAT      O37330   8.798   7.760   1.228
12363WAT     H137331   8.715   7.814   1.217
12363WAT     H237332   8.776   7.663   1.217
12364WAT      O37333   4.517   7.050   5.637
12364WAT     H137334   4.502   7.025   5.541
12364WAT     H237335   4.565   7.137   5.642
12365WAT      O37336   6.990   7.894   9.599
12365WAT     H137337   6.904   7.846   9.618
12365WAT     H237338   6.976   7.958   9.523
12366WAT      O37339   9.058   9.043   8.920
12366WAT     H137340   9.014   9.050   8.830
12366WAT     H237341   8.990   9.053   8.992
12367WAT      O37342   3.756   2.682   4.542
12367WAT     H137343   3.787   2.725   4.457
12367WAT     H237344   3.836   2.659   4.598
12368WAT      O37345   6.943   8.535   5.424
12368WAT     H137346   6.916   8.631   5.436
12368WAT     H237347   6.931   8.486   5.510
12369WAT      O37348   1.083   1.692   7.896
12369WAT     H137349   1.144   1.743   7.835
12369WAT     H237350   1.000   1.667   7.846
12370WAT      O37351   5.971   1.448   4.481
12370WAT     H137352   5.954   1.350   4.490
12370WAT     H237353   5.884   1.497   4.476
12371WAT      O37354   6.992   0.780   1.589
12371WAT     H137355   7.056   0.842   1.542
12371WAT     H237356   6.913   0.831   1.622
12372WAT      O37357   0.856   1.425   2.298
12372WAT     H137358   0.824   1.357   2.363
12372WAT     H237359   0.956   1.421   2.291
12373WAT      O37360   7.205   0.404   6.620
12373WAT     H137361   7.294   0.447   6.633
12373WAT     H237362   7.140   0.442   6.686
12374WAT      O37363   1.936   8.273   2.681
12374WAT     H137364   1.972   8.181   2.671
12374WAT     H237365   1.996   8.338   2.634
12375WAT      O37366   4.384   1.147   5.030
12375WAT     H137367   4.464   1.205   5.046
12375WAT     H237368   4.377   1.079   5.103
12376WAT      O37369   6.482   0.248   7.332
12376WAT     H137370   6.463   0.302   7.414
12376WAT     H237371   6.494   0.152   7.359
12377WAT      O37372   4.120   6.977   2.427
12377WAT     H137373   4.108   6.929   2.514
12377WAT     H237374   4.059   6.939   2.359
12378WAT      O37375   7.885   8.706   2.785
12378WAT     H137376   7.914   8.634   2.848
12378WAT     H237377   7.884   8.793   2.834
12379WAT      O37378   4.323   5.757   5.539
12379WAT     H137379   4.385   5.777   5.614
12379WAT     H237380   4.233   5.731   5.576
12380WAT      O37381   7.986   2.448   1.449
12380WAT     H137382   7.930   2.488   1.376
12380WAT     H237383   7.927   2.413   1.522
12381WAT      O37384   1.799   1.968   6.953
12381WAT     H137385   1.772   2.064   6.954
12381WAT     H237386   1.771   1.925   6.867
12382WAT      O37387   5.932   7.535   3.899
12382WAT     H137388   5.865   7.497   3.835
12382WAT     H237389   5.920   7.493   3.989
12383WAT      O37390   0.379   0.466   1.048
12383WAT     H137391   0.430   0.549   1.026
12383WAT     H237392   0.360   0.416   0.964
12384WAT      O37393   9.211   0.019   8.885
12384WAT     H137394   9.204  -0.054   8.953
12384WAT     H237395   9.158   0.098   8.916
12385WAT      O37396   0.706   1.630   3.817
12385WAT     H137397   0.789   1.581   3.790
12385WAT     H237398   0.681   1.604   3.910
12386WAT      O37399   2.862   2.392   1.368
12386WAT     H137400   2.876   2.483   1.408
12386WAT     H237401   2.844   2.402   1.270
12387WAT      O37402   8.293   2.692   0.020
12387WAT     H137403   8.362   2.760  -0.004
12387WAT     H237404   8.331   2.600   0.007
12388WAT      O37405   2.792   1.197   5.436
12388WAT     H137406   2.763   1.252   5.358
12388WAT     H237407   2.840   1.116   5.403
12389WAT      O37408   7.307   6.435   7.374
12389WAT     H137409   7.282   6.530   7.391
12389WAT     H237410   7.390   6.432   7.318
12390WAT      O37411   8.805   0.181   2.782
12390WAT     H137412   8.887   0.152   2.733
12390WAT     H237413   8.809   0.280   2.798
12391WAT      O37414   1.326   0.322   9.893
12391WAT     H137415   1.237   0.292   9.859
12391WAT     H237416   1.362   0.393   9.833
12392WAT      O37417   3.110   6.247   1.803
12392WAT     H137418   3.042   6.179   1.774
12392WAT     H237419   3.202   6.211   1.783
12393WAT      O37420   0.503   3.222   5.738
12393WAT     H137421   0.424   3.193   5.792
12393WAT     H237422   0.585   3.178   5.774
12394WAT      O37423   2.503   1.168   6.978
12394WAT     H137424   2.489   1.127   7.068
12394WAT     H237425   2.503   1.268   6.987
12395WAT      O37426   1.427   4.620   1.699
12395WAT     H137427   1.391   4.695   1.643
12395WAT     H237428   1.368   4.606   1.778
12396WAT      O37429   0.304   0.699   5.182
12396WAT     H137430   0.322   0.643   5.264
12396WAT     H237431   0.371   0.773   5.178
12397WAT      O37432   3.976   3.266   5.386
12397WAT     H137433   4.027   3.328   5.446
12397WAT     H237434   4.017   3.175   5.389
12398WAT      O37435   2.530   4.536   7.053
12398WAT     H137436   2.456   4.506   6.992
12398WAT     H237437   2.529   4.481   7.136
12399WAT      O37438   3.752   9.567   1.660
12399WAT     H137439   3.653   9.568   1.665
12399WAT     H237440   3.786   9.661   1.655
12400WAT      O37441   0.459   2.395   3.054
12400WAT     H137442   0.484   2.360   2.964
12400WAT     H237443   0.359   2.397   3.062
12401WAT      O37444   5.190   6.202   1.910
12401WAT     H137445   5.120   6.175   1.844
12401WAT     H237446   5.258   6.129   1.918
12402WAT      O37447   0.666   0.971   2.794
12402WAT     H137448   0.643   1.068   2.801
12402WAT     H237449   0.614   0.919   2.861
12403WAT      O37450   7.638   9.380   1.319
12403WAT     H137451   7.566   9.383   1.388
12403WAT     H237452   7.722   9.342   1.358
12404WAT      O37453   2.690   8.978   5.219
12404WAT     H137454   2.743   8.909   5.169
12404WAT     H237455   2.665   9.052   5.156
12405WAT      O37456   2.882   3.073   8.719
12405WAT     H137457   2.821   3.004   8.759
12405WAT     H237458   2.828   3.150   8.687
12406WAT      O37459   7.533   7.807   4.378
12406WAT     H137460   7.495   7.837   4.465
12406WAT     H237461   7.459   7.794   4.312
12407WAT      O37462   1.264   9.725   1.954
12407WAT     H137463   1.356   9.707   1.918
12407WAT     H237464   1.196   9.696   1.886
12408WAT      O37465   2.618   3.243   4.259
12408WAT     H137466   2.564   3.279   4.182
12408WAT     H237467   2.630   3.144   4.247
12409WAT      O37468   8.438   0.570   5.361
12409WAT     H137469   8.445   0.523   5.273
12409WAT     H237470   8.508   0.534   5.424
12410WAT      O37471   6.832   2.157   8.238
12410WAT     H137472   6.896   2.149   8.162
12410WAT     H237473   6.738   2.153   8.204
12411WAT      O37474   9.348   7.542   6.058
12411WAT     H137475   9.333   7.486   6.140
12411WAT     H237476   9.404   7.621   6.081
12412WAT      O37477   8.026   2.756   9.393
12412WAT     H137478   8.105   2.742   9.452
12412WAT     H237479   7.981   2.842   9.417
12413WAT      O37480   6.383   8.104   5.317
12413WAT     H137481   6.386   8.084   5.414
12413WAT     H237482   6.403   8.021   5.265
12414WAT      O37483   0.817   5.359   9.744
12414WAT     H137484   0.907   5.400   9.754
12414WAT     H237485   0.826   5.261   9.723
12415WAT      O37486   1.215   5.101   1.211
12415WAT     H137487   1.230   5.156   1.128
12415WAT     H237488   1.245   5.007   1.194
12416WAT      O37489   1.998   8.168   1.265
12416WAT     H137490   1.908   8.125   1.272
12416WAT     H237491   2.068   8.097   1.264
12417WAT      O37492   3.141   8.777   4.271
12417WAT     H137493   3.234   8.793   4.240
12417WAT     H237494   3.085   8.858   4.250
12418WAT      O37495   9.589   6.415   6.137
12418WAT     H137496   9.591   6.425   6.237
12418WAT     H237497   9.521   6.477   6.099
12419WAT      O37498   0.168   0.278   9.652
12419WAT     H137499   0.244   0.342   9.663
12419WAT     H237500   0.104   0.312   9.584
12420WAT      O37501   4.928   2.155   6.722
12420WAT     H137502   4.959   2.059   6.721
12420WAT     H237503   4.950   2.197   6.634
12421WAT      O37504   8.738   5.977   8.127
12421WAT     H137505   8.760   5.993   8.223
12421WAT     H237506   8.805   6.025   8.069
12422WAT      O37507   5.667   7.543   4.463
12422WAT     H137508   5.569   7.543   4.443
12422WAT     H237509   5.715   7.596   4.393
12423WAT      O37510   1.850   3.223   4.068
12423WAT     H137511   1.830   3.310   4.111
12423WAT     H237512   1.889   3.239   3.977
12424WAT      O37513   6.251   8.399   7.830
12424WAT     H137514   6.328   8.335   7.826
12424WAT     H237515   6.171   8.356   7.789
12425WAT      O37516   4.758   0.471   4.321
12425WAT     H137517   4.742   0.400   4.389
12425WAT     H237518   4.671   0.511   4.293
12426WAT      O37519   3.979   1.218   4.183
12426WAT     H137520   3.963   1.242   4.087
12426WAT     H237521   3.939   1.288   4.241
12427WAT      O37522   8.938   1.244   0.272
12427WAT     H137523   8.947   1.181   0.195
12427WAT     H237524   9.024   1.294   0.285
12428WAT      O37525   2.247   9.064   3.113
12428WAT     H137526   2.242   9.126   3.191
12428WAT     H237527   2.272   9.115   3.031
12429WAT      O37528   7.124   4.247   9.397
12429WAT     H137529   7.210   4.208   9.364
12429WAT     H237530   7.108   4.219   9.492
12430WAT      O37531   3.384   3.130   9.263
12430WAT     H137532   3.411   3.046   9.309
12430WAT     H237533   3.315   3.178   9.318
12431WAT      O37534   8.878   2.611   1.022
12431WAT     H137535   8.950   2.678   1.039
12431WAT     H237536   8.793   2.642   1.064
12432WAT      O37537   7.570   5.213   6.907
12432WAT     H137538   7.522   5.136   6.949
12432WAT     H237539   7.611   5.183   6.821
12433WAT      O37540   7.325   9.450   8.835
12433WAT     H137541   7.414   9.421   8.870
12433WAT     H237542   7.309   9.407   8.746
12434WAT      O37543   8.529   8.851   6.490
12434WAT     H137544   8.450   8.911   6.502
12434WAT     H237545   8.512   8.788   6.414
12435WAT      O37546   0.323   5.691   2.546
12435WAT     H137547   0.294   5.716   2.639
12435WAT     H237548   0.407   5.637   2.551
12436WAT      O37549   9.589   3.725   9.293
12436WAT     H137550   9.586   3.701   9.390
12436WAT     H237551   9.683   3.748   9.268
12437WAT      O37552   6.952   8.270   2.967
12437WAT     H137553   6.852   8.279   2.976
12437WAT     H237554   6.982   8.316   2.883
12438WAT      O37555   2.626   3.732   4.734
12438WAT     H137556   2.588   3.639   4.744
12438WAT     H237557   2.720   3.733   4.766
12439WAT      O37558   4.291   4.647   8.956
12439WAT     H137559   4.307   4.743   8.978
12439WAT     H237560   4.357   4.617   8.888
12440WAT      O37561   4.075   7.816   5.183
12440WAT     H137562   4.094   7.810   5.085
12440WAT     H237563   4.035   7.730   5.215
12441WAT      O37564   6.837   3.764   4.939
12441WAT     H137565   6.902   3.825   4.984
12441WAT     H237566   6.866   3.670   4.951
12442WAT      O37567   0.658   6.437   4.636
12442WAT     H137568   0.612   6.423   4.548
12442WAT     H237569   0.691   6.531   4.642
12443WAT      O37570   4.246   1.066   7.493
12443WAT     H137571   4.321   1.056   7.558
12443WAT     H237572   4.260   1.149   7.439
12444WAT      O37573   2.843   5.226   1.940
12444WAT     H137574   2.846   5.279   1.855
12444WAT     H237575   2.750   5.194   1.957
12445WAT      O37576   3.801   5.314   4.457
12445WAT     H137577   3.707   5.284   4.473
12445WAT     H237578   3.803   5.413   4.449
12446WAT      O37579   0.618   0.114   8.255
12446WAT     H137580   0.603   0.178   8.179
12446WAT     H237581   0.553   0.134   8.328
12447WAT      O37582   3.852   5.298   8.794
12447WAT     H137583   3.861   5.235   8.717
12447WAT     H237584   3.855   5.392   8.761
12448WAT      O37585   2.505   6.180   3.948
12448WAT     H137586   2.459   6.114   3.889
12448WAT     H237587   2.521   6.140   4.038
12449WAT      O37588   8.536   3.153   7.100
12449WAT     H137589   8.522   3.169   7.003
12449WAT     H237590   8.577   3.063   7.114
12450WAT      O37591   1.459   6.463   9.227
12450WAT     H137592   1.512   6.380   9.241
12450WAT     H237593   1.498   6.537   9.284
12451WAT      O37594   8.527   6.587   3.080
12451WAT     H137595   8.502   6.652   3.008
12451WAT     H237596   8.578   6.511   3.039
12452WAT      O37597   2.412   5.708   1.636
12452WAT     H137598   2.410   5.681   1.540
12452WAT     H237599   2.416   5.626   1.694
12453WAT      O37600   5.161   2.886   5.155
12453WAT     H137601   5.072   2.931   5.150
12453WAT     H237602   5.182   2.843   5.067
12454WAT      O37603   0.073   3.266   7.878
12454WAT     H137604   0.089   3.351   7.828
12454WAT     H237605  -0.022   3.238   7.866
12455WAT      O37606   0.457   9.497   2.643
12455WAT     H137607   0.454   9.596   2.629
12455WAT     H237608   0.396   9.452   2.578
12456WAT      O37609   4.647   4.399   5.970
12456WAT     H137610   4.690   4.477   6.015
12456WAT     H237611   4.583   4.355   6.033
12457WAT      O37612   2.517   3.308   8.502
12457WAT     H137613   2.541   3.279   8.409
12457WAT     H237614   2.456   3.242   8.543
12458WAT      O37615   7.596   2.085   3.486
12458WAT     H137616   7.689   2.119   3.477
12458WAT     H237617   7.532   2.162   3.487
12459WAT      O37618   7.950   7.633   1.834
12459WAT     H137619   8.026   7.608   1.774
12459WAT     H237620   7.909   7.718   1.802
12460WAT      O37621   0.072   2.631   3.654
12460WAT     H137622   0.017   2.573   3.715
12460WAT     H237623   0.165   2.594   3.647
12461WAT      O37624   5.045   9.033   0.769
12461WAT     H137625   4.984   9.023   0.690
12461WAT     H237626   5.057   9.130   0.790
12462WAT      O37627   0.795   2.240   5.378
12462WAT     H137628   0.702   2.203   5.388
12462WAT     H237629   0.858   2.187   5.434
12463WAT      O37630   9.621   0.825   2.041
12463WAT     H137631   9.596   0.900   2.102
12463WAT     H237632   9.717   0.802   2.054
12464WAT      O37633   5.035   0.207   2.818
12464WAT     H137634   5.120   0.207   2.766
12464WAT     H237635   5.037   0.134   2.886
12465WAT      O37636   8.790   4.284   3.421
12465WAT     H137637   8.838   4.198   3.406
12465WAT     H237638   8.845   4.359   3.383
12466WAT      O37639   3.704   2.057   9.375
12466WAT     H137640   3.638   2.129   9.353
12466WAT     H237641   3.760   2.037   9.294
12467WAT      O37642   9.359   3.446   5.744
12467WAT     H137643   9.455   3.471   5.753
12467WAT     H237644   9.334   3.380   5.815
12468WAT      O37645   8.988   7.038   6.917
12468WAT     H137646   8.957   7.128   6.885
12468WAT     H237647   8.945   7.018   7.005
12469WAT      O37648   5.516   9.386   1.517
12469WAT     H137649   5.477   9.313   1.574
12469WAT     H237650   5.476   9.474   1.544
12470WAT      O37651   0.349   3.791   5.373
12470WAT     H137652   0.310   3.712   5.325
12470WAT     H237653   0.349   3.773   5.471
12471WAT      O37654   1.426   9.321   7.601
12471WAT     H137655   1.496   9.258   7.635
12471WAT     H237656   1.471   9.398   7.556
12472WAT      O37657   4.560   0.196   3.842
12472WAT     H137658   4.526   0.142   3.919
12472WAT     H237659   4.502   0.182   3.762
12473WAT      O37660   1.806   0.250   8.837
12473WAT     H137661   1.850   0.322   8.784
12473WAT     H237662   1.876   0.187   8.872
12474WAT      O37663   8.944   4.165   1.797
12474WAT     H137664   8.972   4.161   1.701
12474WAT     H237665   8.845   4.157   1.804
12475WAT      O37666   5.281   7.378   1.909
12475WAT     H137667   5.310   7.338   1.822
12475WAT     H237668   5.342   7.453   1.934
12476WAT      O37669   9.069   3.132   5.988
12476WAT     H137670   9.020   3.177   5.913
12476WAT     H237671   9.062   3.033   5.977
12477WAT      O37672   3.341   1.435   8.731
12477WAT     H137673   3.284   1.398   8.804
12477WAT     H237674   3.341   1.535   8.736
12478WAT      O37675   5.708   8.506   2.553
12478WAT     H137676   5.759   8.425   2.581
12478WAT     H237677   5.759   8.588   2.579
12479WAT      O37678   0.874   6.832   1.154
12479WAT     H137679   0.847   6.744   1.115
12479WAT     H237680   0.807   6.902   1.129
12480WAT      O37681   5.395   8.556   5.337
12480WAT     H137682   5.445   8.539   5.252
12480WAT     H237683   5.371   8.652   5.343
12481WAT      O37684   5.130   6.143   2.269
12481WAT     H137685   5.090   6.191   2.346
12481WAT     H237686   5.076   6.160   2.187
12482WAT      O37687   2.347   8.882   0.111
12482WAT     H137688   2.371   8.945   0.038
12482WAT     H237689   2.316   8.933   0.191
12483WAT      O37690   8.367   7.279   0.009
12483WAT     H137691   8.303   7.325  -0.053
12483WAT     H237692   8.439   7.235  -0.044
12484WAT      O37693   4.876   4.861   5.660
12484WAT     H137694   4.859   4.854   5.561
12484WAT     H237695   4.793   4.833   5.709
12485WAT      O37696   8.437   3.552   3.763
12485WAT     H137697   8.504   3.577   3.833
12485WAT     H237698   8.412   3.633   3.710
12486WAT      O37699   7.415   5.688   6.530
12486WAT     H137700   7.357   5.609   6.548
12486WAT     H237701   7.427   5.700   6.431
12487WAT      O37702   4.764   5.526   2.099
12487WAT     H137703   4.855   5.489   2.117
12487WAT     H237704   4.727   5.485   2.016
12488WAT      O37705   0.350   3.947   7.096
12488WAT     H137706   0.397   4.027   7.058
12488WAT     H237707   0.415   3.872   7.106
12489WAT      O37708   5.010   3.149   5.159
12489WAT     H137709   4.981   3.218   5.225
12489WAT     H237710   5.110   3.151   5.151
12490WAT      O37711   1.317   8.403   8.919
12490WAT     H137712   1.271   8.315   8.911
12490WAT     H237713   1.376   8.404   9.000
12491WAT      O37714   7.819   0.425   2.914
12491WAT     H137715   7.911   0.385   2.913
12491WAT     H237716   7.794   0.450   3.007
12492WAT      O37717   9.657   1.803   8.850
12492WAT     H137718   9.654   1.887   8.795
12492WAT     H237719   9.609   1.818   8.936
12493WAT      O37720   6.572   8.094   3.145
12493WAT     H137721   6.553   8.011   3.198
12493WAT     H237722   6.486   8.141   3.126
12494WAT      O37723   0.649   6.720   5.954
12494WAT     H137724   0.587   6.798   5.965
12494WAT     H237725   0.694   6.726   5.865
12495WAT      O37726   7.451   8.767   0.910
12495WAT     H137727   7.544   8.787   0.939
12495WAT     H237728   7.450   8.684   0.855
12496WAT      O37729   1.041   2.886   7.247
12496WAT     H137730   1.067   2.847   7.335
12496WAT     H237731   0.972   2.828   7.203
12497WAT      O37732   5.012   5.149   3.611
12497WAT     H137733   5.037   5.228   3.554
12497WAT     H237734   4.914   5.149   3.627
12498WAT      O37735   2.978   9.296   4.211
12498WAT     H137736   3.005   9.203   4.234
12498WAT     H237737   2.902   9.293   4.146
12499WAT      O37738   0.244   7.407   3.303
12499WAT     H137739   0.290   7.334   3.252
12499WAT     H237740   0.181   7.455   3.243
12500WAT      O37741   6.515   6.588   5.084
12500WAT     H137742   6.539   6.607   5.179
12500WAT     H237743   6.540   6.494   5.061
12501WAT      O37744   3.616   6.686   0.562
12501WAT     H137745   3.683   6.756   0.540
12501WAT     H237746   3.653   6.624   0.630
12502WAT      O37747   5.935   5.626   9.657
12502WAT     H137748   5.992   5.661   9.583
12502WAT     H237749   5.992   5.583   9.726
12503WAT      O37750   8.679   9.454   1.760
12503WAT     H137751   8.679   9.380   1.693
12503WAT     H237752   8.704   9.417   1.850
12504WAT      O37753   5.547   1.963   7.476
12504WAT     H137754   5.465   1.994   7.524
12504WAT     H237755   5.619   1.942   7.542
12505WAT      O37756   6.506   6.836   6.723
12505WAT     H137757   6.505   6.746   6.678
12505WAT     H237758   6.587   6.887   6.692
12506WAT      O37759   7.663   7.580   1.285
12506WAT     H137760   7.663   7.535   1.374
12506WAT     H237761   7.756   7.602   1.258
12507WAT      O37762   9.395   3.015   1.720
12507WAT     H137763   9.318   2.991   1.662
12507WAT     H237764   9.448   3.088   1.676
12508WAT      O37765   9.115   9.784   9.310
12508WAT     H137766   9.101   9.815   9.404
12508WAT     H237767   9.197   9.828   9.272
12509WAT      O37768   3.544   1.014   1.879
12509WAT     H137769   3.481   0.937   1.889
12509WAT     H237770   3.625   0.984   1.828
12510WAT      O37771   4.718   0.477   6.932
12510WAT     H137772   4.778   0.469   7.011
12510WAT     H237773   4.653   0.401   6.931
12511WAT      O37774   9.197   4.366   7.063
12511WAT     H137775   9.205   4.439   6.994
12511WAT     H237776   9.177   4.406   7.152
12512WAT      O37777   0.854   3.420   7.567
12512WAT     H137778   0.870   3.498   7.627
12512WAT     H237779   0.917   3.426   7.489
12513WAT      O37780   4.191   7.898   0.267
12513WAT     H137781   4.256   7.908   0.342
12513WAT     H237782   4.234   7.844   0.194
12514WAT      O37783   7.796   1.933   9.566
12514WAT     H137784   7.879   1.962   9.613
12514WAT     H237785   7.776   1.997   9.492
12515WAT      O37786   9.236   1.464   4.571
12515WAT     H137787   9.178   1.405   4.515
12515WAT     H237788   9.275   1.411   4.646
12516WAT      O37789   0.739   7.416   5.077
12516WAT     H137790   0.650   7.392   5.116
12516WAT     H237791   0.810   7.355   5.113
12517WAT      O37792   1.035   7.422   4.515
12517WAT     H137793   1.034   7.323   4.510
12517WAT     H237794   0.971   7.460   4.448
12518WAT      O37795   8.117   7.912   3.068
12518WAT     H137796   8.029   7.878   3.100
12518WAT     H237797   8.140   7.997   3.116
12519WAT      O37798   8.360   8.111   4.021
12519WAT     H137799   8.428   8.040   4.000
12519WAT     H237800   8.379   8.151   4.110
12520WAT      O37801   9.027   0.814   8.754
12520WAT     H137802   8.944   0.868   8.741
12520WAT     H237803   9.056   0.820   8.850
12521WAT      O37804   5.528   2.547   8.458
12521WAT     H137805   5.473   2.614   8.508
12521WAT     H237806   5.605   2.593   8.415
12522WAT      O37807   9.398   0.488   2.900
12522WAT     H137808   9.322   0.551   2.887
12522WAT     H237809   9.378   0.401   2.854
12523WAT      O37810   7.504   1.251   9.323
12523WAT     H137811   7.602   1.271   9.321
12523WAT     H237812   7.471   1.236   9.230
12524WAT      O37813   6.179   2.356   5.358
12524WAT     H137814   6.146   2.322   5.270
12524WAT     H237815   6.194   2.278   5.419
12525WAT      O37816   1.945   0.182   1.567
12525WAT     H137817   1.902   0.159   1.654
12525WAT     H237818   1.874   0.203   1.499
12526WAT      O37819   6.680   7.978   0.549
12526WAT     H137820   6.683   7.991   0.449
12526WAT     H237821   6.742   8.043   0.592
12527WAT      O37822   1.852   5.054   5.101
12527WAT     H137823   1.810   5.054   5.192
12527WAT     H237824   1.849   4.961   5.064
12528WAT      O37825   7.535   5.378   3.648
12528WAT     H137826   7.627   5.385   3.609
12528WAT     H237827   7.467   5.389   3.576
12529WAT      O37828   1.780   7.795   4.227
12529WAT     H137829   1.810   7.890   4.237
12529WAT     H237830   1.715   7.788   4.152
12530WAT      O37831   6.233   8.024   4.869
12530WAT     H137832   6.269   8.083   4.942
12530WAT     H237833   6.174   7.954   4.909
12531WAT      O37834   6.597   7.009   3.838
12531WAT     H137835   6.638   6.961   3.761
12531WAT     H237836   6.627   7.104   3.839
12532WAT      O37837   7.376   1.101   1.516
12532WAT     H137838   7.333   1.110   1.605
12532WAT     H237839   7.421   1.187   1.492
12533WAT      O37840   1.562   0.353   5.083
12533WAT     H137841   1.594   0.410   5.007
12533WAT     H237842   1.625   0.363   5.160
12534WAT      O37843   4.270   2.547   5.258
12534WAT     H137844   4.355   2.554   5.311
12534WAT     H237845   4.192   2.556   5.319
12535WAT      O37846   9.836   6.601   7.923
12535WAT     H137847   9.897   6.536   7.968
12535WAT     H237848   9.851   6.597   7.824
12536WAT      O37849   3.139   3.406   1.658
12536WAT     H137850   3.089   3.491   1.648
12536WAT     H237851   3.215   3.419   1.722
12537WAT      O37852   4.877   5.418   6.713
12537WAT     H137853   4.866   5.395   6.617
12537WAT     H237854   4.963   5.381   6.747
12538WAT      O37855   6.580   7.449   6.521
12538WAT     H137856   6.622   7.540   6.528
12538WAT     H237857   6.649   7.379   6.538
12539WAT      O37858   9.723   6.353   5.287
12539WAT     H137859   9.672   6.432   5.254
12539WAT     H237860   9.711   6.276   5.224
12540WAT      O37861   9.839   9.750   5.900
12540WAT     H137862   9.847   9.698   5.815
12540WAT     H237863   9.828   9.847   5.878
12541WAT      O37864   1.909   2.860   5.500
12541WAT     H137865   1.829   2.815   5.461
12541WAT     H237866   1.958   2.907   5.427
12542WAT      O37867   9.451   7.566   0.851
12542WAT     H137868   9.422   7.659   0.826
12542WAT     H237869   9.489   7.520   0.771
12543WAT      O37870   6.003   9.364   0.146
12543WAT     H137871   5.961   9.354   0.236
12543WAT     H237872   5.953   9.433   0.094
12544WAT      O37873   3.358   2.537   3.787
12544WAT     H137874   3.323   2.474   3.717
12544WAT     H237875   3.334   2.631   3.761
12545WAT      O37876   3.709   3.567   4.162
12545WAT     H137877   3.779   3.636   4.180
12545WAT     H237878   3.695   3.560   4.063
12546WAT      O37879   4.270   9.517   2.445
12546WAT     H137880   4.244   9.421   2.455
12546WAT     H237881   4.192   9.575   2.469
12547WAT      O37882   4.407   6.332   1.557
12547WAT     H137883   4.426   6.258   1.621
12547WAT     H237884   4.432   6.304   1.464
12548WAT      O37885   2.675   1.967   3.854
12548WAT     H137886   2.588   2.000   3.889
12548WAT     H237887   2.707   1.890   3.909
12549WAT      O37888   2.187   2.501   0.973
12549WAT     H137889   2.103   2.447   0.975
12549WAT     H237890   2.164   2.596   0.952
12550WAT      O37891   7.251   7.873   3.329
12550WAT     H137892   7.243   7.972   3.340
12550WAT     H237893   7.163   7.836   3.299
12551WAT      O37894   8.692   4.272   2.870
12551WAT     H137895   8.696   4.351   2.809
12551WAT     H237896   8.606   4.275   2.922
12552WAT      O37897   4.163   7.611   1.668
12552WAT     H137898   4.211   7.643   1.750
12552WAT     H237899   4.064   7.623   1.681
12553WAT      O37900   3.263   2.774   0.255
12553WAT     H137901   3.356   2.751   0.282
12553WAT     H237902   3.198   2.727   0.316
12554WAT      O37903   8.928   3.201   2.940
12554WAT     H137904   8.925   3.184   3.038
12554WAT     H237905   9.017   3.239   2.914
12555WAT      O37906   0.044   5.008   6.812
12555WAT     H137907   0.070   4.958   6.895
12555WAT     H237908   0.070   4.954   6.732
12556WAT      O37909   6.779   2.672   8.986
12556WAT     H137910   6.745   2.687   8.893
12556WAT     H237911   6.840   2.593   8.986
12557WAT      O37912   8.671   4.125   1.716
12557WAT     H137913   8.715   4.194   1.659
12557WAT     H237914   8.643   4.047   1.660
12558WAT      O37915   6.904   3.536   5.657
12558WAT     H137916   6.816   3.503   5.623
12558WAT     H237917   6.963   3.560   5.580
12559WAT      O37918   3.108   6.541   4.239
12559WAT     H137919   3.109   6.487   4.323
12559WAT     H237920   3.013   6.562   4.215
12560WAT      O37921   8.089   1.118   2.393
12560WAT     H137922   8.053   1.086   2.481
12560WAT     H237923   8.115   1.040   2.337
12561WAT      O37924   1.493   7.626   8.900
12561WAT     H137925   1.412   7.572   8.879
12561WAT     H237926   1.575   7.573   8.877
12562WAT      O37927   0.394   6.672   2.064
12562WAT     H137928   0.395   6.595   2.000
12562WAT     H237929   0.316   6.661   2.126
12563WAT      O37930   4.121   7.782   0.981
12563WAT     H137931   4.128   7.857   1.048
12563WAT     H237932   4.025   7.761   0.965
12564WAT      O37933   7.585   4.747   0.112
12564WAT     H137934   7.622   4.656   0.129
12564WAT     H237935   7.641   4.794   0.043
12565WAT      O37936   6.145   0.910   3.060
12565WAT     H137937   6.110   1.003   3.044
12565WAT     H237938   6.137   0.889   3.158
12566WAT      O37939   7.106   1.769   5.043
12566WAT     H137940   7.143   1.706   4.975
12566WAT     H237941   7.034   1.825   5.001
12567WAT      O37942   9.445   2.634   8.181
12567WAT     H137943   9.383   2.602   8.110
12567WAT     H237944   9.526   2.574   8.183
12568WAT      O37945   9.182   5.863   0.632
12568WAT     H137946   9.126   5.850   0.550
12568WAT     H237947   9.254   5.794   0.634
12569WAT      O37948   4.018   7.417   8.671
12569WAT     H137949   3.960   7.410   8.753
12569WAT     H237950   4.036   7.513   8.650
12570WAT      O37951   8.780   5.711   2.672
12570WAT     H137952   8.872   5.745   2.652
12570WAT     H237953   8.787   5.627   2.726
12571WAT      O37954   8.690   6.172   3.809
12571WAT     H137955   8.768   6.217   3.764
12571WAT     H237956   8.680   6.207   3.902
12572WAT      O37957   3.219   9.580   3.663
12572WAT     H137958   3.230   9.483   3.639
12572WAT     H237959   3.222   9.635   3.580
12573WAT      O37960   4.356   9.302   7.873
12573WAT     H137961   4.448   9.276   7.843
12573WAT     H237962   4.345   9.401   7.865
12574WAT      O37963   5.789   7.902   6.994
12574WAT     H137964   5.815   7.821   7.046
12574WAT     H237965   5.845   7.980   7.023
12575WAT      O37966   9.015   5.918   6.155
12575WAT     H137967   9.043   5.825   6.176
12575WAT     H237968   9.094   5.979   6.157
12576WAT      O37969   1.773   9.473   6.908
12576WAT     H137970   1.744   9.481   6.813
12576WAT     H237971   1.797   9.378   6.928
12577WAT      O37972   5.133   2.454   8.787
12577WAT     H137973   5.052   2.399   8.812
12577WAT     H237974   5.215   2.398   8.796
12578WAT      O37975   5.014   0.815   1.537
12578WAT     H137976   5.023   0.718   1.562
12578WAT     H237977   4.951   0.860   1.599
12579WAT      O37978   4.232   5.181   1.923
12579WAT     H137979   4.254   5.084   1.922
12579WAT     H237980   4.265   5.223   1.839
12580WAT      O37981   1.992   2.506   6.883
12580WAT     H137982   2.015   2.601   6.862
12580WAT     H237983   2.057   2.444   6.839
12581WAT      O37984   9.441   9.431   0.742
12581WAT     H137985   9.485   9.391   0.661
12581WAT     H237986   9.469   9.380   0.823
12582WAT      O37987   5.972   6.514   8.868
12582WAT     H137988   5.995   6.497   8.964
12582WAT     H237989   5.881   6.554   8.862
12583WAT      O37990   0.294   4.163   5.808
12583WAT     H137991   0.301   4.140   5.711
12583WAT     H237992   0.384   4.153   5.851
12584WAT      O37993   2.194   3.152   0.667
12584WAT     H137994   2.232   3.156   0.574
12584WAT     H237995   2.268   3.137   0.732
12585WAT      O37996   9.352   9.742   7.981
12585WAT     H137997   9.292   9.688   7.922
12585WAT     H237998   9.410   9.800   7.925
12586WAT      O37999   3.090   5.789   1.824
12586WAT     H138000   3.024   5.824   1.890
12586WAT     H238001   3.137   5.710   1.862
12587WAT      O38002   7.140   8.317   8.181
12587WAT     H138003   7.197   8.251   8.131
12587WAT     H238004   7.126   8.286   8.275
12588WAT      O38005   3.059   1.464   6.586
12588WAT     H138006   3.115   1.443   6.666
12588WAT     H238007   2.987   1.529   6.612
12589WAT      O38008   1.387   3.966   9.440
12589WAT     H138009   1.390   3.892   9.508
12589WAT     H238010   1.422   3.933   9.353
12590WAT      O38011   9.234   4.383   5.504
12590WAT     H138012   9.305   4.313   5.492
12590WAT     H238013   9.144   4.339   5.506
12591WAT      O38014   1.566   0.357   1.209
12591WAT     H138015   1.507   0.435   1.229
12591WAT     H238016   1.526   0.303   1.135
12592WAT      O38017   4.827   0.758   6.353
12592WAT     H138018   4.772   0.677   6.331
12592WAT     H238019   4.908   0.730   6.405
12593WAT      O38020   0.997   2.934   2.691
12593WAT     H138021   0.988   3.026   2.655
12593WAT     H238022   1.020   2.871   2.617
12594WAT      O38023   7.127   9.443   7.284
12594WAT     H138024   7.206   9.473   7.338
12594WAT     H238025   7.156   9.422   7.191
12595WAT      O38026   1.063   6.747   2.427
12595WAT     H138027   1.024   6.734   2.518
12595WAT     H238028   0.990   6.742   2.359
12596WAT      O38029   3.767   1.344   5.926
12596WAT     H138030   3.792   1.439   5.939
12596WAT     H238031   3.769   1.321   5.829
12597WAT      O38032   3.888   7.891   3.988
12597WAT     H138033   3.963   7.943   3.948
12597WAT     H238034   3.905   7.793   3.977
12598WAT      O38035   0.462   2.119   0.601
12598WAT     H138036   0.365   2.106   0.622
12598WAT     H238037   0.496   2.199   0.651
12599WAT      O38038   6.558   9.659   7.719
12599WAT     H138039   6.493   9.586   7.736
12599WAT     H238040   6.515   9.731   7.665
12600WAT      O38041   6.386   8.019   3.580
12600WAT     H138042   6.391   8.097   3.517
12600WAT     H238043   6.323   7.951   3.544
12601WAT      O38044   9.488   3.375   3.016
12601WAT     H138045   9.445   3.314   2.949
12601WAT     H238046   9.417   3.418   3.072
12602WAT      O38047   4.716   4.254   9.488
12602WAT     H138048   4.759   4.278   9.575
12602WAT     H238049   4.755   4.169   9.453
12603WAT      O38050   8.285   8.947   6.533
12603WAT     H138051   8.210   8.948   6.599
12603WAT     H238052   8.250   8.974   6.443
12604WAT      O38053   7.266   9.732   8.239
12604WAT     H138054   7.246   9.783   8.155
12604WAT     H238055   7.364   9.737   8.258
12605WAT      O38056   9.556   1.665   7.695
12605WAT     H138057   9.522   1.659   7.789
12605WAT     H238058   9.548   1.575   7.651
12606WAT      O38059   8.836   2.499   7.522
12606WAT     H138060   8.763   2.515   7.455
12606WAT     H238061   8.889   2.584   7.534
12607WAT      O38062   9.379   0.905   2.575
12607WAT     H138063   9.325   0.845   2.515
12607WAT     H238064   9.419   0.851   2.649
12608WAT      O38065   8.110   6.562   1.093
12608WAT     H138066   8.206   6.586   1.097
12608WAT     H238067   8.090   6.521   1.004
12609WAT      O38068   2.077   4.989   6.681
12609WAT     H138069   2.048   5.043   6.602
12609WAT     H238070   2.176   4.992   6.689
12610WAT      O38071   5.942   4.099   0.732
12610WAT     H138072   5.875   4.168   0.760
12610WAT     H238073   5.900   4.039   0.663
12611WAT      O38074   8.896   6.227   2.639
12611WAT     H138075   8.862   6.278   2.719
12611WAT     H238076   8.838   6.147   2.624
12612WAT      O38077   8.061   5.587   0.075
12612WAT     H138078   8.114   5.653   0.021
12612WAT     H238079   7.985   5.633   0.120
12613WAT      O38080   1.599   0.135   5.884
12613WAT     H138081   1.607   0.228   5.850
12613WAT     H238082   1.520   0.128   5.944
12614WAT      O38083   4.386   5.476   4.370
12614WAT     H138084   4.475   5.440   4.344
12614WAT     H238085   4.368   5.562   4.321
12615WAT      O38086   0.808   4.529   5.893
12615WAT     H138087   0.784   4.442   5.936
12615WAT     H238088   0.902   4.553   5.916
12616WAT      O38089   3.800   4.463   8.773
12616WAT     H138090   3.855   4.546   8.773
12616WAT     H238091   3.800   4.423   8.865
12617WAT      O38092   5.790   1.664   2.991
12617WAT     H138093   5.820   1.757   2.969
12617WAT     H238094   5.723   1.634   2.923
12618WAT      O38095   4.613   6.409   1.780
12618WAT     H138096   4.563   6.482   1.733
12618WAT     H238097   4.563   6.323   1.771
12619WAT      O38098   2.468   6.980   9.399
12619WAT     H138099   2.547   7.029   9.362
12619WAT     H238100   2.500   6.909   9.463
12620WAT      O38101   0.066   9.464   1.542
12620WAT     H138102   0.036   9.388   1.600
12620WAT     H238103   0.165   9.459   1.529
12621WAT      O38104   7.537   6.710   9.880
12621WAT     H138105   7.535   6.709   9.780
12621WAT     H238106   7.622   6.668   9.913
12622WAT      O38107   3.955   6.899   7.610
12622WAT     H138108   3.940   6.924   7.515
12622WAT     H238109   4.052   6.909   7.633
12623WAT      O38110   0.109   3.258   2.249
12623WAT     H138111   0.048   3.275   2.172
12623WAT     H238112   0.056   3.246   2.333
12624WAT      O38113   3.111   4.521   3.948
12624WAT     H138114   3.065   4.433   3.933
12624WAT     H238115   3.131   4.564   3.860
12625WAT      O38116   6.227   6.084   3.539
12625WAT     H138117   6.279   6.005   3.571
12625WAT     H238118   6.161   6.111   3.609
12626WAT      O38119   6.271   7.953   4.294
12626WAT     H138120   6.346   7.952   4.360
12626WAT     H238121   6.255   8.047   4.264
12627WAT      O38122   0.649   4.244   3.874
12627WAT     H138123   0.566   4.284   3.836
12627WAT     H238124   0.639   4.145   3.881
12628WAT      O38125   0.662   4.195   6.750
12628WAT     H138126   0.651   4.255   6.671
12628WAT     H238127   0.696   4.106   6.720
12629WAT      O38128   5.121   5.454   6.225
12629WAT     H138129   5.219   5.465   6.205
12629WAT     H238130   5.091   5.363   6.195
12630WAT      O38131   0.220   4.086   1.811
12630WAT     H138132   0.245   4.031   1.732
12630WAT     H238133   0.300   4.101   1.869
12631WAT      O38134   5.289   4.443   0.769
12631WAT     H138135   5.236   4.372   0.724
12631WAT     H238136   5.297   4.523   0.709
12632WAT      O38137   2.415   1.524   7.355
12632WAT     H138138   2.393   1.619   7.376
12632WAT     H238139   2.514   1.511   7.356
12633WAT      O38140   9.030   9.784   1.398
12633WAT     H138141   9.105   9.757   1.337
12633WAT     H238142   8.952   9.723   1.383
12634WAT      O38143   8.201   8.662   1.688
12634WAT     H138144   8.253   8.724   1.748
12634WAT     H238145   8.242   8.662   1.597
12635WAT      O38146   6.269   7.920   8.492
12635WAT     H138147   6.243   7.917   8.396
12635WAT     H238148   6.356   7.871   8.505
12636WAT      O38149   0.629   6.569   1.685
12636WAT     H138150   0.715   6.618   1.698
12636WAT     H238151   0.555   6.620   1.728
12637WAT      O38152   0.984   2.949   0.041
12637WAT     H138153   1.007   2.896   0.123
12637WAT     H238154   1.011   2.897  -0.040
12638WAT      O38155   2.126   5.642   8.635
12638WAT     H138156   2.134   5.728   8.585
12638WAT     H238157   2.201   5.581   8.608
12639WAT      O38158   3.379   4.241   7.685
12639WAT     H138159   3.345   4.329   7.716
12639WAT     H238160   3.417   4.250   7.593
12640WAT      O38161   4.518   0.467   1.926
12640WAT     H138162   4.438   0.491   1.982
12640WAT     H238163   4.587   0.539   1.934
12641WAT      O38164   0.695   8.739   7.336
12641WAT     H138165   0.772   8.706   7.391
12641WAT     H238166   0.612   8.689   7.360
12642WAT      O38167   2.009   1.059   9.353
12642WAT     H138168   2.106   1.056   9.375
12642WAT     H238169   1.996   1.102   9.264
12643WAT      O38170   8.323   9.486   9.348
12643WAT     H138171   8.275   9.517   9.266
12643WAT     H238172   8.372   9.564   9.389
12644WAT      O38173   1.543   3.600   4.317
12644WAT     H138174   1.450   3.562   4.320
12644WAT     H238175   1.555   3.667   4.390
12645WAT      O38176   0.460   5.367   9.106
12645WAT     H138177   0.484   5.412   9.192
12645WAT     H238178   0.462   5.433   9.031
12646WAT      O38179   3.829   5.759   0.649
12646WAT     H138180   3.766   5.684   0.666
12646WAT     H238181   3.817   5.791   0.555
12647WAT      O38182   1.900   8.218   8.620
12647WAT     H138183   1.993   8.211   8.658
12647WAT     H238184   1.843   8.270   8.683
12648WAT      O38185   2.280   2.996   1.651
12648WAT     H138186   2.232   2.913   1.621
12648WAT     H238187   2.221   3.049   1.712
12649WAT      O38188   8.535   9.384   4.586
12649WAT     H138189   8.535   9.402   4.488
12649WAT     H238190   8.624   9.348   4.614
12650WAT      O38191   9.534   6.889   3.248
12650WAT     H138192   9.473   6.922   3.177
12650WAT     H238193   9.597   6.962   3.275
12651WAT      O38194   5.637   3.491   4.885
12651WAT     H138195   5.736   3.492   4.873
12651WAT     H238196   5.612   3.543   4.966
12652WAT      O38197   1.710   5.787   1.965
12652WAT     H138198   1.741   5.826   2.052
12652WAT     H238199   1.783   5.730   1.926
12653WAT      O38200   3.129   3.721   9.804
12653WAT     H138201   3.141   3.749   9.900
12653WAT     H238202   3.141   3.801   9.745
12654WAT      O38203   3.350   9.189   8.399
12654WAT     H138204   3.324   9.273   8.350
12654WAT     H238205   3.342   9.111   8.337
12655WAT      O38206   5.184   0.470   8.864
12655WAT     H138207   5.275   0.436   8.888
12655WAT     H238208   5.161   0.548   8.923
12656WAT      O38209   2.702   6.360   0.252
12656WAT     H138210   2.796   6.331   0.236
12656WAT     H238211   2.653   6.288   0.303
12657WAT      O38212   5.992   2.585   6.261
12657WAT     H138213   6.048   2.607   6.181
12657WAT     H238214   6.000   2.659   6.328
12658WAT      O38215   5.853   1.171   4.502
12658WAT     H138216   5.896   1.095   4.453
12658WAT     H238217   5.762   1.145   4.531
12659WAT      O38218   7.214   5.670   8.391
12659WAT     H138219   7.189   5.574   8.402
12659WAT     H238220   7.139   5.728   8.420
12660WAT      O38221   1.011   4.083   4.295
12660WAT     H138222   0.953   4.152   4.252
12660WAT     H238223   1.106   4.114   4.294
12661WAT      O38224   4.193   8.121   6.811
12661WAT     H138225   4.212   8.026   6.836
12661WAT     H238226   4.201   8.179   6.892
12662WAT      O38227   5.861   3.667   0.572
12662WAT     H138228   5.912   3.695   0.653
12662WAT     H238229   5.855   3.567   0.570
12663WAT      O38230   1.527   3.202   1.423
12663WAT     H138231   1.559   3.296   1.438
12663WAT     H238232   1.474   3.199   1.337
12664WAT      O38233   2.847   9.026   0.944
12664WAT     H138234   2.790   9.099   0.981
12664WAT     H238235   2.819   9.006   0.850
12665WAT      O38236   0.070   8.389   8.682
12665WAT     H138237   0.079   8.324   8.757
12665WAT     H238238   0.135   8.464   8.694
12666WAT      O38239   1.945   4.544   6.170
12666WAT     H138240   2.004   4.607   6.220
12666WAT     H238241   1.947   4.454   6.215
12667WAT      O38242   2.687   2.944   3.977
12667WAT     H138243   2.744   2.869   3.945
12667WAT     H238244   2.592   2.913   3.986
12668WAT      O38245   5.334   6.565   4.701
12668WAT     H138246   5.267   6.576   4.774
12668WAT     H238247   5.292   6.516   4.625
12669WAT      O38248   6.633   7.731   1.678
12669WAT     H138249   6.534   7.717   1.670
12669WAT     H238250   6.676   7.713   1.590
12670WAT      O38251   8.813   0.927   0.199
12670WAT     H138252   8.841   0.838   0.235
12670WAT     H238253   8.894   0.980   0.175
12671WAT      O38254   1.321   5.420   1.981
12671WAT     H138255   1.225   5.434   2.004
12671WAT     H238256   1.371   5.507   1.988
12672WAT      O38257   3.736   3.602   7.359
12672WAT     H138258   3.646   3.602   7.315
12672WAT     H238259   3.754   3.512   7.397
12673WAT      O38260   2.312   1.612   2.833
12673WAT     H138261   2.248   1.554   2.883
12673WAT     H238262   2.295   1.605   2.735
12674WAT      O38263   7.722   4.640   4.907
12674WAT     H138264   7.716   4.578   4.829
12674WAT     H238265   7.660   4.609   4.979
12675WAT      O38266   7.141   7.311   1.379
12675WAT     H138267   7.227   7.272   1.346
12675WAT     H238268   7.076   7.318   1.303
12676WAT      O38269   5.937   8.847   5.294
12676WAT     H138270   5.847   8.867   5.256
12676WAT     H238271   5.952   8.904   5.375
12677WAT      O38272   4.848   9.151   5.338
12677WAT     H138273   4.793   9.072   5.310
12677WAT     H238274   4.788   9.231   5.348
12678WAT      O38275   7.871   3.437   1.186
12678WAT     H138276   7.920   3.373   1.127
12678WAT     H238277   7.934   3.477   1.252
12679WAT      O38278   8.210   4.214   2.874
12679WAT     H138279   8.113   4.215   2.850
12679WAT     H238280   8.253   4.131   2.837
12680WAT      O38281   9.558   1.991   3.983
12680WAT     H138282   9.516   1.913   3.937
12680WAT     H238283   9.656   1.991   3.964
12681WAT      O38284   5.420   3.420   8.537
12681WAT     H138285   5.353   3.347   8.524
12681WAT     H238286   5.422   3.478   8.455
12682WAT      O38287   6.375   0.598   5.519
12682WAT     H138288   6.379   0.526   5.588
12682WAT     H238289   6.427   0.677   5.550
12683WAT      O38290   5.772   0.962   9.438
12683WAT     H138291   5.781   0.914   9.525
12683WAT     H238292   5.758   1.060   9.456
12684WAT      O38293   2.723   0.264   1.108
12684WAT     H138294   2.722   0.348   1.162
12684WAT     H238295   2.757   0.189   1.164
12685WAT      O38296   3.153   3.923   9.643
12685WAT     H138297   3.114   3.892   9.555
12685WAT     H238298   3.248   3.949   9.629
12686WAT      O38299   8.742   2.794   7.026
12686WAT     H138300   8.759   2.816   6.930
12686WAT     H238301   8.827   2.763   7.069
12687WAT      O38302   2.072   2.078   4.910
12687WAT     H138303   2.135   2.050   4.982
12687WAT     H238304   2.106   2.162   4.868
12688WAT      O38305   4.873   9.722   3.132
12688WAT     H138306   4.908   9.794   3.192
12688WAT     H238307   4.867   9.756   3.038
12689WAT      O38308   9.647   1.737   2.907
12689WAT     H138309   9.639   1.638   2.896
12689WAT     H238310   9.744   1.763   2.906
12690WAT      O38311   4.660   0.349   7.817
12690WAT     H138312   4.617   0.432   7.781
12690WAT     H238313   4.628   0.270   7.765
12691WAT      O38314   9.217   6.025   1.824
12691WAT     H138315   9.218   6.112   1.874
12691WAT     H238316   9.201   6.042   1.727
12692WAT      O38317   1.076   4.261   9.194
12692WAT     H138318   1.084   4.267   9.095
12692WAT     H238319   1.010   4.329   9.226
12693WAT      O38320   0.219   1.266   7.397
12693WAT     H138321   0.251   1.340   7.456
12693WAT     H238322   0.235   1.178   7.442
12694WAT      O38323   5.248   0.908   1.644
12694WAT     H138324   5.175   0.869   1.588
12694WAT     H238325   5.273   0.998   1.609
12695WAT      O38326   6.689   7.121   4.156
12695WAT     H138327   6.602   7.095   4.116
12695WAT     H238328   6.724   7.046   4.212
12696WAT      O38329   6.839   1.954   6.235
12696WAT     H138330   6.871   1.883   6.299
12696WAT     H238331   6.849   2.044   6.277
12697WAT      O38332   0.923   6.901   9.398
12697WAT     H138333   0.905   6.924   9.302
12697WAT     H238334   0.968   6.978   9.443
12698WAT      O38335   5.334   1.154   0.150
12698WAT     H138336   5.372   1.155   0.242
12698WAT     H238337   5.366   1.074   0.101
12699WAT      O38338   1.159   7.638   6.518
12699WAT     H138339   1.254   7.669   6.518
12699WAT     H238340   1.157   7.538   6.519
12700WAT      O38341   4.934   8.877   4.439
12700WAT     H138342   5.004   8.855   4.507
12700WAT     H238343   4.930   8.976   4.425
12701WAT      O38344   3.169   9.242   9.882
12701WAT     H138345   3.146   9.145   9.874
12701WAT     H238346   3.086   9.297   9.883
12702WAT      O38347   3.431   7.801   6.141
12702WAT     H138348   3.363   7.794   6.069
12702WAT     H238349   3.454   7.897   6.156
12703WAT      O38350   1.653   8.077   6.181
12703WAT     H138351   1.735   8.042   6.226
12703WAT     H238352   1.637   8.025   6.097
12704WAT      O38353   4.906   5.773   8.465
12704WAT     H138354   4.903   5.681   8.424
12704WAT     H238355   4.856   5.837   8.406
12705WAT      O38356   4.141   8.445   6.123
12705WAT     H138357   4.191   8.511   6.179
12705WAT     H238358   4.050   8.482   6.102
12706WAT      O38359   8.360   8.671   3.698
12706WAT     H138360   8.423   8.744   3.671
12706WAT     H238361   8.367   8.656   3.796
12707WAT      O38362   8.173   1.885   5.109
12707WAT     H138363   8.114   1.805   5.121
12707WAT     H238364   8.127   1.966   5.148
12708WAT      O38365   5.788   6.332   4.913
12708WAT     H138366   5.786   6.313   4.815
12708WAT     H238367   5.767   6.428   4.929
12709WAT      O38368   0.967   9.569   4.666
12709WAT     H138369   0.915   9.516   4.732
12709WAT     H238370   1.049   9.518   4.640
12710WAT      O38371   6.842   8.312   9.303
12710WAT     H138372   6.831   8.240   9.234
12710WAT     H238373   6.760   8.370   9.303
12711WAT      O38374   7.480   7.387   0.820
12711WAT     H138375   7.441   7.479   0.822
12711WAT     H238376   7.578   7.392   0.838
12712WAT      O38377   8.147   0.477   4.003
12712WAT     H138378   8.126   0.567   3.966
12712WAT     H238379   8.229   0.483   4.060
12713WAT      O38380   2.922   1.553   5.651
12713WAT     H138381   2.930   1.616   5.729
12713WAT     H238382   2.979   1.585   5.576
12714WAT      O38383   4.489   1.993   1.345
12714WAT     H138384   4.390   1.997   1.335
12714WAT     H238385   4.531   1.977   1.255
12715WAT      O38386   9.790   5.369   2.018
12715WAT     H138387   9.792   5.277   1.979
12715WAT     H238388   9.811   5.436   1.946
12716WAT      O38389   6.687   5.769   8.635
12716WAT     H138390   6.715   5.850   8.686
12716WAT     H238391   6.672   5.794   8.539
12717WAT      O38392   9.287   4.286   3.030
12717WAT     H138393   9.239   4.323   2.951
12717WAT     H238394   9.236   4.208   3.067
12718WAT      O38395   0.665   8.004   5.961
12718WAT     H138396   0.696   8.038   5.872
12718WAT     H238397   0.681   8.074   6.030
12719WAT      O38398   6.750   9.393   7.340
12719WAT     H138399   6.652   9.400   7.359
12719WAT     H238400   6.765   9.387   7.241
12720WAT      O38401   9.674   5.043   3.058
12720WAT     H138402   9.689   5.140   3.073
12720WAT     H238403   9.738   5.009   2.989
12721WAT      O38404   8.182   3.230   9.456
12721WAT     H138405   8.213   3.150   9.508
12721WAT     H238406   8.110   3.277   9.506
12722WAT      O38407   5.119   0.111   8.541
12722WAT     H138408   5.089   0.015   8.540
12722WAT     H238409   5.040   0.170   8.526
12723WAT      O38410   5.197   4.712   9.326
12723WAT     H138411   5.145   4.634   9.294
12723WAT     H238412   5.147   4.757   9.400
12724WAT      O38413   4.372   6.548   8.974
12724WAT     H138414   4.380   6.523   9.070
12724WAT     H238415   4.458   6.531   8.927
12725WAT      O38416   5.057   8.546   5.616
12725WAT     H138417   4.966   8.524   5.580
12725WAT     H238418   5.117   8.466   5.604
12726WAT      O38419   6.525   8.213   3.924
12726WAT     H138420   6.561   8.226   4.016
12726WAT     H238421   6.430   8.245   3.920
12727WAT      O38422   4.073   8.009   6.438
12727WAT     H138423   4.093   8.093   6.388
12727WAT     H238424   4.024   8.031   6.522
12728WAT      O38425   7.436   8.443   6.308
12728WAT     H138426   7.508   8.374   6.319
12728WAT     H238427   7.410   8.449   6.211
12729WAT      O38428   8.540   9.544   8.541
12729WAT     H138429   8.524   9.478   8.615
12729WAT     H238430   8.537   9.637   8.578
12730WAT      O38431   3.863   6.641   6.318
12730WAT     H138432   3.805   6.669   6.394
12730WAT     H238433   3.864   6.541   6.311
12731WAT      O38434   4.269   2.179   0.561
12731WAT     H138435   4.247   2.226   0.475
12731WAT     H238436   4.204   2.105   0.575
12732WAT      O38437   2.300   2.707   6.681
12732WAT     H138438   2.266   2.715   6.587
12732WAT     H238439   2.292   2.796   6.727
12733WAT      O38440   1.505   1.946   0.680
12733WAT     H138441   1.586   1.995   0.711
12733WAT     H238442   1.531   1.859   0.638
12734WAT      O38443   2.772   7.251   5.730
12734WAT     H138444   2.768   7.284   5.636
12734WAT     H238445   2.714   7.170   5.739
12735WAT      O38446   1.879   7.646   1.024
12735WAT     H138447   1.869   7.712   1.098
12735WAT     H238448   1.975   7.641   0.997
12736WAT      O38449   5.703   0.572   8.212
12736WAT     H138450   5.744   0.661   8.194
12736WAT     H238451   5.603   0.579   8.204
12737WAT      O38452   6.665   3.079   4.010
12737WAT     H138453   6.569   3.105   4.011
12737WAT     H238454   6.674   2.986   3.975
12738WAT      O38455   5.577   4.238   4.202
12738WAT     H138456   5.540   4.209   4.113
12738WAT     H238457   5.671   4.206   4.211
12739WAT      O38458   3.238   9.816   9.196
12739WAT     H138459   3.189   9.749   9.140
12739WAT     H238460   3.176   9.889   9.221
12740WAT      O38461   4.757   4.948   3.110
12740WAT     H138462   4.697   4.873   3.081
12740WAT     H238463   4.849   4.913   3.129
12741WAT      O38464   8.722   5.882   2.088
12741WAT     H138465   8.761   5.883   1.995
12741WAT     H238466   8.637   5.934   2.089
12742WAT      O38467   0.719   3.564   2.036
12742WAT     H138468   0.674   3.641   1.989
12742WAT     H238469   0.738   3.590   2.131
12743WAT      O38470   0.597   9.338   4.777
12743WAT     H138471   0.687   9.371   4.806
12743WAT     H238472   0.607   9.247   4.736
12744WAT      O38473   7.741   2.423   4.498
12744WAT     H138474   7.762   2.408   4.401
12744WAT     H238475   7.813   2.479   4.539
12745WAT      O38476   0.745   7.578   0.489
12745WAT     H138477   0.776   7.632   0.411
12745WAT     H238478   0.770   7.626   0.574
12746WAT      O38479   6.659   6.839   8.024
12746WAT     H138480   6.563   6.861   8.039
12746WAT     H238481   6.709   6.849   8.110
12747WAT      O38482   8.251   5.353   6.618
12747WAT     H138483   8.260   5.388   6.525
12747WAT     H238484   8.154   5.351   6.644
12748WAT      O38485   5.421   3.264   0.286
12748WAT     H138486   5.470   3.350   0.295
12748WAT     H238487   5.324   3.282   0.271
12749WAT      O38488   8.572   5.174   3.173
12749WAT     H138489   8.574   5.273   3.158
12749WAT     H238490   8.657   5.133   3.139
12750WAT      O38491   5.795   4.580   2.571
12750WAT     H138492   5.703   4.550   2.597
12750WAT     H238493   5.799   4.593   2.472
12751WAT      O38494   3.991   1.760   1.721
12751WAT     H138495   4.041   1.694   1.776
12751WAT     H238496   3.942   1.823   1.781
12752WAT      O38497   9.154   5.275   2.093
12752WAT     H138498   9.238   5.271   2.039
12752WAT     H238499   9.162   5.346   2.162
12753WAT      O38500   0.058   6.770   8.709
12753WAT     H138501   0.129   6.778   8.779
12753WAT     H238502   0.080   6.696   8.647
12754WAT      O38503   9.246   3.060   5.395
12754WAT     H138504   9.240   2.999   5.316
12754WAT     H238505   9.246   3.155   5.363
12755WAT      O38506   9.622   9.313   8.968
12755WAT     H138507   9.689   9.382   8.940
12755WAT     H238508   9.561   9.351   9.037
12756WAT      O38509   4.224   1.599   4.955
12756WAT     H138510   4.316   1.633   4.974
12756WAT     H238511   4.156   1.668   4.981
12757WAT      O38512   6.471   2.518   7.348
12757WAT     H138513   6.520   2.594   7.305
12757WAT     H238514   6.398   2.487   7.287
12758WAT      O38515   4.292   6.333   5.542
12758WAT     H138516   4.220   6.289   5.489
12758WAT     H238517   4.381   6.295   5.516
12759WAT      O38518   8.190   2.622   4.142
12759WAT     H138519   8.222   2.638   4.049
12759WAT     H238520   8.135   2.539   4.144
12760WAT      O38521   7.261   0.560   6.972
12760WAT     H138522   7.177   0.558   7.026
12760WAT     H238523   7.309   0.473   6.982
12761WAT      O38524   9.508   9.690   0.697
12761WAT     H138525   9.475   9.597   0.717
12761WAT     H238526   9.460   9.756   0.754
12762WAT      O38527   8.191   9.656   8.226
12762WAT     H138528   8.288   9.632   8.221
12762WAT     H238529   8.173   9.706   8.311
12763WAT      O38530   3.523   3.505   9.278
12763WAT     H138531   3.596   3.568   9.252
12763WAT     H238532   3.464   3.486   9.199
12764WAT      O38533   0.944   5.945   4.300
12764WAT     H138534   1.035   5.973   4.328
12764WAT     H238535   0.876   6.003   4.344
12765WAT      O38536   0.641   2.506   4.943
12765WAT     H138537   0.726   2.518   4.892
12765WAT     H238538   0.661   2.482   5.038
12766WAT      O38539   4.512   3.962   7.944
12766WAT     H138540   4.567   4.031   7.990
12766WAT     H238541   4.524   3.971   7.845
12767WAT      O38542   3.565   7.673   7.842
12767WAT     H138543   3.492   7.726   7.800
12767WAT     H238544   3.537   7.643   7.933
12768WAT      O38545   8.943   9.260   6.424
12768WAT     H138546   8.942   9.273   6.325
12768WAT     H238547   8.912   9.168   6.446
12769WAT      O38548   8.025   1.158   0.384
12769WAT     H138549   8.015   1.060   0.367
12769WAT     H238550   8.066   1.172   0.474
12770WAT      O38551   2.727   4.178   8.419
12770WAT     H138552   2.648   4.150   8.365
12770WAT     H238553   2.759   4.268   8.388
12771WAT      O38554   7.164   2.019   9.426
12771WAT     H138555   7.070   2.047   9.409
12771WAT     H238556   7.222   2.043   9.348
12772WAT      O38557   2.874   8.397   1.604
12772WAT     H138558   2.837   8.344   1.680
12772WAT     H238559   2.814   8.475   1.586
12773WAT      O38560   1.734   2.672   0.028
12773WAT     H138561   1.834   2.671   0.023
12773WAT     H238562   1.697   2.617  -0.047
12774WAT      O38563   4.886   9.756   4.925
12774WAT     H138564   4.928   9.666   4.937
12774WAT     H238565   4.958   9.826   4.926
12775WAT      O38566   8.273   5.574   2.185
12775WAT     H138567   8.226   5.530   2.261
12775WAT     H238568   8.207   5.600   2.115
12776WAT      O38569   9.374   2.694   8.447
12776WAT     H138570   9.392   2.670   8.352
12776WAT     H238571   9.460   2.723   8.490
12777WAT      O38572   0.599   1.557   5.593
12777WAT     H138573   0.627   1.472   5.636
12777WAT     H238574   0.539   1.538   5.515
12778WAT      O38575   3.849   2.575   6.329
12778WAT     H138576   3.886   2.493   6.285
12778WAT     H238577   3.924   2.624   6.375
12779WAT      O38578   3.589   2.419   0.781
12779WAT     H138579   3.515   2.447   0.842
12779WAT     H238580   3.667   2.481   0.793
12780WAT      O38581   5.058   1.732   2.087
12780WAT     H138582   4.996   1.743   2.165
12780WAT     H238583   5.009   1.753   2.002
12781WAT      O38584   6.237   6.677   6.190
12781WAT     H138585   6.138   6.677   6.194
12781WAT     H238586   6.267   6.709   6.099
12782WAT      O38587   2.248   4.698   6.948
12782WAT     H138588   2.273   4.601   6.942
12782WAT     H238589   2.149   4.707   6.944
12783WAT      O38590   0.706   3.274   0.031
12783WAT     H138591   0.685   3.178   0.015
12783WAT     H238592   0.804   3.290   0.015
12784WAT      O38593   3.891   5.660   6.771
12784WAT     H138594   3.900   5.747   6.723
12784WAT     H238595   3.912   5.585   6.708
12785WAT      O38596   8.058   4.383   1.703
12785WAT     H138597   7.977   4.379   1.644
12785WAT     H238598   8.127   4.440   1.660
12786WAT      O38599   5.764   8.979   1.421
12786WAT     H138600   5.716   8.905   1.467
12786WAT     H238601   5.699   9.050   1.395
12787WAT      O38602   1.395   2.793   2.316
12787WAT     H138603   1.472   2.736   2.288
12787WAT     H238604   1.397   2.879   2.265
12788WAT      O38605   7.491   7.206   2.308
12788WAT     H138606   7.433   7.219   2.388
12788WAT     H238607   7.527   7.112   2.308
12789WAT      O38608   9.762   2.440   7.818
12789WAT     H138609   9.697   2.513   7.801
12789WAT     H238610   9.752   2.369   7.748
12790WAT      O38611   7.790   1.711   8.872
12790WAT     H138612   7.859   1.782   8.885
12790WAT     H238613   7.753   1.684   8.961
12791WAT      O38614   3.623   7.374   6.743
12791WAT     H138615   3.564   7.366   6.823
12791WAT     H238616   3.589   7.446   6.683
12792WAT      O38617   7.543   2.853   4.079
12792WAT     H138618   7.466   2.916   4.064
12792WAT     H238619   7.516   2.761   4.052
12793WAT      O38620   2.040   5.298   1.932
12793WAT     H138621   1.960   5.242   1.911
12793WAT     H238622   2.100   5.302   1.853
12794WAT      O38623   4.723   5.420   7.560
12794WAT     H138624   4.772   5.343   7.519
12794WAT     H238625   4.656   5.386   7.626
12795WAT      O38626   8.564   7.468   8.271
12795WAT     H138627   8.471   7.505   8.275
12795WAT     H238628   8.566   7.387   8.212
12796WAT      O38629   0.719   8.913   8.186
12796WAT     H138630   0.756   8.920   8.093
12796WAT     H238631   0.721   8.817   8.215
12797WAT      O38632   9.780   0.173   7.695
12797WAT     H138633   9.872   0.146   7.722
12797WAT     H238634   9.732   0.212   7.774
12798WAT      O38635   2.069   5.133   7.283
12798WAT     H138636   1.987   5.186   7.264
12798WAT     H238637   2.142   5.161   7.221
12799WAT      O38638   6.180   3.836   7.187
12799WAT     H138639   6.254   3.772   7.209
12799WAT     H238640   6.192   3.869   7.094
12800WAT      O38641   1.005   8.013   9.459
12800WAT     H138642   1.013   8.107   9.491
12800WAT     H238643   0.960   7.957   9.529
12801WAT      O38644   6.073   6.589   3.502
12801WAT     H138645   6.164   6.599   3.544
12801WAT     H238646   6.038   6.498   3.521
12802WAT      O38647   1.081   4.578   3.890
12802WAT     H138648   1.149   4.543   3.826
12802WAT     H238649   1.039   4.503   3.941
12803WAT      O38650   0.189   4.754   4.228
12803WAT     H138651   0.159   4.666   4.193
12803WAT     H238652   0.136   4.778   4.309
12804WAT      O38653   7.706   3.689   2.872
12804WAT     H138654   7.632   3.623   2.875
12804WAT     H238655   7.794   3.641   2.875
12805WAT      O38656   0.619   8.640   0.536
12805WAT     H138657   0.713   8.610   0.522
12805WAT     H238658   0.589   8.693   0.457
12806WAT      O38659   2.047   2.621   2.574
12806WAT     H138660   2.117   2.610   2.503
12806WAT     H238661   2.086   2.600   2.663
12807WAT      O38662   0.174   9.086   3.283
12807WAT     H138663   0.186   9.079   3.183
12807WAT     H238664   0.257   9.052   3.328
12808WAT      O38665   5.935   9.220   8.962
12808WAT     H138666   5.936   9.318   8.985
12808WAT     H238667   5.986   9.169   9.031
12809WAT      O38668   4.103   4.011   9.620
12809WAT     H138669   4.163   4.033   9.697
12809WAT     H238670   4.033   3.946   9.649
12810WAT      O38671   8.069   6.901   3.959
12810WAT     H138672   8.058   6.805   3.932
12810WAT     H238673   8.166   6.923   3.965
12811WAT      O38674   4.358   3.873   7.347
12811WAT     H138675   4.444   3.889   7.395
12811WAT     H238676   4.375   3.825   7.262
12812WAT      O38677   2.709   7.963   8.874
12812WAT     H138678   2.638   8.007   8.929
12812WAT     H238679   2.691   7.865   8.868
12813WAT      O38680   9.545   6.255   5.936
12813WAT     H138681   9.446   6.250   5.929
12813WAT     H238682   9.570   6.327   6.002
12814WAT      O38683   0.411   0.072   8.777
12814WAT     H138684   0.323   0.115   8.755
12814WAT     H238685   0.394  -0.010   8.831
12815WAT      O38686   8.312   1.129   8.541
12815WAT     H138687   8.389   1.193   8.545
12815WAT     H238688   8.330   1.052   8.602
12816WAT      O38689   2.265   5.618   6.202
12816WAT     H138690   2.271   5.537   6.260
12816WAT     H238691   2.357   5.655   6.186
12817WAT      O38692   0.676   2.237   4.580
12817WAT     H138693   0.710   2.331   4.587
12817WAT     H238694   0.623   2.215   4.663
12818WAT      O38695   6.242   4.276   8.683
12818WAT     H138696   6.195   4.326   8.756
12818WAT     H238697   6.221   4.319   8.595
12819WAT      O38698   1.277   6.527   6.763
12819WAT     H138699   1.238   6.497   6.850
12819WAT     H238700   1.213   6.590   6.718
12820WAT      O38701   4.394   9.775   3.075
12820WAT     H138702   4.424   9.862   3.036
12820WAT     H238703   4.415   9.701   3.011
12821WAT      O38704   1.188   0.113   5.783
12821WAT     H138705   1.130   0.132   5.703
12821WAT     H238706   1.283   0.108   5.754
12822WAT      O38707   0.679   8.642   4.607
12822WAT     H138708   0.667   8.549   4.641
12822WAT     H238709   0.615   8.703   4.654
12823WAT      O38710   2.059   8.796   6.061
12823WAT     H138711   2.010   8.876   6.095
12823WAT     H238712   2.040   8.717   6.119
12824WAT      O38713   4.607   3.790   3.852
12824WAT     H138714   4.702   3.778   3.881
12824WAT     H238715   4.566   3.867   3.900
12825WAT      O38716   1.852   9.274   4.805
12825WAT     H138717   1.948   9.284   4.830
12825WAT     H238718   1.826   9.348   4.742
12826WAT      O38719   9.695   9.392   1.063
12826WAT     H138720   9.745   9.381   1.149
12826WAT     H238721   9.758   9.419   0.991
12827WAT      O38722   3.706   8.794   5.271
12827WAT     H138723   3.620   8.787   5.320
12827WAT     H238724   3.691   8.776   5.174
12828WAT      O38725   5.645   7.526   2.989
12828WAT     H138726   5.602   7.606   3.031
12828WAT     H238727   5.585   7.446   2.999
12829WAT      O38728   8.279   6.807   3.113
12829WAT     H138729   8.186   6.830   3.083
12829WAT     H238730   8.277   6.722   3.166
12830WAT      O38731   6.341   9.503   7.785
12830WAT     H138732   6.288   9.458   7.714
12830WAT     H238733   6.340   9.447   7.868
12831WAT      O38734   6.060   1.217   8.952
12831WAT     H138735   6.148   1.243   8.911
12831WAT     H238736   6.073   1.202   9.050
12832WAT      O38737   1.036   7.128   8.751
12832WAT     H138738   1.020   7.174   8.663
12832WAT     H238739   0.978   7.170   8.821
12833WAT      O38740   9.749   2.446   4.293
12833WAT     H138741   9.763   2.544   4.308
12833WAT     H238742   9.663   2.418   4.335
12834WAT      O38743   8.070   7.477   8.423
12834WAT     H138744   7.987   7.518   8.384
12834WAT     H238745   8.079   7.383   8.390
12835WAT      O38746   5.466   6.149   1.557
12835WAT     H138747   5.478   6.125   1.653
12835WAT     H238748   5.375   6.188   1.543
12836WAT      O38749   9.184   3.744   1.627
12836WAT     H138750   9.209   3.702   1.540
12836WAT     H238751   9.257   3.805   1.656
12837WAT      O38752   2.593   8.331   7.909
12837WAT     H138753   2.516   8.334   7.974
12837WAT     H238754   2.598   8.241   7.868
12838WAT      O38755   0.242   5.722   5.225
12838WAT     H138756   0.150   5.683   5.215
12838WAT     H238757   0.310   5.650   5.216
12839WAT      O38758   9.156   6.368   0.389
12839WAT     H138759   9.153   6.328   0.297
12839WAT     H238760   9.065   6.367   0.429
12840WAT      O38761   3.540   3.457   4.512
12840WAT     H138762   3.562   3.413   4.425
12840WAT     H238763   3.453   3.506   4.503
12841WAT      O38764   8.433   4.724   9.444
12841WAT     H138765   8.384   4.808   9.465
12841WAT     H238766   8.383   4.646   9.481
12842WAT      O38767   1.069   2.182   3.555
12842WAT     H138768   1.101   2.153   3.645
12842WAT     H238769   1.101   2.118   3.485
12843WAT      O38770   0.473   5.846   1.603
12843WAT     H138771   0.474   5.791   1.687
12843WAT     H238772   0.459   5.786   1.524
12844WAT      O38773   2.549   6.092   4.199
12844WAT     H138774   2.569   6.116   4.294
12844WAT     H238775   2.551   5.993   4.188
12845WAT      O38776   6.262   8.215   6.066
12845WAT     H138777   6.249   8.162   5.982
12845WAT     H238778   6.186   8.197   6.129
12846WAT      O38779   8.157   5.104   8.313
12846WAT     H138780   8.123   5.189   8.273
12846WAT     H238781   8.180   5.119   8.409
12847WAT      O38782   4.515   2.971   0.669
12847WAT     H138783   4.544   3.022   0.588
12847WAT     H238784   4.467   3.032   0.732
12848WAT      O38785   3.095   4.091   5.594
12848WAT     H138786   3.127   4.144   5.673
12848WAT     H238787   3.003   4.121   5.568
12849WAT      O38788   7.622   8.940   6.785
12849WAT     H138789   7.685   8.996   6.840
12849WAT     H238790   7.550   8.903   6.843
12850WAT      O38791   3.451   0.629   5.819
12850WAT     H138792   3.499   0.601   5.902
12850WAT     H238793   3.475   0.723   5.796
12851WAT      O38794   8.762   9.569   2.325
12851WAT     H138795   8.846   9.622   2.334
12851WAT     H238796   8.692   9.625   2.280
12852WAT      O38797   6.730   1.720   8.416
12852WAT     H138798   6.710   1.726   8.513
12852WAT     H238799   6.803   1.784   8.392
12853WAT      O38800   3.053   8.222   9.104
12853WAT     H138801   3.006   8.140   9.137
12853WAT     H238802   3.080   8.279   9.181
12854WAT      O38803   3.941   1.879   0.812
12854WAT     H138804   3.844   1.895   0.793
12854WAT     H238805   3.950   1.844   0.906
12855WAT      O38806   4.346   2.092   7.293
12855WAT     H138807   4.435   2.051   7.274
12855WAT     H238808   4.342   2.122   7.388
12856WAT      O38809   5.310   0.029   4.643
12856WAT     H138810   5.261   0.045   4.557
12856WAT     H238811   5.361  -0.057   4.636
12857WAT      O38812   1.268   2.691   2.047
12857WAT     H138813   1.266   2.612   1.985
12857WAT     H238814   1.315   2.667   2.131
12858WAT      O38815   3.717   0.860   2.130
12858WAT     H138816   3.634   0.851   2.075
12858WAT     H238817   3.693   0.864   2.227
12859WAT      O38818   9.708   0.769   6.295
12859WAT     H138819   9.776   0.703   6.327
12859WAT     H238820   9.625   0.721   6.268
12860WAT      O38821   3.017   4.092   0.858
12860WAT     H138822   3.045   4.082   0.762
12860WAT     H238823   2.923   4.126   0.862
12861WAT      O38824   2.578   1.894   2.034
12861WAT     H138825   2.531   1.955   2.098
12861WAT     H238826   2.607   1.812   2.083
12862WAT      O38827   7.455   3.276   0.336
12862WAT     H138828   7.540   3.322   0.361
12862WAT     H238829   7.461   3.179   0.360
12863WAT      O38830   3.012   6.796   9.542
12863WAT     H138831   2.916   6.818   9.522
12863WAT     H238832   3.017   6.751   9.631
12864WAT      O38833   0.387   6.700   3.448
12864WAT     H138834   0.399   6.702   3.547
12864WAT     H238835   0.290   6.694   3.426
12865WAT      O38836   0.353   1.631   0.083
12865WAT     H138837   0.380   1.607   0.176
12865WAT     H238838   0.410   1.707   0.050
12866WAT      O38839   4.057   4.305   8.505
12866WAT     H138840   3.998   4.346   8.435
12866WAT     H238841   4.001   4.261   8.575
12867WAT      O38842   9.614   5.275   3.357
12867WAT     H138843   9.531   5.303   3.309
12867WAT     H238844   9.666   5.356   3.383
12868WAT      O38845   1.202   0.691   4.022
12868WAT     H138846   1.255   0.627   4.077
12868WAT     H238847   1.144   0.640   3.958
12869WAT      O38848   0.514   5.301   0.519
12869WAT     H138849   0.517   5.365   0.442
12869WAT     H238850   0.509   5.207   0.485
12870WAT      O38851   0.121   7.155   3.713
12870WAT     H138852   0.090   7.215   3.787
12870WAT     H238853   0.212   7.120   3.733
12871WAT      O38854   9.102   1.895   6.994
12871WAT     H138855   9.175   1.835   6.958
12871WAT     H238856   9.091   1.973   6.933
12872WAT      O38857   4.807   8.711   0.722
12872WAT     H138858   4.806   8.654   0.639
12872WAT     H238859   4.827   8.806   0.696
12873WAT      O38860   7.855   9.237   7.155
12873WAT     H138861   7.917   9.169   7.194
12873WAT     H238862   7.777   9.249   7.216
12874WAT      O38863   2.874   8.341   7.593
12874WAT     H138864   2.937   8.402   7.546
12874WAT     H238865   2.822   8.392   7.662
12875WAT      O38866   6.427   4.279   1.179
12875WAT     H138867   6.374   4.316   1.103
12875WAT     H238868   6.477   4.353   1.223
12876WAT      O38869   3.306   8.583   6.867
12876WAT     H138870   3.303   8.564   6.769
12876WAT     H238871   3.213   8.598   6.901
12877WAT      O38872   1.596   4.866   7.918
12877WAT     H138873   1.658   4.792   7.942
12877WAT     H238874   1.501   4.835   7.929
12878WAT      O38875   8.200   4.736   5.212
12878WAT     H138876   8.200   4.835   5.196
12878WAT     H238877   8.114   4.710   5.256
12879WAT      O38878   0.623   4.972   2.512
12879WAT     H138879   0.644   5.068   2.493
12879WAT     H238880   0.566   4.966   2.594
12880WAT      O38881   1.029   6.007   6.871
12880WAT     H138882   1.028   5.919   6.822
12880WAT     H238883   1.081   5.997   6.955
12881WAT      O38884   7.568   0.763   8.278
12881WAT     H138885   7.665   0.785   8.279
12881WAT     H238886   7.550   0.692   8.211
12882WAT      O38887   7.605   5.840   2.405
12882WAT     H138888   7.526   5.779   2.395
12882WAT     H238889   7.580   5.916   2.464
12883WAT      O38890   6.456   5.941   1.193
12883WAT     H138891   6.516   5.986   1.260
12883WAT     H238892   6.507   5.867   1.148
12884WAT      O38893   5.168   0.447   4.743
12884WAT     H138894   5.152   0.503   4.825
12884WAT     H238895   5.171   0.506   4.663
12885WAT      O38896   2.805   7.275   0.565
12885WAT     H138897   2.837   7.196   0.512
12885WAT     H238898   2.708   7.291   0.545
12886WAT      O38899   9.083   5.257   2.571
12886WAT     H138900   9.049   5.212   2.488
12886WAT     H238901   9.006   5.281   2.630
12887WAT      O38902   7.378   7.454   7.166
12887WAT     H138903   7.357   7.543   7.126
12887WAT     H238904   7.434   7.467   7.248
12888WAT      O38905   3.288   1.046   9.399
12888WAT     H138906   3.335   1.078   9.316
12888WAT     H238907   3.202   1.096   9.409
12889WAT      O38908   2.370   8.987   2.804
12889WAT     H138909   2.366   8.936   2.718
12889WAT     H238910   2.299   8.954   2.866
12890WAT      O38911   1.998   2.087   4.629
12890WAT     H138912   1.995   2.119   4.534
12890WAT     H238913   2.042   2.156   4.686
12891WAT      O38914   6.442   8.484   8.807
12891WAT     H138915   6.507   8.488   8.731
12891WAT     H238916   6.357   8.442   8.776
12892WAT      O38917   2.426   4.883   2.977
12892WAT     H138918   2.483   4.926   2.906
12892WAT     H238919   2.330   4.891   2.951
12893WAT      O38920   2.523   4.750   5.645
12893WAT     H138921   2.572   4.664   5.656
12893WAT     H238922   2.477   4.752   5.556
12894WAT      O38923   6.084   7.713   7.062
12894WAT     H138924   6.110   7.636   7.005
12894WAT     H238925   5.987   7.708   7.083
12895WAT      O38926   1.762   8.234   6.968
12895WAT     H138927   1.830   8.307   6.974
12895WAT     H238928   1.799   8.150   7.007
12896WAT      O38929   3.001   8.375   0.582
12896WAT     H138930   3.095   8.344   0.596
12896WAT     H238931   2.989   8.464   0.627
12897WAT      O38932   2.412   1.424   9.423
12897WAT     H138933   2.341   1.437   9.354
12897WAT     H238934   2.390   1.477   9.505
12898WAT      O38935   0.682   7.608   4.575
12898WAT     H138936   0.625   7.529   4.596
12898WAT     H238937   0.741   7.587   4.496
12899WAT      O38938   4.789   2.643   3.810
12899WAT     H138939   4.755   2.557   3.846
12899WAT     H238940   4.883   2.631   3.778
12900WAT      O38941   9.731   2.614   1.499
12900WAT     H138942   9.681   2.534   1.467
12900WAT     H238943   9.668   2.678   1.543
12901WAT      O38944   0.893   4.947   1.067
12901WAT     H138945   0.891   5.012   1.142
12901WAT     H238946   0.857   4.859   1.098
12902WAT      O38947   5.712   9.505   8.229
12902WAT     H138948   5.735   9.602   8.229
12902WAT     H238949   5.785   9.453   8.274
12903WAT      O38950   9.838   5.159   1.157
12903WAT     H138951   9.766   5.196   1.215
12903WAT     H238952   9.910   5.120   1.214
12904WAT      O38953   8.062   3.468   0.847
12904WAT     H138954   8.022   3.558   0.865
12904WAT     H238955   8.045   3.408   0.926
12905WAT      O38956   3.034   3.039   9.633
12905WAT     H138957   3.102   3.109   9.610
12905WAT     H238958   2.944   3.082   9.642
12906WAT      O38959   6.672   9.446   6.447
12906WAT     H138960   6.770   9.428   6.458
12906WAT     H238961   6.632   9.377   6.386
12907WAT      O38962   6.505   1.758   9.738
12907WAT     H138963   6.569   1.724   9.806
12907WAT     H238964   6.412   1.733   9.764
12908WAT      O38965   2.685   2.197   2.078
12908WAT     H138966   2.656   2.260   2.007
12908WAT     H238967   2.779   2.168   2.060
12909WAT      O38968   4.891   5.261   9.580
12909WAT     H138969   4.982   5.266   9.621
12909WAT     H238970   4.829   5.321   9.630
12910WAT      O38971   4.308   8.973   7.581
12910WAT     H138972   4.245   9.005   7.651
12910WAT     H238973   4.304   9.034   7.501
12911WAT      O38974   2.343   7.468   1.768
12911WAT     H138975   2.253   7.476   1.726
12911WAT     H238976   2.413   7.465   1.696
12912WAT      O38977   2.938   4.167   0.533
12912WAT     H138978   2.950   4.069   0.516
12912WAT     H238979   3.027   4.210   0.546
12913WAT      O38980   8.747   7.672   9.798
12913WAT     H138981   8.744   7.742   9.869
12913WAT     H238982   8.677   7.690   9.729
12914WAT      O38983   5.016   4.703   2.059
12914WAT     H138984   4.946   4.751   2.006
12914WAT     H238985   5.032   4.613   2.018
12915WAT      O38986   7.435   9.474   4.728
12915WAT     H138987   7.466   9.380   4.711
12915WAT     H238988   7.361   9.473   4.796
12916WAT      O38989   5.201   5.334   2.574
12916WAT     H138990   5.294   5.363   2.549
12916WAT     H238991   5.182   5.361   2.668
12917WAT      O38992   7.246   6.437   1.472
12917WAT     H138993   7.257   6.449   1.570
12917WAT     H238994   7.260   6.341   1.449
12918WAT      O38995   2.020   6.952   3.456
12918WAT     H138996   2.099   6.983   3.508
12918WAT     H238997   1.942   7.013   3.474
12919WAT      O38998   9.799   3.259   1.727
12919WAT     H138999   9.875   3.300   1.677
12919WAT     H239000   9.752   3.192   1.668
12920WAT      O39001   6.477   9.540   1.735
12920WAT     H139002   6.536   9.460   1.724
12920WAT     H239003   6.482   9.598   1.654
12921WAT      O39004   7.107   4.881   6.873
12921WAT     H139005   7.041   4.924   6.934
12921WAT     H239006   7.158   4.952   6.823
12922WAT      O39007   2.027   6.138   3.266
12922WAT     H139008   2.067   6.058   3.221
12922WAT     H239009   1.974   6.191   3.199
12923WAT      O39010   4.724   4.055   4.081
12923WAT     H139011   4.639   4.007   4.060
12923WAT     H239012   4.776   4.069   3.997
12924WAT      O39013   7.221   4.045   6.775
12924WAT     H139014   7.250   3.957   6.815
12924WAT     H239015   7.125   4.061   6.799
12925WAT      O39016   8.214   8.872   2.994
12925WAT     H139017   8.184   8.857   2.900
12925WAT     H239018   8.176   8.957   3.029
12926WAT      O39019   8.086   7.811   7.368
12926WAT     H139020   8.018   7.771   7.429
12926WAT     H239021   8.161   7.848   7.422
12927WAT      O39022   1.054   1.103   6.094
12927WAT     H139023   1.014   1.041   6.161
12927WAT     H239024   1.005   1.191   6.096
12928WAT      O39025   3.792   8.163   2.135
12928WAT     H139026   3.808   8.168   2.234
12928WAT     H239027   3.695   8.182   2.117
12929WAT      O39028   6.476   0.821   5.722
12929WAT     H139029   6.422   0.898   5.754
12929WAT     H239030   6.470   0.745   5.787
12930WAT      O39031   2.005   5.487   7.114
12930WAT     H139032   2.085   5.430   7.134
12930WAT     H239033   1.972   5.466   7.021
12931WAT      O39034   7.982   7.246   2.679
12931WAT     H139035   8.031   7.188   2.614
12931WAT     H239036   8.028   7.334   2.686
12932WAT      O39037   2.107   4.648   0.388
12932WAT     H139038   2.186   4.687   0.341
12932WAT     H239039   2.136   4.572   0.445
12933WAT      O39040   3.282   3.033   4.612
12933WAT     H139041   3.327   3.105   4.667
12933WAT     H239042   3.187   3.058   4.596
12934WAT      O39043   4.033   4.079   1.196
12934WAT     H139044   4.002   4.161   1.148
12934WAT     H239045   4.009   4.085   1.292
12935WAT      O39046   8.809   2.457   6.334
12935WAT     H139047   8.850   2.378   6.289
12935WAT     H239048   8.709   2.453   6.324
12936WAT      O39049   4.051   4.142   3.275
12936WAT     H139050   4.022   4.218   3.334
12936WAT     H239051   4.065   4.060   3.330
12937WAT      O39052   8.170   2.611   1.971
12937WAT     H139053   8.091   2.670   1.955
12937WAT     H239054   8.143   2.515   1.961
12938WAT      O39055   9.115   3.154   8.385
12938WAT     H139056   9.022   3.192   8.388
12938WAT     H239057   9.119   3.071   8.440
12939WAT      O39058   0.793   6.206   6.464
12939WAT     H139059   0.877   6.210   6.410
12939WAT     H239060   0.734   6.284   6.440
12940WAT      O39061   8.563   5.479   0.091
12940WAT     H139062   8.644   5.437   0.132
12940WAT     H239063   8.571   5.579   0.097
12941WAT      O39064   3.245   6.070   6.063
12941WAT     H139065   3.204   6.155   6.096
12941WAT     H239066   3.177   5.997   6.063
12942WAT      O39067   6.747   1.886   5.790
12942WAT     H139068   6.753   1.924   5.697
12942WAT     H239069   6.785   1.951   5.855
12943WAT      O39070   9.143   4.490   7.809
12943WAT     H139071   9.093   4.475   7.894
12943WAT     H239072   9.094   4.555   7.752
12944WAT      O39073   7.720   7.544   8.984
12944WAT     H139074   7.734   7.481   9.060
12944WAT     H239075   7.739   7.637   9.014
12945WAT      O39076   8.893   8.710   1.862
12945WAT     H139077   8.922   8.801   1.834
12945WAT     H239078   8.972   8.649   1.868
12946WAT      O39079   5.209   6.556   5.664
12946WAT     H139080   5.270   6.510   5.599
12946WAT     H239081   5.237   6.652   5.672
12947WAT      O39082   6.064   9.210   1.525
12947WAT     H139083   6.012   9.198   1.441
12947WAT     H239084   6.119   9.293   1.519
12948WAT      O39085   8.531   7.735   0.349
12948WAT     H139086   8.452   7.795   0.334
12948WAT     H239087   8.593   7.776   0.416
12949WAT      O39088   8.253   6.278   5.830
12949WAT     H139089   8.323   6.272   5.759
12949WAT     H239090   8.173   6.324   5.794
12950WAT      O39091   4.736   6.541   6.594
12950WAT     H139092   4.714   6.450   6.558
12950WAT     H239093   4.682   6.610   6.546
12951WAT      O39094   2.580   6.286   1.772
12951WAT     H139095   2.587   6.265   1.675
12951WAT     H239096   2.638   6.365   1.794
12952WAT      O39097   5.341   7.507   4.722
12952WAT     H139098   5.395   7.449   4.783
12952WAT     H239099   5.338   7.600   4.759
12953WAT      O39100   9.087   3.921   2.726
12953WAT     H139101   9.143   3.877   2.796
12953WAT     H239102   9.017   3.978   2.769
12954WAT      O39103   7.271   5.329   1.331
12954WAT     H139104   7.370   5.317   1.320
12954WAT     H239105   7.239   5.271   1.406
12955WAT      O39106   4.370   0.578   1.435
12955WAT     H139107   4.428   0.553   1.513
12955WAT     H239108   4.322   0.497   1.403
12956WAT      O39109   7.383   3.760   4.391
12956WAT     H139110   7.438   3.794   4.314
12956WAT     H239111   7.426   3.786   4.477
12957WAT      O39112   4.049   8.339   3.540
12957WAT     H139113   3.982   8.275   3.502
12957WAT     H239114   4.117   8.363   3.471
12958WAT      O39115   4.928   8.285   2.494
12958WAT     H139116   4.908   8.296   2.397
12958WAT     H239117   5.019   8.320   2.514
12959WAT      O39118   2.435   1.795   6.012
12959WAT     H139119   2.453   1.745   6.097
12959WAT     H239120   2.441   1.732   5.934
12960WAT      O39121   5.774   3.148   1.151
12960WAT     H139122   5.773   3.051   1.129
12960WAT     H239123   5.817   3.198   1.075
12961WAT      O39124   0.436   8.704   6.977
12961WAT     H139125   0.501   8.736   7.046
12961WAT     H239126   0.414   8.779   6.914
12962WAT      O39127   2.042   5.843   5.163
12962WAT     H139128   2.084   5.830   5.074
12962WAT     H239129   2.079   5.925   5.206
12963WAT      O39130   9.428   5.297   4.047
12963WAT     H139131   9.499   5.262   4.107
12963WAT     H239132   9.338   5.272   4.082
12964WAT      O39133   9.104   6.178   5.399
12964WAT     H139134   9.037   6.113   5.435
12964WAT     H239135   9.147   6.227   5.475
12965WAT      O39136   3.924   0.221   2.264
12965WAT     H139137   3.827   0.247   2.268
12965WAT     H239138   3.936   0.148   2.196
12966WAT      O39139   7.892   0.458   2.234
12966WAT     H139140   7.933   0.539   2.193
12966WAT     H239141   7.932   0.375   2.194
12967WAT      O39142   4.521   4.008   0.305
12967WAT     H139143   4.570   3.945   0.246
12967WAT     H239144   4.443   4.047   0.255
12968WAT      O39145   5.294   3.047   1.597
12968WAT     H139146   5.264   2.974   1.658
12968WAT     H239147   5.267   3.135   1.636
12969WAT      O39148   3.805   1.958   5.362
12969WAT     H139149   3.822   1.859   5.355
12969WAT     H239150   3.813   1.986   5.458
12970WAT      O39151   4.539   3.350   0.916
12970WAT     H139152   4.603   3.314   0.983
12970WAT     H239153   4.502   3.437   0.948
12971WAT      O39154   4.215   0.066   1.935
12971WAT     H139155   4.253   0.001   1.869
12971WAT     H239156   4.289   0.098   1.995
12972WAT      O39157   5.122   6.839   5.049
12972WAT     H139158   5.149   6.764   4.989
12972WAT     H239159   5.104   6.804   5.140
12973WAT      O39160   8.517   2.250   4.053
12973WAT     H139161   8.615   2.256   4.035
12973WAT     H239162   8.497   2.285   4.144
12974WAT      O39163   8.055   1.654   5.200
12974WAT     H139164   8.079   1.585   5.132
12974WAT     H239165   8.063   1.615   5.292
12975WAT      O39166   4.326   7.879   7.179
12975WAT     H139167   4.359   7.784   7.174
12975WAT     H239168   4.393   7.939   7.135
12976WAT      O39169   6.216   0.195   8.074
12976WAT     H139170   6.171   0.138   8.005
12976WAT     H239171   6.305   0.224   8.039
12977WAT      O39172   8.105   9.726   5.420
12977WAT     H139173   8.018   9.722   5.371
12977WAT     H239174   8.137   9.634   5.439
12978WAT      O39175   6.786   6.298   2.054
12978WAT     H139176   6.791   6.356   1.973
12978WAT     H239177   6.710   6.233   2.044
12979WAT      O39178   5.410   0.648   7.916
12979WAT     H139179   5.394   0.744   7.896
12979WAT     H239180   5.480   0.639   7.986
12980WAT      O39181   6.101   8.869   0.914
12980WAT     H139182   6.153   8.951   0.935
12980WAT     H239183   6.004   8.887   0.929
12981WAT      O39184   7.504   0.952   2.784
12981WAT     H139185   7.473   1.036   2.739
12981WAT     H239186   7.591   0.969   2.829
12982WAT      O39187   1.991   0.087   8.980
12982WAT     H139188   2.057   0.025   9.022
12982WAT     H239189   1.962   0.156   9.046
12983WAT      O39190   2.198   7.763   4.082
12983WAT     H139191   2.191   7.775   4.181
12983WAT     H239192   2.140   7.831   4.036
12984WAT      O39193   3.501   2.913   9.400
12984WAT     H139194   3.478   2.932   9.495
12984WAT     H239195   3.549   2.826   9.393
12985WAT      O39196   3.732   3.786   9.317
12985WAT     H139197   3.772   3.866   9.273
12985WAT     H239198   3.646   3.812   9.362
12986WAT      O39199   5.009   9.465   6.477
12986WAT     H139200   5.003   9.565   6.486
12986WAT     H239201   4.917   9.427   6.468
12987WAT      O39202   7.286   3.749   0.931
12987WAT     H139203   7.316   3.656   0.952
12987WAT     H239204   7.196   3.746   0.887
12988WAT      O39205   3.003   1.909   6.456
12988WAT     H139206   3.081   1.860   6.494
12988WAT     H239207   2.974   1.865   6.371
12989WAT      O39208   2.174   4.520   1.738
12989WAT     H139209   2.225   4.434   1.727
12989WAT     H239210   2.164   4.565   1.649
12990WAT      O39211   3.689   3.598   5.056
12990WAT     H139212   3.626   3.522   5.040
12990WAT     H239213   3.685   3.625   5.152
12991WAT      O39214   2.506   6.565   4.781
12991WAT     H139215   2.489   6.643   4.840
12991WAT     H239216   2.604   6.549   4.773
12992WAT      O39217   8.182   6.837   9.307
12992WAT     H139218   8.275   6.831   9.345
12992WAT     H239219   8.182   6.800   9.214
12993WAT      O39220   1.528   6.862   4.509
12993WAT     H139221   1.538   6.762   4.507
12993WAT     H239222   1.568   6.901   4.426
12994WAT      O39223   2.189   3.273   8.453
12994WAT     H139224   2.102   3.227   8.467
12994WAT     H239225   2.232   3.240   8.370
12995WAT      O39226   0.904   4.760   9.204
12995WAT     H139227   0.978   4.810   9.249
12995WAT     H239228   0.863   4.816   9.132
12996WAT      O39229   7.833   9.511   4.271
12996WAT     H139230   7.898   9.475   4.203
12996WAT     H239231   7.744   9.467   4.257
12997WAT      O39232   6.594   9.066   0.441
12997WAT     H139233   6.587   8.988   0.380
12997WAT     H239234   6.690   9.083   0.463
12998WAT      O39235   3.712   6.796   8.887
12998WAT     H139236   3.665   6.818   8.802
12998WAT     H239237   3.644   6.789   8.961
12999WAT      O39238   9.812   0.052   4.714
12999WAT     H139239   9.894  -0.004   4.709
12999WAT     H239240   9.829   0.131   4.773
13000WAT      O39241   9.849   3.211   5.930
13000WAT     H139242   9.783   3.139   5.907
13000WAT     H239243   9.844   3.230   6.028
13001WAT      O39244   3.067   7.738   5.829
13001WAT     H139245   3.152   7.790   5.837
13001WAT     H239246   3.027   7.754   5.738
13002WAT      O39247   0.815   3.464   2.319
13002WAT     H139248   0.838   3.367   2.312
13002WAT     H239249   0.733   3.475   2.375
13003WAT      O39250   6.409   2.146   1.847
13003WAT     H139251   6.342   2.082   1.885
13003WAT     H239252   6.459   2.191   1.920
13004WAT      O39253   9.359   7.069   2.499
13004WAT     H139254   9.360   7.034   2.406
13004WAT     H239255   9.451   7.062   2.538
13005WAT      O39256   6.367   4.390   7.874
13005WAT     H139257   6.335   4.463   7.935
13005WAT     H239258   6.462   4.408   7.849
13006WAT      O39259   9.425   6.210   6.328
13006WAT     H139260   9.493   6.144   6.298
13006WAT     H239261   9.469   6.299   6.344
13007WAT      O39262   9.135   1.797   8.766
13007WAT     H139263   9.213   1.806   8.828
13007WAT     H239264   9.113   1.887   8.727
13008WAT      O39265   2.331   0.088   7.722
13008WAT     H139266   2.350   0.124   7.630
13008WAT     H239267   2.378   0.001   7.734
13009WAT      O39268   5.208   0.660   7.553
13009WAT     H139269   5.180   0.574   7.595
13009WAT     H239270   5.307   0.661   7.541
13010WAT      O39271   0.836   7.522   4.341
13010WAT     H139272   0.815   7.451   4.274
13010WAT     H239273   0.837   7.611   4.295
13011WAT      O39274   0.146   8.971   2.639
13011WAT     H139275   0.081   9.047   2.638
13011WAT     H239276   0.225   8.996   2.694
13012WAT      O39277   6.586   8.380   9.529
13012WAT     H139278   6.607   8.284   9.509
13012WAT     H239279   6.559   8.426   9.444
13013WAT      O39280   8.605   4.539   6.782
13013WAT     H139281   8.692   4.491   6.775
13013WAT     H239282   8.558   4.537   6.694
13014WAT      O39283   0.883   7.323   0.387
13014WAT     H139284   0.947   7.375   0.330
13014WAT     H239285   0.839   7.384   0.452
13015WAT      O39286   5.791   0.427   8.440
13015WAT     H139287   5.891   0.421   8.433
13015WAT     H239288   5.757   0.486   8.367
13016WAT      O39289   8.735   8.511   1.689
13016WAT     H139290   8.672   8.556   1.626
13016WAT     H239291   8.783   8.581   1.744
13017WAT      O39292   8.055   7.367   2.359
13017WAT     H139293   8.114   7.306   2.306
13017WAT     H239294   7.990   7.412   2.297
13018WAT      O39295   2.116   8.228   4.128
13018WAT     H139296   2.213   8.251   4.129
13018WAT     H239297   2.062   8.312   4.137
13019WAT      O39298   7.378   3.345   1.918
13019WAT     H139299   7.296   3.386   1.957
13019WAT     H239300   7.418   3.409   1.852
13020WAT      O39301   0.651   2.684   5.901
13020WAT     H139302   0.646   2.633   5.986
13020WAT     H239303   0.560   2.689   5.859
13021WAT      O39304   0.174   3.031   5.644
13021WAT     H139305   0.081   3.015   5.612
13021WAT     H239306   0.173   3.099   5.718
13022WAT      O39307   6.429   4.007   5.874
13022WAT     H139308   6.525   4.036   5.869
13022WAT     H239309   6.410   3.941   5.802
13023WAT      O39310   9.504   7.668   6.925
13023WAT     H139311   9.450   7.650   6.843
13023WAT     H239312   9.509   7.766   6.942
13024WAT      O39313   5.558   3.842   8.056
13024WAT     H139314   5.471   3.799   8.080
13024WAT     H239315   5.633   3.790   8.097
13025WAT      O39316   4.335   7.289   8.060
13025WAT     H139317   4.268   7.297   7.986
13025WAT     H239318   4.323   7.365   8.124
13026WAT      O39319   5.400   6.134   6.134
13026WAT     H139320   5.475   6.069   6.129
13026WAT     H239321   5.406   6.188   6.218
13027WAT      O39322   3.328   7.684   4.034
13027WAT     H139323   3.263   7.736   3.978
13027WAT     H239324   3.286   7.598   4.062
13028WAT      O39325   3.919   0.170   0.380
13028WAT     H139326   3.981   0.092   0.391
13028WAT     H239327   3.826   0.137   0.362
13029WAT      O39328   1.536   4.247   6.848
13029WAT     H139329   1.599   4.245   6.770
13029WAT     H239330   1.589   4.250   6.933
13030WAT      O39331   3.315   7.987   7.912
13030WAT     H139332   3.253   8.066   7.913
13030WAT     H239333   3.281   7.917   7.974
13031WAT      O39334   6.928   1.636   1.336
13031WAT     H139335   6.966   1.547   1.311
13031WAT     H239336   6.849   1.655   1.278
13032WAT      O39337   8.469   9.682   5.468
13032WAT     H139338   8.399   9.653   5.533
13032WAT     H239339   8.558   9.687   5.513
13033WAT      O39340   7.780   3.931   1.958
13033WAT     H139341   7.858   3.879   1.994
13033WAT     H239342   7.790   4.027   1.981
13034WAT      O39343   3.476   2.118   4.754
13034WAT     H139344   3.569   2.155   4.757
13034WAT     H239345   3.464   2.065   4.671
13035WAT      O39346   8.465   3.956   9.388
13035WAT     H139347   8.484   4.044   9.342
13035WAT     H239348   8.385   3.913   9.345
13036WAT      O39349   7.362   0.758   6.836
13036WAT     H139350   7.327   0.849   6.859
13036WAT     H239351   7.306   0.688   6.882
13037WAT      O39352   8.221   6.300   7.949
13037WAT     H139353   8.313   6.279   7.915
13037WAT     H239354   8.167   6.217   7.953
13038WAT      O39355   4.289   8.110   8.354
13038WAT     H139356   4.277   8.155   8.265
13038WAT     H239357   4.314   8.179   8.422
13039WAT      O39358   3.214   9.230   6.077
13039WAT     H139359   3.237   9.133   6.066
13039WAT     H239360   3.250   9.282   6.000
13040WAT      O39361   2.693   2.253   7.223
13040WAT     H139362   2.596   2.231   7.216
13040WAT     H239363   2.709   2.343   7.182
13041WAT      O39364   7.894   1.811   1.260
13041WAT     H139365   7.896   1.821   1.359
13041WAT     H239366   7.825   1.744   1.234
13042WAT      O39367   8.963   6.823   4.263
13042WAT     H139368   8.945   6.850   4.168
13042WAT     H239369   9.031   6.884   4.303
13043WAT      O39370   7.743   6.311   0.691
13043WAT     H139371   7.807   6.371   0.738
13043WAT     H239372   7.728   6.344   0.597
13044WAT      O39373   3.067   7.156   6.134
13044WAT     H139374   3.092   7.123   6.225
13044WAT     H239375   2.969   7.179   6.132
13045WAT      O39376   0.210   5.355   0.270
13045WAT     H139377   0.133   5.291   0.272
13045WAT     H239378   0.279   5.322   0.205
13046WAT      O39379   1.745   0.209   9.555
13046WAT     H139380   1.832   0.239   9.517
13046WAT     H239381   1.738   0.109   9.549
13047WAT      O39382   2.424   2.808   3.923
13047WAT     H139383   2.330   2.783   3.946
13047WAT     H239384   2.465   2.736   3.867
13048WAT      O39385   8.781   6.716   9.698
13048WAT     H139386   8.794   6.651   9.623
13048WAT     H239387   8.830   6.801   9.677
13049WAT      O39388   2.961   0.370   9.257
13049WAT     H139389   2.901   0.436   9.302
13049WAT     H239390   3.053   0.408   9.250
13050WAT      O39391   9.877   4.430   1.974
13050WAT     H139392   9.866   4.507   2.037
13050WAT     H239393   9.878   4.344   2.026
13051WAT      O39394   1.852   1.408   1.795
13051WAT     H139395   1.818   1.338   1.733
13051WAT     H239396   1.830   1.383   1.889
13052WAT      O39397   8.352   2.776   3.265
13052WAT     H139398   8.252   2.783   3.263
13052WAT     H239399   8.390   2.863   3.299
13053WAT      O39400   1.793   9.667   8.376
13053WAT     H139401   1.718   9.723   8.342
13053WAT     H239402   1.876   9.722   8.380
13054WAT      O39403   0.365   8.417   9.598
13054WAT     H139404   0.279   8.370   9.579
13054WAT     H239405   0.392   8.471   9.518
13055WAT      O39406   5.536   1.324   1.367
13055WAT     H139407   5.532   1.267   1.285
13055WAT     H239408   5.446   1.365   1.383
13056WAT      O39409   9.803   0.018   0.101
13056WAT     H139410   9.895  -0.008   0.131
13056WAT     H239411   9.797   0.118   0.099
13057WAT      O39412   0.921   3.770   6.024
13057WAT     H139413   0.839   3.715   6.039
13057WAT     H239414   0.946   3.816   6.109
13058WAT      O39415   5.727   7.107   2.571
13058WAT     H139416   5.667   7.151   2.505
13058WAT     H239417   5.717   7.152   2.660
13059WAT      O39418   6.356   8.311   3.106
13059WAT     H139419   6.396   8.378   3.169
13059WAT     H239420   6.285   8.354   3.051
13060WAT      O39421   9.511   6.310   7.262
13060WAT     H139422   9.442   6.247   7.227
13060WAT     H239423   9.602   6.279   7.234
13061WAT      O39424   1.634   4.873   3.975
13061WAT     H139425   1.547   4.919   3.954
13061WAT     H239426   1.624   4.774   3.958
13062WAT      O39427   1.033   5.755   4.689
13062WAT     H139428   1.091   5.830   4.656
13062WAT     H239429   1.081   5.668   4.680
13063WAT      O39430   0.005   2.364   7.229
13063WAT     H139431  -0.090   2.334   7.222
13063WAT     H239432   0.066   2.289   7.205
13064WAT      O39433   3.932   3.318   4.849
13064WAT     H139434   3.839   3.335   4.815
13064WAT     H239435   3.929   3.306   4.948
13065WAT      O39436   2.381   5.742   4.239
13065WAT     H139437   2.334   5.800   4.171
13065WAT     H239438   2.450   5.687   4.193
13066WAT      O39439   1.475   9.567   1.124
13066WAT     H139440   1.537   9.534   1.054
13066WAT     H239441   1.385   9.584   1.084
13067WAT      O39442   0.138   7.230   5.545
13067WAT     H139443   0.119   7.225   5.643
13067WAT     H239444   0.127   7.139   5.504
13068WAT      O39445   3.661   7.362   1.757
13068WAT     H139446   3.647   7.331   1.663
13068WAT     H239447   3.693   7.286   1.813
13069WAT      O39448   6.815   2.949   4.763
13069WAT     H139449   6.864   2.872   4.805
13069WAT     H239450   6.827   3.031   4.819
13070WAT      O39451   7.196   5.414   1.049
13070WAT     H139452   7.179   5.326   1.005
13070WAT     H239453   7.236   5.399   1.140
13071WAT      O39454   4.074   3.641   2.904
13071WAT     H139455   4.036   3.656   2.813
13071WAT     H239456   4.146   3.709   2.922
13072WAT      O39457   0.827   4.322   3.646
13072WAT     H139458   0.784   4.325   3.736
13072WAT     H239459   0.845   4.416   3.615
13073WAT      O39460   8.418   7.578   1.795
13073WAT     H139461   8.505   7.571   1.747
13073WAT     H239462   8.348   7.610   1.731
13074WAT      O39463   6.100   2.579   6.599
13074WAT     H139464   6.059   2.652   6.545
13074WAT     H239465   6.029   2.526   6.644
13075WAT      O39466   7.527   6.898   4.306
13075WAT     H139467   7.448   6.889   4.367
13075WAT     H239468   7.547   6.810   4.263
13076WAT      O39469   2.000   0.427   6.237
13076WAT     H139470   1.902   0.440   6.222
13076WAT     H239471   2.015   0.339   6.282
13077WAT      O39472   6.385   0.837   2.929
13077WAT     H139473   6.360   0.829   2.832
13077WAT     H239474   6.307   0.872   2.981
13078WAT      O39475   8.490   7.358   3.387
13078WAT     H139476   8.539   7.386   3.305
13078WAT     H239477   8.400   7.322   3.362
13079WAT      O39478   7.771   2.114   0.631
13079WAT     H139479   7.695   2.050   0.639
13079WAT     H239480   7.748   2.199   0.677
13080WAT      O39481   3.446   6.785   9.698
13080WAT     H139482   3.357   6.782   9.653
13080WAT     H239483   3.466   6.879   9.726
13081WAT      O39484   7.171   0.144   2.211
13081WAT     H139485   7.183   0.217   2.144
13081WAT     H239486   7.081   0.101   2.197
13082WAT      O39487   9.009   8.594   5.588
13082WAT     H139488   8.925   8.601   5.641
13082WAT     H239489   9.052   8.505   5.606
13083WAT      O39490   6.853   8.815   1.711
13083WAT     H139491   6.892   8.834   1.801
13083WAT     H239492   6.914   8.849   1.639
13084WAT      O39493   3.316   3.146   3.450
13084WAT     H139494   3.252   3.080   3.490
13084WAT     H239495   3.278   3.183   3.366
13085WAT      O39496   5.212   2.328   8.023
13085WAT     H139497   5.117   2.350   8.046
13085WAT     H239498   5.271   2.405   8.047
13086WAT      O39499   0.519   7.638   9.370
13086WAT     H139500   0.582   7.713   9.388
13086WAT     H239501   0.557   7.580   9.298
13087WAT      O39502   8.249   1.419   8.447
13087WAT     H139503   8.256   1.513   8.415
13087WAT     H239504   8.339   1.386   8.474
13088WAT      O39505   1.377   5.787   2.391
13088WAT     H139506   1.419   5.870   2.428
13088WAT     H239507   1.356   5.724   2.466
13089WAT      O39508   3.785   9.336   8.937
13089WAT     H139509   3.692   9.331   8.974
13089WAT     H239510   3.792   9.414   8.874
13090WAT      O39511   2.055   9.054   7.844
13090WAT     H139512   1.998   9.121   7.797
13090WAT     H239513   2.028   8.962   7.815
13091WAT      O39514   5.727   5.458   9.587
13091WAT     H139515   5.776   5.371   9.588
13091WAT     H239516   5.788   5.531   9.619
13092WAT      O39517   1.401   8.228   6.730
13092WAT     H139518   1.327   8.294   6.714
13092WAT     H239519   1.489   8.275   6.728
13093WAT      O39520   8.883   6.521   1.302
13093WAT     H139521   8.835   6.600   1.341
13093WAT     H239522   8.853   6.507   1.208
13094WAT      O39523   1.398   2.505   0.157
13094WAT     H139524   1.478   2.491   0.216
13094WAT     H239525   1.348   2.585   0.188
13095WAT      O39526   2.452   6.696   6.815
13095WAT     H139527   2.429   6.726   6.722
13095WAT     H239528   2.386   6.626   6.844
13096WAT      O39529   9.620   7.938   6.453
13096WAT     H139530   9.641   7.989   6.369
13096WAT     H239531   9.572   7.997   6.517
13097WAT      O39532   6.138   3.755   9.610
13097WAT     H139533   6.106   3.683   9.548
13097WAT     H239534   6.151   3.716   9.701
13098WAT      O39535   5.436   0.450   4.401
13098WAT     H139536   5.441   0.357   4.363
13098WAT     H239537   5.445   0.445   4.500
13099WAT      O39538   9.036   9.227   8.073
13099WAT     H139539   8.944   9.193   8.060
13099WAT     H239540   9.033   9.314   8.123
13100WAT      O39541   8.200   3.284   8.671
13100WAT     H139542   8.103   3.272   8.694
13100WAT     H239543   8.241   3.349   8.735
13101WAT      O39544   5.918   9.286   3.991
13101WAT     H139545   5.870   9.290   3.904
13101WAT     H239546   5.873   9.348   4.056
13102WAT      O39547   7.130   4.928   4.432
13102WAT     H139548   7.129   5.023   4.401
13102WAT     H239549   7.145   4.925   4.530
13103WAT      O39550   3.869   5.385   6.181
13103WAT     H139551   3.890   5.390   6.084
13103WAT     H239552   3.774   5.411   6.196
13104WAT      O39553   3.219   6.186   3.854
13104WAT     H139554   3.211   6.213   3.950
13104WAT     H239555   3.228   6.268   3.797
13105WAT      O39556   4.497   9.582   4.692
13105WAT     H139557   4.468   9.678   4.698
13105WAT     H239558   4.545   9.567   4.606
13106WAT      O39559   6.504   6.568   6.643
13106WAT     H139560   6.587   6.593   6.594
13106WAT     H239561   6.457   6.494   6.595
13107WAT      O39562   3.646   3.813   2.125
13107WAT     H139563   3.704   3.875   2.072
13107WAT     H239564   3.581   3.866   2.179
13108WAT      O39565   1.459   0.258   0.990
13108WAT     H139566   1.490   0.283   0.898
13108WAT     H239567   1.361   0.278   0.999
13109WAT      O39568   6.113   2.849   5.693
13109WAT     H139569   6.071   2.763   5.726
13109WAT     H239570   6.209   2.850   5.718
13110WAT      O39571   8.892   8.263   8.660
13110WAT     H139572   8.793   8.277   8.664
13110WAT     H239573   8.918   8.230   8.569
13111WAT      O39574   1.543   9.729   0.817
13111WAT     H139575   1.564   9.634   0.842
13111WAT     H239576   1.569   9.789   0.893
13112WAT      O39577   1.877   5.035   1.932
13112WAT     H139578   1.779   5.024   1.916
13112WAT     H239579   1.927   5.001   1.852
13113WAT      O39580   6.720   0.550   4.315
13113WAT     H139581   6.738   0.515   4.223
13113WAT     H239582   6.787   0.512   4.379
13114WAT      O39583   6.535   3.513   9.470
13114WAT     H139584   6.581   3.560   9.546
13114WAT     H239585   6.456   3.462   9.506
13115WAT      O39586   4.967   1.995   3.775
13115WAT     H139587   5.005   1.903   3.783
13115WAT     H239588   5.001   2.052   3.850
13116WAT      O39589   6.770   0.623   2.937
13116WAT     H139590   6.684   0.604   2.984
13116WAT     H239591   6.847   0.598   2.997
13117WAT      O39592   4.659   2.562   0.655
13117WAT     H139593   4.638   2.641   0.597
13117WAT     H239594   4.589   2.551   0.725
13118WAT      O39595   4.703   4.293   2.037
13118WAT     H139596   4.694   4.378   2.090
13118WAT     H239597   4.748   4.224   2.094
13119WAT      O39598   9.759   7.107   1.265
13119WAT     H139599   9.765   7.029   1.202
13119WAT     H239600   9.801   7.082   1.352
13120WAT      O39601   2.998   8.971   3.995
13120WAT     H139602   3.083   9.005   3.955
13120WAT     H239603   2.981   8.878   3.963
13121WAT      O39604   2.227   3.953   8.558
13121WAT     H139605   2.211   3.856   8.538
13121WAT     H239606   2.156   3.986   8.621
13122WAT      O39607   3.307   1.019   0.135
13122WAT     H139608   3.387   1.032   0.075
13122WAT     H239609   3.230   0.985   0.081
13123WAT      O39610   1.788   6.604   1.911
13123WAT     H139611   1.879   6.638   1.935
13123WAT     H239612   1.739   6.579   1.994
13124WAT      O39613   1.943   1.716   5.835
13124WAT     H139614   1.853   1.750   5.806
13124WAT     H239615   1.932   1.630   5.883
13125WAT      O39616   0.535   0.882   8.669
13125WAT     H139617   0.592   0.820   8.724
13125WAT     H239618   0.591   0.957   8.635
13126WAT      O39619   7.972   0.520   6.435
13126WAT     H139620   7.939   0.513   6.341
13126WAT     H239621   8.013   0.610   6.449
13127WAT      O39622   5.126   2.543   2.494
13127WAT     H139623   5.038   2.591   2.487
13127WAT     H239624   5.163   2.556   2.586
13128WAT      O39625   0.957   7.983   2.487
13128WAT     H139626   0.966   7.895   2.442
13128WAT     H239627   0.945   7.970   2.585
13129WAT      O39628   9.842   8.851   3.265
13129WAT     H139629   9.929   8.887   3.301
13129WAT     H239630   9.779   8.835   3.342
13130WAT      O39631   7.821   5.512   0.872
13130WAT     H139632   7.847   5.606   0.849
13130WAT     H239633   7.730   5.513   0.914
13131WAT      O39634   3.937   3.803   9.711
13131WAT     H139635   4.001   3.737   9.748
13131WAT     H239636   3.899   3.768   9.625
13132WAT      O39637   0.423   3.454   3.116
13132WAT     H139638   0.330   3.489   3.105
13132WAT     H239639   0.450   3.406   3.033
13133WAT      O39640   7.964   7.651   3.725
13133WAT     H139641   7.959   7.721   3.654
13133WAT     H239642   8.019   7.574   3.691
13134WAT      O39643   9.217   0.255   7.779
13134WAT     H139644   9.128   0.226   7.816
13134WAT     H239645   9.251   0.334   7.830
13135WAT      O39646   6.258   1.326   2.142
13135WAT     H139647   6.236   1.312   2.045
13135WAT     H239648   6.355   1.307   2.158
13136WAT      O39649   8.175   3.797   1.124
13136WAT     H139650   8.193   3.710   1.170
13136WAT     H239651   8.106   3.848   1.175
13137WAT      O39652   3.075   3.558   8.294
13137WAT     H139653   3.016   3.629   8.257
13137WAT     H239654   3.152   3.599   8.342
13138WAT      O39655   1.693   5.879   8.896
13138WAT     H139656   1.613   5.820   8.907
13138WAT     H239657   1.669   5.956   8.837
13139WAT      O39658   6.035   9.534   3.938
13139WAT     H139659   6.115   9.543   3.998
13139WAT     H239660   6.015   9.437   3.923
13140WAT      O39661   5.416   7.990   5.041
13140WAT     H139662   5.377   8.080   5.019
13140WAT     H239663   5.380   7.959   5.129
13141WAT      O39664   9.427   7.615   5.479
13141WAT     H139665   9.524   7.592   5.480
13141WAT     H239666   9.374   7.537   5.514
13142WAT      O39667   3.965   8.049   1.965
13142WAT     H139668   3.919   7.965   1.938
13142WAT     H239669   3.910   8.097   2.034
13143WAT      O39670   0.497   9.287   1.403
13143WAT     H139671   0.527   9.361   1.343
13143WAT     H239672   0.514   9.199   1.359
13144WAT      O39673   0.863   2.612   3.336
13144WAT     H139674   0.807   2.625   3.417
13144WAT     H239675   0.819   2.546   3.275
13145WAT      O39676   5.302   8.763   6.408
13145WAT     H139677   5.221   8.784   6.353
13145WAT     H239678   5.369   8.837   6.399
13146WAT      O39679   9.495   3.896   4.908
13146WAT     H139680   9.465   3.853   4.823
13146WAT     H239681   9.416   3.936   4.955
13147WAT      O39682   8.136   0.819   1.390
13147WAT     H139683   8.137   0.913   1.356
13147WAT     H239684   8.075   0.764   1.333
13148WAT      O39685   6.824   0.198   5.621
13148WAT     H139686   6.886   0.239   5.688
13148WAT     H239687   6.816   0.259   5.542
13149WAT      O39688   6.674   6.899   9.487
13149WAT     H139689   6.603   6.898   9.417
13149WAT     H239690   6.683   6.808   9.527
13150WAT      O39691   2.129   2.485   8.177
13150WAT     H139692   2.118   2.407   8.238
13150WAT     H239693   2.039   2.522   8.152
13151WAT      O39694   6.773   4.948   4.966
13151WAT     H139695   6.691   4.893   4.952
13151WAT     H239696   6.752   5.044   4.949
13152WAT      O39697   0.918   6.289   3.198
13152WAT     H139698   0.960   6.354   3.135
13152WAT     H239699   0.832   6.326   3.232
13153WAT      O39700   7.215   5.885   3.916
13153WAT     H139701   7.124   5.914   3.885
13153WAT     H239702   7.215   5.786   3.929
13154WAT      O39703   4.619   9.614   8.649
13154WAT     H139704   4.663   9.602   8.738
13154WAT     H239705   4.611   9.526   8.604
13155WAT      O39706   1.773   2.680   5.239
13155WAT     H139707   1.811   2.655   5.150
13155WAT     H239708   1.810   2.620   5.309
13156WAT      O39709   1.314   4.127   4.217
13156WAT     H139710   1.332   4.029   4.230
13156WAT     H239711   1.301   4.171   4.305
13157WAT      O39712   0.092   1.193   9.119
13157WAT     H139713   0.103   1.292   9.125
13157WAT     H239714   0.151   1.157   9.047
13158WAT      O39715   2.440   7.779   2.587
13158WAT     H139716   2.522   7.729   2.615
13158WAT     H239717   2.449   7.805   2.491
13159WAT      O39718   4.047   5.795   0.783
13159WAT     H139719   3.973   5.779   0.718
13159WAT     H239720   4.025   5.875   0.839
13160WAT      O39721   2.906   4.539   6.016
13160WAT     H139722   2.897   4.440   6.020
13160WAT     H239723   2.960   4.571   6.094
13161WAT      O39724   0.151   7.254   2.355
13161WAT     H139725   0.204   7.185   2.406
13161WAT     H239726   0.214   7.311   2.302
13162WAT      O39727   6.820   5.777   6.661
13162WAT     H139728   6.871   5.790   6.576
13162WAT     H239729   6.780   5.685   6.661
13163WAT      O39730   6.664   7.034   1.722
13163WAT     H139731   6.698   6.959   1.664
13163WAT     H239732   6.702   7.024   1.814
13164WAT      O39733   2.749   9.336   7.428
13164WAT     H139734   2.809   9.258   7.407
13164WAT     H239735   2.659   9.302   7.454
13165WAT      O39736   8.300   1.707   8.394
13165WAT     H139737   8.254   1.773   8.334
13165WAT     H239738   8.286   1.734   8.490
13166WAT      O39739   6.428   4.771   0.073
13166WAT     H139740   6.364   4.786  -0.003
13166WAT     H239741   6.455   4.675   0.075
13167WAT      O39742   8.594   0.091   5.902
13167WAT     H139743   8.589   0.000   5.943
13167WAT     H239744   8.531   0.153   5.949
13168WAT      O39745   8.243   1.805   9.453
13168WAT     H139746   8.298   1.822   9.372
13168WAT     H239747   8.169   1.873   9.458
13169WAT      O39748   9.669   4.044   1.256
13169WAT     H139749   9.603   4.001   1.195
13169WAT     H239750   9.721   4.113   1.205
13170WAT      O39751   7.137   2.392   3.703
13170WAT     H139752   7.121   2.366   3.798
13170WAT     H239753   7.182   2.317   3.656
13171WAT      O39754   0.793   7.402   1.924
13171WAT     H139755   0.790   7.399   1.824
13171WAT     H239756   0.846   7.482   1.953
13172WAT      O39757   5.128   7.404   2.955
13172WAT     H139758   5.212   7.405   2.901
13172WAT     H239759   5.150   7.386   3.051
13173WAT      O39760   0.917   8.007   8.205
13173WAT     H139761   0.897   8.083   8.267
13173WAT     H239762   1.012   7.979   8.217
13174WAT      O39763   9.220   2.212   2.927
13174WAT     H139764   9.276   2.138   2.890
13174WAT     H239765   9.278   2.279   2.972
13175WAT      O39766   1.026   4.036   5.540
13175WAT     H139767   0.932   4.025   5.572
13175WAT     H239768   1.028   4.035   5.440
13176WAT      O39769   3.131   9.606   0.555
13176WAT     H139770   3.150   9.566   0.466
13176WAT     H239771   3.216   9.610   0.609
13177WAT      O39772   6.362   1.079   6.765
13177WAT     H139773   6.276   1.078   6.816
13177WAT     H239774   6.381   0.988   6.729
13178WAT      O39775   2.262   9.144   0.798
13178WAT     H139776   2.281   9.211   0.726
13178WAT     H239777   2.348   9.113   0.839
13179WAT      O39778   2.922   6.333   2.461
13179WAT     H139779   2.923   6.432   2.466
13179WAT     H239780   2.906   6.304   2.366
13180WAT      O39781   9.819   1.563   7.577
13180WAT     H139782   9.735   1.614   7.592
13180WAT     H239783   9.799   1.478   7.530
13181WAT      O39784   9.794   7.633   6.074
13181WAT     H139785   9.696   7.648   6.071
13181WAT     H239786   9.823   7.618   6.169
13182WAT      O39787   8.834   6.481   6.967
13182WAT     H139788   8.859   6.553   7.031
13182WAT     H239789   8.783   6.520   6.890
13183WAT      O39790   1.131   3.419   3.022
13183WAT     H139791   1.157   3.485   3.093
13183WAT     H239792   1.198   3.421   2.948
13184WAT      O39793   8.093   1.444   5.042
13184WAT     H139794   8.128   1.352   5.057
13184WAT     H239795   8.071   1.456   4.945
13185WAT      O39796   0.169   6.912   7.675
13185WAT     H139797   0.183   6.822   7.634
13185WAT     H239798   0.254   6.945   7.714
13186WAT      O39799   8.437   9.519   2.391
13186WAT     H139800   8.373   9.571   2.334
13186WAT     H239801   8.473   9.577   2.463
13187WAT      O39802   9.071   1.178   3.233
13187WAT     H139803   9.059   1.275   3.212
13187WAT     H239804   9.124   1.135   3.160
13188WAT      O39805   5.388   2.533   3.590
13188WAT     H139806   5.393   2.503   3.685
13188WAT     H239807   5.318   2.480   3.542
13189WAT      O39808   6.152   1.070   5.601
13189WAT     H139809   6.080   1.113   5.656
13189WAT     H239810   6.241   1.089   5.641
13190WAT      O39811   5.245   2.711   9.644
13190WAT     H139812   5.161   2.707   9.698
13190WAT     H239813   5.296   2.626   9.655
13191WAT      O39814   6.564   9.392   3.994
13191WAT     H139815   6.561   9.396   4.093
13191WAT     H239816   6.507   9.317   3.961
13192WAT      O39817   4.722   8.680   1.626
13192WAT     H139818   4.691   8.660   1.533
13192WAT     H239819   4.754   8.596   1.670
13193WAT      O39820   3.476   3.613   7.252
13193WAT     H139821   3.460   3.586   7.157
13193WAT     H239822   3.437   3.703   7.268
13194WAT      O39823   9.315   1.059   2.050
13194WAT     H139824   9.254   1.074   2.127
13194WAT     H239825   9.408   1.087   2.075
13195WAT      O39826   2.787   2.813   5.097
13195WAT     H139827   2.733   2.884   5.142
13195WAT     H239828   2.862   2.785   5.158
13196WAT      O39829   1.662   6.278   6.903
13196WAT     H139830   1.698   6.327   6.982
13196WAT     H239831   1.563   6.269   6.912
13197WAT      O39832   9.141   9.101   2.790
13197WAT     H139833   9.143   9.195   2.824
13197WAT     H239834   9.047   9.075   2.768
13198WAT      O39835   6.734   6.901   0.279
13198WAT     H139836   6.707   6.918   0.184
13198WAT     H239837   6.655   6.915   0.339
13199WAT      O39838   7.704   8.589   1.299
13199WAT     H139839   7.760   8.583   1.382
13199WAT     H239840   7.688   8.685   1.276
13200WAT      O39841   8.820   8.399   4.277
13200WAT     H139842   8.876   8.326   4.316
13200WAT     H239843   8.879   8.474   4.247
13201WAT      O39844   3.290   9.171   4.599
13201WAT     H139845   3.281   9.154   4.501
13201WAT     H239846   3.256   9.263   4.621
13202WAT      O39847   7.910   6.506   1.638
13202WAT     H139848   7.920   6.601   1.667
13202WAT     H239849   7.999   6.459   1.645
13203WAT      O39850   4.826   3.470   7.195
13203WAT     H139851   4.741   3.429   7.161
13203WAT     H239852   4.884   3.496   7.118
13204WAT      O39853   0.916   7.010   1.589
13204WAT     H139854   0.869   7.068   1.523
13204WAT     H239855   0.853   6.987   1.664
13205WAT      O39856   9.761   5.257   0.907
13205WAT     H139857   9.835   5.295   0.851
13205WAT     H239858   9.797   5.233   0.998
13206WAT      O39859   2.564   9.639   9.408
13206WAT     H139860   2.535   9.549   9.440
13206WAT     H239861   2.664   9.644   9.409
13207WAT      O39862   6.021   7.476   5.361
13207WAT     H139863   5.994   7.458   5.456
13207WAT     H239864   5.962   7.547   5.323
13208WAT      O39865   5.642   9.404   0.558
13208WAT     H139866   5.563   9.412   0.619
13208WAT     H239867   5.620   9.444   0.470
13209WAT      O39868   5.102   5.441   2.343
13209WAT     H139869   5.124   5.409   2.435
13209WAT     H239870   5.187   5.467   2.296
13210WAT      O39871   9.085   3.793   5.449
13210WAT     H139872   9.049   3.779   5.357
13210WAT     H239873   9.050   3.722   5.510
13211WAT      O39874   6.936   7.044   0.967
13211WAT     H139875   6.860   6.987   0.998
13211WAT     H239876   6.916   7.079   0.875
13212WAT      O39877   1.907   0.934   2.321
13212WAT     H139878   1.871   0.861   2.378
13212WAT     H239879   1.832   0.996   2.296
13213WAT      O39880   2.346   3.214   0.994
13213WAT     H139881   2.398   3.172   0.920
13213WAT     H239882   2.386   3.302   1.019
13214WAT      O39883   3.593   2.796   2.880
13214WAT     H139884   3.522   2.737   2.840
13214WAT     H239885   3.675   2.792   2.824
13215WAT      O39886   6.144   8.784   9.309
13215WAT     H139887   6.109   8.761   9.218
13215WAT     H239888   6.104   8.871   9.339
13216WAT      O39889   2.776   0.021   1.293
13216WAT     H139890   2.689  -0.026   1.280
13216WAT     H239891   2.781   0.058   1.385
13217WAT      O39892   3.979   4.790   7.875
13217WAT     H139893   4.013   4.816   7.784
13217WAT     H239894   3.880   4.805   7.878
13218WAT      O39895   9.161   1.116   8.752
13218WAT     H139896   9.195   1.025   8.726
13218WAT     H239897   9.061   1.116   8.751
13219WAT      O39898   4.666   4.344   1.281
13219WAT     H139899   4.647   4.260   1.331
13219WAT     H239900   4.765   4.359   1.277
13220WAT      O39901   8.564   4.254   1.017
13220WAT     H139902   8.569   4.298   0.928
13220WAT     H239903   8.497   4.180   1.014
13221WAT      O39904   6.216   3.108   1.202
13221WAT     H139905   6.215   3.041   1.128
13221WAT     H239906   6.292   3.171   1.189
13222WAT      O39907   2.345   2.608   8.356
13222WAT     H139908   2.339   2.579   8.451
13222WAT     H239909   2.320   2.532   8.296
13223WAT      O39910   1.631   7.660   5.269
13223WAT     H139911   1.607   7.750   5.232
13223WAT     H239912   1.548   7.608   5.288
13224WAT      O39913   4.436   7.137   1.633
13224WAT     H139914   4.396   7.049   1.607
13224WAT     H239915   4.531   7.141   1.602
13225WAT      O39916   3.985   0.573   6.895
13225WAT     H139917   3.994   0.474   6.882
13225WAT     H239918   4.014   0.597   6.988
13226WAT      O39919   7.852   2.403   7.745
13226WAT     H139920   7.929   2.349   7.778
13226WAT     H239921   7.851   2.405   7.645
13227WAT      O39922   8.382   1.785   9.190
13227WAT     H139923   8.339   1.852   9.130
13227WAT     H239924   8.481   1.787   9.176
13228WAT      O39925   2.664   4.617   9.114
13228WAT     H139926   2.610   4.544   9.073
13228WAT     H239927   2.755   4.620   9.071
13229WAT      O39928   3.443   3.917   4.584
13229WAT     H139929   3.391   3.990   4.539
13229WAT     H239930   3.381   3.859   4.637
13230WAT      O39931   5.391   1.799   4.049
13230WAT     H139932   5.397   1.717   3.993
13230WAT     H239933   5.433   1.782   4.138
13231WAT      O39934   0.234   4.478   9.640
13231WAT     H139935   0.179   4.402   9.605
13231WAT     H239936   0.272   4.453   9.729
13232WAT      O39937   3.256   1.812   7.765
13232WAT     H139938   3.264   1.903   7.806
13232WAT     H239939   3.185   1.814   7.695
13233WAT      O39940   7.606   0.952   0.908
13233WAT     H139941   7.604   0.874   0.845
13233WAT     H239942   7.679   0.939   0.975
13234WAT      O39943   7.914   4.651   1.621
13234WAT     H139944   7.847   4.726   1.615
13234WAT     H239945   7.866   4.566   1.643
13235WAT      O39946   4.969   2.295   2.550
13235WAT     H139947   4.916   2.297   2.635
13235WAT     H239948   5.012   2.384   2.536
13236WAT      O39949   3.919   7.308   7.603
13236WAT     H139950   3.874   7.260   7.678
13236WAT     H239951   3.929   7.245   7.525
13237WAT      O39952   1.308   3.171   0.687
13237WAT     H139953   1.230   3.116   0.715
13237WAT     H239954   1.283   3.228   0.609
13238WAT      O39955   3.818   9.348   5.142
13238WAT     H139956   3.777   9.311   5.225
13238WAT     H239957   3.747   9.384   5.082
13239WAT      O39958   5.560   0.240   1.815
13239WAT     H139959   5.461   0.238   1.829
13239WAT     H239960   5.579   0.257   1.718
13240WAT      O39961   6.726   0.379   1.528
13240WAT     H139962   6.800   0.350   1.467
13240WAT     H239963   6.702   0.474   1.508
13241WAT      O39964   7.087   8.100   1.630
13241WAT     H139965   7.015   8.118   1.698
13241WAT     H239966   7.174   8.137   1.662
13242WAT      O39967   8.469   9.178   6.707
13242WAT     H139968   8.383   9.129   6.698
13242WAT     H239969   8.477   9.245   6.633
13243WAT      O39970   0.259   3.686   9.024
13243WAT     H139971   0.179   3.628   9.010
13243WAT     H239972   0.337   3.648   8.975
13244WAT      O39973   5.775   4.254   9.382
13244WAT     H139974   5.818   4.245   9.472
13244WAT     H239975   5.749   4.163   9.348
13245WAT      O39976   1.831   4.763   3.086
13245WAT     H139977   1.852   4.799   3.177
13245WAT     H239978   1.805   4.839   3.026
13246WAT      O39979   7.505   1.486   5.837
13246WAT     H139980   7.511   1.545   5.757
13246WAT     H239981   7.494   1.391   5.808
13247WAT      O39982   7.554   8.383   1.419
13247WAT     H139983   7.613   8.337   1.485
13247WAT     H239984   7.603   8.461   1.380
13248WAT      O39985   7.707   7.536   5.517
13248WAT     H139986   7.776   7.595   5.475
13248WAT     H239987   7.744   7.495   5.601
13249WAT      O39988   5.267   3.248   8.129
13249WAT     H139989   5.359   3.282   8.111
13249WAT     H239990   5.258   3.156   8.091
13250WAT      O39991   1.735   5.086   8.163
13250WAT     H139992   1.649   5.040   8.187
13250WAT     H239993   1.735   5.178   8.204
13251WAT      O39994   2.974   8.433   5.966
13251WAT     H139995   3.005   8.519   6.006
13251WAT     H239996   2.886   8.407   6.007
13252WAT      O39997   8.629   3.950   9.014
13252WAT     H139998   8.540   3.987   9.038
13252WAT     H239999   8.666   4.000   8.936
13253WAT      O40000   9.752   8.595   1.722
13253WAT     H140001   9.799   8.642   1.648
13253WAT     H240002   9.818   8.565   1.790
13254WAT      O40003   9.282   8.125   3.900
13254WAT     H140004   9.268   8.114   3.998
13254WAT     H240005   9.333   8.209   3.882
13255WAT      O40006   8.291   3.653   2.783
13255WAT     H140007   8.211   3.594   2.794
13255WAT     H240008   8.367   3.600   2.746
13256WAT      O40009   0.550   9.461   1.219
13256WAT     H140010   0.535   9.473   1.121
13256WAT     H240011   0.577   9.548   1.260
13257WAT      O40012   4.731   2.835   8.364
13257WAT     H140013   4.725   2.902   8.290
13257WAT     H240014   4.648   2.840   8.420
13258WAT      O40015   2.584   2.827   9.794
13258WAT     H140016   2.633   2.843   9.879
13258WAT     H240017   2.647   2.792   9.725
13259WAT      O40018   1.581   0.726   8.767
13259WAT     H140019   1.485   0.702   8.784
13259WAT     H240020   1.597   0.728   8.668
13260WAT      O40021   9.030   9.428   5.415
13260WAT     H140022   9.106   9.433   5.480
13260WAT     H240023   8.943   9.438   5.464
13261WAT      O40024   3.823   9.300   4.750
13261WAT     H140025   3.877   9.381   4.770
13261WAT     H240026   3.726   9.321   4.761
13262WAT      O40027   1.588   6.393   0.936
13262WAT     H140028   1.560   6.412   1.030
13262WAT     H240029   1.687   6.391   0.930
13263WAT      O40030   1.841   0.355   3.785
13263WAT     H140031   1.921   0.301   3.758
13263WAT     H240032   1.835   0.357   3.885
13264WAT      O40033   3.881   0.714   4.772
13264WAT     H140034   3.849   0.632   4.819
13264WAT     H240035   3.967   0.695   4.725
13265WAT      O40036   6.599   2.387   0.537
13265WAT     H140037   6.504   2.392   0.570
13265WAT     H240038   6.659   2.429   0.604
13266WAT      O40039   0.032   2.682   8.289
13266WAT     H140040   0.086   2.766   8.279
13266WAT     H240041  -0.035   2.677   8.215
13267WAT      O40042   3.834   2.585   3.470
13267WAT     H140043   3.893   2.547   3.541
13267WAT     H240044   3.886   2.593   3.385
13268WAT      O40045   0.007   1.236   4.362
13268WAT     H140046   0.049   1.199   4.279
13268WAT     H240047   0.041   1.186   4.442
13269WAT      O40048   3.621   8.823   0.442
13269WAT     H140049   3.690   8.804   0.512
13269WAT     H240050   3.553   8.888   0.478
13270WAT      O40051   5.159   3.203   4.061
13270WAT     H140052   5.071   3.232   4.024
13270WAT     H240053   5.205   3.143   3.996
13271WAT      O40054   3.137   4.116   1.903
13271WAT     H140055   3.113   4.211   1.882
13271WAT     H240056   3.232   4.113   1.935
13272WAT      O40057   0.106   0.363   7.031
13272WAT     H140058   0.134   0.268   7.013
13272WAT     H240059   0.172   0.405   7.093
13273WAT      O40060   5.019   1.597   1.089
13273WAT     H140061   5.067   1.670   1.041
13273WAT     H240062   5.084   1.525   1.115
13274WAT      O40063   2.055   2.272   0.849
13274WAT     H140064   2.140   2.220   0.843
13274WAT     H240065   2.028   2.302   0.758
13275WAT      O40066   9.547   8.004   5.769
13275WAT     H140067   9.632   7.984   5.722
13275WAT     H240068   9.482   7.930   5.753
13276WAT      O40069   7.108   7.641   0.490
13276WAT     H140070   7.145   7.714   0.432
13276WAT     H240071   7.028   7.675   0.539
13277WAT      O40072   0.400   1.673   6.143
13277WAT     H140073   0.474   1.645   6.205
13277WAT     H240074   0.325   1.712   6.196
13278WAT      O40075   3.660   9.469   2.777
13278WAT     H140076   3.608   9.535   2.722
13278WAT     H240077   3.737   9.516   2.820
13279WAT      O40078   6.139   8.034   2.996
13279WAT     H140079   6.142   8.080   3.085
13279WAT     H240080   6.193   7.950   3.000
13280WAT      O40081   4.740   6.250   6.531
13280WAT     H140082   4.664   6.194   6.565
13280WAT     H240083   4.735   6.257   6.431
13281WAT      O40084   1.124   0.157   7.012
13281WAT     H140085   1.074   0.209   7.081
13281WAT     H240086   1.086   0.179   6.921
13282WAT      O40087   9.578   5.369   1.473
13282WAT     H140088   9.506   5.344   1.539
13282WAT     H240089   9.667   5.369   1.519
13283WAT      O40090   4.827   0.887   0.387
13283WAT     H140091   4.872   0.900   0.298
13283WAT     H240092   4.853   0.798   0.424
13284WAT      O40093   7.910   3.477   3.554
13284WAT     H140094   7.947   3.426   3.632
13284WAT     H240095   7.980   3.537   3.517
13285WAT      O40096   5.719   0.087   2.299
13285WAT     H140097   5.724   0.098   2.200
13285WAT     H240098   5.626   0.110   2.330
13286WAT      O40099   2.414   9.156   7.016
13286WAT     H140100   2.412   9.092   6.939
13286WAT     H240101   2.321   9.172   7.049
13287WAT      O40102   3.254   5.615   7.094
13287WAT     H140103   3.271   5.711   7.073
13287WAT     H240104   3.338   5.563   7.082
13288WAT      O40105   0.204   5.261   4.924
13288WAT     H140106   0.140   5.190   4.952
13288WAT     H240107   0.296   5.235   4.954
13289WAT      O40108   4.133   1.669   8.580
13289WAT     H140109   4.137   1.769   8.580
13289WAT     H240110   4.100   1.636   8.492
13290WAT      O40111   6.106   1.004   5.189
13290WAT     H140112   6.040   1.055   5.135
13290WAT     H240113   6.180   1.066   5.218
13291WAT      O40114   3.741   5.380   2.018
13291WAT     H140115   3.656   5.345   2.056
13291WAT     H240116   3.763   5.331   1.934
13292WAT      O40117   6.913   6.993   9.130
13292WAT     H140118   6.830   6.983   9.184
13292WAT     H240119   6.989   6.950   9.178
13293WAT      O40120   1.548   9.792   4.548
13293WAT     H140121   1.523   9.765   4.455
13293WAT     H240122   1.633   9.844   4.546
13294WAT      O40123   4.222   9.059   2.404
13294WAT     H140124   4.231   8.972   2.453
13294WAT     H240125   4.312   9.089   2.372
13295WAT      O40126   3.655   3.090   4.761
13295WAT     H140127   3.687   3.184   4.751
13295WAT     H240128   3.728   3.027   4.735
13296WAT      O40129   9.832   7.363   5.374
13296WAT     H140130   9.823   7.380   5.276
13296WAT     H240131   9.926   7.336   5.394
13297WAT      O40132   6.737   0.335   1.787
13297WAT     H140133   6.680   0.384   1.852
13297WAT     H240134   6.715   0.365   1.694
13298WAT      O40135   5.720   7.015   7.314
13298WAT     H140136   5.717   7.115   7.310
13298WAT     H240137   5.654   6.977   7.249
13299WAT      O40138   4.228   2.492   3.166
13299WAT     H140139   4.248   2.508   3.069
13299WAT     H240140   4.157   2.422   3.174
13300WAT      O40141   1.571   5.133   7.401
13300WAT     H140142   1.483   5.089   7.382
13300WAT     H240143   1.644   5.084   7.353
13301WAT      O40144   0.512   1.863   2.616
13301WAT     H140145   0.468   1.939   2.569
13301WAT     H240146   0.514   1.880   2.714
13302WAT      O40147   3.799   1.624   0.294
13302WAT     H140148   3.737   1.574   0.354
13302WAT     H240149   3.817   1.571   0.212
13303WAT      O40150   0.735   4.470   1.745
13303WAT     H140151   0.817   4.512   1.707
13303WAT     H240152   0.680   4.540   1.791
13304WAT      O40153   4.725   7.265   4.346
13304WAT     H140154   4.627   7.245   4.357
13304WAT     H240155   4.752   7.335   4.413
13305WAT      O40156   6.491   8.642   7.354
13305WAT     H140157   6.520   8.595   7.437
13305WAT     H240158   6.523   8.591   7.274
13306WAT      O40159   0.331   9.212   8.704
13306WAT     H140160   0.408   9.164   8.661
13306WAT     H240161   0.321   9.182   8.799
13307WAT      O40162   5.589   5.786   8.099
13307WAT     H140163   5.588   5.817   8.194
13307WAT     H240164   5.625   5.693   8.094
13308WAT      O40165   7.801   2.956   5.836
13308WAT     H140166   7.713   3.004   5.846
13308WAT     H240167   7.866   3.016   5.790
13309WAT      O40168   2.386   1.602   0.223
13309WAT     H140169   2.450   1.605   0.146
13309WAT     H240170   2.313   1.668   0.207
13310WAT      O40171   0.038   6.660   0.432
13310WAT     H140172   0.102   6.673   0.357
13310WAT     H240173   0.030   6.745   0.485
13311WAT      O40174   0.912   0.505   3.644
13311WAT     H140175   0.823   0.468   3.673
13311WAT     H240176   0.967   0.527   3.725
13312WAT      O40177   6.527   2.404   5.133
13312WAT     H140178   6.596   2.464   5.093
13312WAT     H240179   6.543   2.310   5.103
13313WAT      O40180   2.679   8.597   9.080
13313WAT     H140181   2.602   8.593   9.016
13313WAT     H240182   2.711   8.505   9.100
13314WAT      O40183   8.976   0.080   6.867
13314WAT     H140184   9.049   0.022   6.830
13314WAT     H240185   8.922   0.118   6.792
13315WAT      O40186   3.217   0.161   7.266
13315WAT     H140187   3.283   0.170   7.341
13315WAT     H240188   3.264   0.132   7.183
13316WAT      O40189   3.585   9.490   9.468
13316WAT     H140190   3.628   9.528   9.549
13316WAT     H240191   3.485   9.494   9.478
13317WAT      O40192   8.920   5.503   0.547
13317WAT     H140193   9.009   5.466   0.572
13317WAT     H240194   8.927   5.601   0.529
13318WAT      O40195   0.889   9.116   2.553
13318WAT     H140196   0.905   9.204   2.598
13318WAT     H240197   0.954   9.106   2.478
13319WAT      O40198   6.760   0.769   2.096
13319WAT     H140199   6.709   0.853   2.080
13319WAT     H240200   6.858   0.788   2.093
13320WAT      O40201   5.002   2.438   9.816
13320WAT     H140202   4.946   2.401   9.891
13320WAT     H240203   5.085   2.383   9.807
13321WAT      O40204   4.642   3.656   0.784
13321WAT     H140205   4.638   3.707   0.698
13321WAT     H240206   4.610   3.713   0.859
13322WAT      O40207   5.005   6.911   5.582
13322WAT     H140208   5.039   6.904   5.676
13322WAT     H240209   5.047   6.990   5.537
13323WAT      O40210   4.645   6.374   0.138
13323WAT     H140211   4.565   6.389   0.196
13323WAT     H240212   4.694   6.460   0.125
13324WAT      O40213   3.511   1.647   5.652
13324WAT     H140214   3.487   1.577   5.584
13324WAT     H240215   3.445   1.645   5.727
13325WAT      O40216   2.885   1.107   2.392
13325WAT     H140217   2.920   1.074   2.479
13325WAT     H240218   2.945   1.076   2.318
13326WAT      O40219   1.473   8.183   6.417
13326WAT     H140220   1.406   8.119   6.456
13326WAT     H240221   1.492   8.156   6.323
13327WAT      O40222   2.148   3.348   6.179
13327WAT     H140223   2.095   3.417   6.129
13327WAT     H240224   2.111   3.338   6.272
13328WAT      O40225   8.655   2.467   5.524
13328WAT     H140226   8.603   2.540   5.569
13328WAT     H240227   8.731   2.440   5.583
13329WAT      O40228   0.687   0.397   4.107
13329WAT     H140229   0.719   0.463   4.039
13329WAT     H240230   0.755   0.325   4.119
13330WAT      O40231   5.563   4.349   0.110
13330WAT     H140232   5.656   4.317   0.093
13330WAT     H240233   5.519   4.291   0.178
13331WAT      O40234   8.903   0.591   5.326
13331WAT     H140235   8.835   0.523   5.352
13331WAT     H240236   8.863   0.654   5.259
13332WAT      O40237   2.690   4.863   3.085
13332WAT     H140238   2.677   4.802   3.007
13332WAT     H240239   2.763   4.928   3.066
13333WAT      O40240   6.068   0.373   6.781
13333WAT     H140241   5.980   0.385   6.735
13333WAT     H240242   6.130   0.320   6.722
13334WAT      O40243   4.657   8.710   4.946
13334WAT     H140244   4.750   8.693   4.915
13334WAT     H240245   4.597   8.638   4.912
13335WAT      O40246   5.438   7.752   1.285
13335WAT     H140247   5.412   7.713   1.373
13335WAT     H240248   5.362   7.744   1.221
13336WAT      O40249   5.966   7.159   0.949
13336WAT     H140250   5.934   7.229   0.885
13336WAT     H240251   6.059   7.130   0.923
13337WAT      O40252   2.662   7.047   2.612
13337WAT     H140253   2.572   7.040   2.568
13337WAT     H240254   2.668   6.980   2.686
13338WAT      O40255   0.657   6.930   5.470
13338WAT     H140256   0.604   7.003   5.427
13338WAT     H240257   0.597   6.852   5.489
13339WAT      O40258   5.302   9.459   0.462
13339WAT     H140259   5.345   9.415   0.542
13339WAT     H240260   5.312   9.558   0.469
13340WAT      O40261   8.294   3.308   3.661
13340WAT     H140262   8.205   3.329   3.701
13340WAT     H240263   8.358   3.383   3.682
13341WAT      O40264   3.487   3.127   2.343
13341WAT     H140265   3.527   3.050   2.393
13341WAT     H240266   3.523   3.129   2.250
13342WAT      O40267   4.213   8.908   6.996
13342WAT     H140268   4.261   8.877   6.915
13342WAT     H240269   4.279   8.941   7.064
13343WAT      O40270   2.055   2.335   0.542
13343WAT     H140271   2.061   2.303   0.448
13343WAT     H240272   1.964   2.315   0.579
13344WAT      O40273   6.303   5.581   5.689
13344WAT     H140274   6.333   5.527   5.610
13344WAT     H240275   6.271   5.520   5.761
13345WAT      O40276   8.168   8.880   2.680
13345WAT     H140277   8.254   8.831   2.693
13345WAT     H240278   8.116   8.837   2.606
13346WAT      O40279   2.608   3.421   4.675
13346WAT     H140280   2.513   3.392   4.661
13346WAT     H240281   2.653   3.358   4.739
13347WAT      O40282   5.591   9.022   4.414
13347WAT     H140283   5.565   9.111   4.454
13347WAT     H240284   5.580   9.026   4.315
13348WAT      O40285   9.662   0.339   7.495
13348WAT     H140286   9.569   0.360   7.525
13348WAT     H240287   9.716   0.308   7.574
13349WAT      O40288   4.269   3.381   2.408
13349WAT     H140289   4.235   3.434   2.331
13349WAT     H240290   4.320   3.302   2.374
13350WAT      O40291   5.593   4.967   5.382
13350WAT     H140292   5.631   4.877   5.405
13350WAT     H240293   5.529   4.957   5.306
13351WAT      O40294   3.579   6.032   8.074
13351WAT     H140295   3.483   6.049   8.053
13351WAT     H240296   3.609   5.948   8.029
13352WAT      O40297   4.210   4.001   6.477
13352WAT     H140298   4.133   3.982   6.415
13352WAT     H240299   4.203   4.094   6.511
13353WAT      O40300   3.165   8.389   9.286
13353WAT     H140301   3.265   8.396   9.288
13353WAT     H240302   3.125   8.479   9.301
13354WAT      O40303   0.847   6.426   4.102
13354WAT     H140304   0.781   6.373   4.049
13354WAT     H240305   0.826   6.416   4.200
13355WAT      O40306   6.262   7.874   3.358
13355WAT     H140307   6.198   7.946   3.329
13355WAT     H240308   6.339   7.871   3.294
13356WAT      O40309   3.377   3.247   2.742
13356WAT     H140310   3.278   3.252   2.727
13356WAT     H240311   3.399   3.162   2.791
13357WAT      O40312   2.341   3.861   3.752
13357WAT     H140313   2.376   3.938   3.805
13357WAT     H240314   2.266   3.891   3.694
13358WAT      O40315   4.345   2.237   6.364
13358WAT     H140316   4.321   2.334   6.369
13358WAT     H240317   4.296   2.188   6.436
13359WAT      O40318   2.200   9.581   8.592
13359WAT     H140319   2.224   9.492   8.631
13359WAT     H240320   2.193   9.649   8.665
13360WAT      O40321   7.049   9.219   3.482
13360WAT     H140322   7.109   9.240   3.404
13360WAT     H240323   7.078   9.132   3.523
13361WAT      O40324   5.717   1.699   0.242
13361WAT     H140325   5.702   1.793   0.211
13361WAT     H240326   5.805   1.666   0.207
13362WAT      O40327   2.289   4.288   1.669
13362WAT     H140328   2.256   4.290   1.574
13362WAT     H240329   2.384   4.257   1.671
13363WAT      O40330   7.874   6.458   6.758
13363WAT     H140331   7.785   6.466   6.713
13363WAT     H240332   7.864   6.404   6.842
13364WAT      O40333   7.375   5.082   8.558
13364WAT     H140334   7.435   5.022   8.611
13364WAT     H240335   7.431   5.137   8.495
13365WAT      O40336   7.398   8.822   5.140
13365WAT     H140337   7.485   8.778   5.118
13365WAT     H240338   7.323   8.773   5.095
13366WAT      O40339   0.922   1.465   3.747
13366WAT     H140340   0.981   1.503   3.675
13366WAT     H240341   0.973   1.458   3.832
13367WAT      O40342   2.505   1.279   3.195
13367WAT     H140343   2.420   1.329   3.180
13367WAT     H240344   2.500   1.191   3.148
13368WAT      O40345   6.426   1.091   5.712
13368WAT     H140346   6.387   1.126   5.797
13368WAT     H240347   6.524   1.112   5.710
13369WAT      O40348   6.393   4.039   7.293
13369WAT     H140349   6.475   4.030   7.237
13369WAT     H240350   6.334   3.960   7.279
13370WAT      O40351   6.426   0.692   3.146
13370WAT     H140352   6.415   0.743   3.060
13370WAT     H240353   6.338   0.684   3.192
13371WAT      O40354   7.421   5.401   4.909
13371WAT     H140355   7.403   5.467   4.836
13371WAT     H240356   7.407   5.308   4.875
13372WAT      O40357   9.878   3.690   1.880
13372WAT     H140358   9.971   3.674   1.847
13372WAT     H240359   9.825   3.606   1.871
13373WAT      O40360   5.132   8.472   7.125
13373WAT     H140361   5.048   8.460   7.178
13373WAT     H240362   5.126   8.556   7.072
13374WAT      O40363   7.331   8.794   0.560
13374WAT     H140364   7.296   8.867   0.619
13374WAT     H240365   7.358   8.716   0.615
13375WAT      O40366   1.435   3.448   6.978
13375WAT     H140367   1.435   3.516   6.904
13375WAT     H240368   1.344   3.440   7.016
13376WAT      O40369   4.702   5.301   4.686
13376WAT     H140370   4.688   5.363   4.608
13376WAT     H240371   4.706   5.207   4.653
13377WAT      O40372   0.306   7.225   4.377
13377WAT     H140373   0.380   7.158   4.380
13377WAT     H240374   0.338   7.312   4.416
13378WAT      O40375   3.788   7.533   8.231
13378WAT     H140376   3.841   7.605   8.275
13378WAT     H240377   3.736   7.483   8.300
13379WAT      O40378   3.939   4.066   5.048
13379WAT     H140379   3.919   4.001   4.975
13379WAT     H240380   3.854   4.099   5.089
13380WAT      O40381   8.469   0.061   7.696
13380WAT     H140382   8.401   0.125   7.733
13380WAT     H240383   8.436   0.023   7.610
13381WAT      O40384   8.896   6.902   4.613
13381WAT     H140385   8.839   6.904   4.531
13381WAT     H240386   8.875   6.820   4.666
13382WAT      O40387   2.885   4.878   4.082
13382WAT     H140388   2.821   4.921   4.018
13382WAT     H240389   2.843   4.872   4.172
13383WAT      O40390   7.304   5.442   3.849
13383WAT     H140391   7.210   5.472   3.839
13383WAT     H240392   7.353   5.453   3.763
13384WAT      O40393   3.609   8.170   2.796
13384WAT     H140394   3.574   8.213   2.713
13384WAT     H240395   3.581   8.074   2.799
13385WAT      O40396   4.702   8.908   5.296
13385WAT     H140397   4.676   8.922   5.391
13385WAT     H240398   4.630   8.858   5.248
13386WAT      O40399   1.508   4.190   2.827
13386WAT     H140400   1.547   4.099   2.810
13386WAT     H240401   1.416   4.180   2.865
13387WAT      O40402   9.665   4.236   7.545
13387WAT     H140403   9.647   4.147   7.586
13387WAT     H240404   9.658   4.229   7.445
13388WAT      O40405   8.358   4.159   1.454
13388WAT     H140406   8.356   4.187   1.549
13388WAT     H240407   8.428   4.089   1.441
13389WAT      O40408   2.739   4.686   7.884
13389WAT     H140409   2.751   4.685   7.785
13389WAT     H240410   2.642   4.687   7.906
13390WAT      O40411   5.904   3.699   4.039
13390WAT     H140412   5.954   3.625   4.084
13390WAT     H240413   5.845   3.744   4.106
13391WAT      O40414   8.648   6.755   7.296
13391WAT     H140415   8.712   6.821   7.336
13391WAT     H240416   8.679   6.662   7.316
13392WAT      O40417   0.934   0.555   0.103
13392WAT     H140418   1.029   0.570   0.073
13392WAT     H240419   0.874   0.552   0.023
13393WAT      O40420   7.616   1.166   1.679
13393WAT     H140421   7.602   1.219   1.763
13393WAT     H240422   7.547   1.095   1.673
13394WAT      O40423   2.237   4.629   7.414
13394WAT     H140424   2.313   4.606   7.473
13394WAT     H240425   2.167   4.558   7.421
13395WAT      O40426   7.269   9.836   7.968
13395WAT     H140427   7.221   9.920   7.945
13395WAT     H240428   7.358   9.833   7.922
13396WAT      O40429   8.841   4.084   6.569
13396WAT     H140430   8.755   4.060   6.524
13396WAT     H240431   8.913   4.020   6.540
13397WAT      O40432   0.528   1.126   9.828
13397WAT     H140433   0.620   1.089   9.833
13397WAT     H240434   0.464   1.053   9.800
13398WAT      O40435   7.066   6.816   4.946
13398WAT     H140436   6.988   6.781   4.997
13398WAT     H240437   7.142   6.834   5.008
13399WAT      O40438   4.293   6.476   7.458
13399WAT     H140439   4.216   6.432   7.504
13399WAT     H240440   4.346   6.407   7.409
13400WAT      O40441   1.775   9.327   2.437
13400WAT     H140442   1.816   9.388   2.505
13400WAT     H240443   1.776   9.233   2.471
13401WAT      O40444   0.265   3.090   2.952
13401WAT     H140445   0.177   3.104   2.905
13401WAT     H240446   0.340   3.113   2.889
13402WAT      O40447   1.689   6.048   3.838
13402WAT     H140448   1.633   5.971   3.870
13402WAT     H240449   1.675   6.061   3.740
13403WAT      O40450   7.407   4.643   7.720
13403WAT     H140451   7.374   4.707   7.789
13403WAT     H240452   7.490   4.597   7.754
13404WAT      O40453   2.357   0.867   5.880
13404WAT     H140454   2.360   0.770   5.855
13404WAT     H240455   2.441   0.890   5.929
13405WAT      O40456   7.381   7.026   6.102
13405WAT     H140457   7.377   7.059   6.196
13405WAT     H240458   7.289   6.999   6.072
13406WAT      O40459   2.887   3.236   7.781
13406WAT     H140460   2.918   3.288   7.860
13406WAT     H240461   2.918   3.281   7.697
13407WAT      O40462   2.270   0.055   3.846
13407WAT     H140463   2.317  -0.023   3.888
13407WAT     H240464   2.337   0.126   3.824
13408WAT      O40465   1.359   7.323   0.840
13408WAT     H140466   1.413   7.321   0.924
13408WAT     H240467   1.308   7.237   0.832
13409WAT      O40468   4.952   1.402   7.203
13409WAT     H140469   4.910   1.428   7.116
13409WAT     H240470   5.051   1.394   7.191
13410WAT      O40471   1.155   1.383   4.737
13410WAT     H140472   1.136   1.455   4.803
13410WAT     H240473   1.071   1.332   4.718
13411WAT      O40474   9.712   3.944   1.526
13411WAT     H140475   9.689   3.994   1.442
13411WAT     H240476   9.716   4.008   1.603
13412WAT      O40477   3.419   1.086   4.815
13412WAT     H140478   3.494   1.032   4.778
13412WAT     H240479   3.450   1.180   4.831
13413WAT      O40480   6.777   6.625   1.347
13413WAT     H140481   6.702   6.565   1.318
13413WAT     H240482   6.845   6.571   1.396
13414WAT      O40483   7.324   8.639   2.063
13414WAT     H140484   7.235   8.596   2.044
13414WAT     H240485   7.384   8.626   1.984
13415WAT      O40486   1.081   5.545   5.325
13415WAT     H140487   1.007   5.479   5.323
13415WAT     H240488   1.167   5.499   5.350
13416WAT      O40489   6.524   5.246   0.500
13416WAT     H140490   6.595   5.317   0.495
13416WAT     H240491   6.557   5.168   0.553
13417WAT      O40492   5.892   9.259   8.201
13417WAT     H140493   5.849   9.181   8.246
13417WAT     H240494   5.978   9.230   8.160
13418WAT      O40495   5.985   7.026   7.324
13418WAT     H140496   5.890   6.995   7.325
13418WAT     H240497   6.003   7.074   7.238
13419WAT      O40498   2.731   1.278   0.312
13419WAT     H140499   2.645   1.328   0.316
13419WAT     H240500   2.746   1.229   0.398
13420WAT      O40501   5.993   1.718   5.197
13420WAT     H140502   5.993   1.724   5.297
13420WAT     H240503   5.901   1.694   5.165
13421WAT      O40504   5.861   1.803   8.742
13421WAT     H140505   5.926   1.772   8.811
13421WAT     H240506   5.880   1.898   8.719
13422WAT      O40507   8.267   6.757   5.796
13422WAT     H140508   8.289   6.706   5.879
13422WAT     H240509   8.347   6.758   5.735
13423WAT      O40510   6.921   7.620   1.777
13423WAT     H140511   6.909   7.684   1.853
13423WAT     H240512   6.920   7.671   1.691
13424WAT      O40513   4.214   6.718   0.252
13424WAT     H140514   4.234   6.782   0.327
13424WAT     H240515   4.118   6.690   0.256
13425WAT      O40516   0.953   4.933   8.071
13425WAT     H140517   1.003   5.019   8.058
13425WAT     H240518   0.858   4.953   8.093
13426WAT      O40519   1.008   0.153   0.657
13426WAT     H140520   0.993   0.075   0.718
13426WAT     H240521   1.080   0.211   0.695
13427WAT      O40522   8.222   7.138   4.933
13427WAT     H140523   8.184   7.203   4.867
13427WAT     H240524   8.149   7.076   4.964
13428WAT      O40525   3.047   7.277   5.696
13428WAT     H140526   2.959   7.239   5.724
13428WAT     H240527   3.035   7.330   5.611
13429WAT      O40528   4.880   8.158   3.245
13429WAT     H140529   4.855   8.067   3.279
13429WAT     H240530   4.973   8.180   3.276
13430WAT      O40531   0.774   7.120   6.631
13430WAT     H140532   0.792   7.203   6.580
13430WAT     H240533   0.689   7.129   6.683
13431WAT      O40534   6.863   1.002   6.040
13431WAT     H140535   6.769   0.987   6.011
13431WAT     H240536   6.880   1.100   6.049
13432WAT      O40537   9.544   2.253   1.768
13432WAT     H140538   9.540   2.350   1.792
13432WAT     H240539   9.459   2.227   1.721
13433WAT      O40540   9.848   2.550   2.177
13433WAT     H140541   9.937   2.516   2.147
13433WAT     H240542   9.791   2.474   2.206
13434WAT      O40543   2.640   7.094   6.458
13434WAT     H140544   2.588   7.016   6.423
13434WAT     H240545   2.703   7.063   6.530
13435WAT      O40546   0.936   4.477   5.637
13435WAT     H140547   0.885   4.432   5.564
13435WAT     H240548   0.883   4.474   5.722
13436WAT      O40549   4.308   8.528   3.526
13436WAT     H140550   4.223   8.533   3.578
13436WAT     H240551   4.292   8.478   3.441
13437WAT      O40552   1.322   1.138   4.406
13437WAT     H140553   1.381   1.089   4.341
13437WAT     H240554   1.228   1.137   4.372
13438WAT      O40555   9.050   4.497   2.220
13438WAT     H140556   9.062   4.596   2.208
13438WAT     H240557   9.052   4.476   2.318
13439WAT      O40558   0.340   4.333   7.963
13439WAT     H140559   0.350   4.245   8.011
13439WAT     H240560   0.263   4.383   8.002
13440WAT      O40561   5.987   0.517   7.711
13440WAT     H140562   5.964   0.456   7.786
13440WAT     H240563   5.917   0.512   7.640
13441WAT      O40564   0.619   4.119   4.873
13441WAT     H140565   0.685   4.047   4.897
13441WAT     H240566   0.667   4.205   4.856
13442WAT      O40567   7.870   4.777   4.156
13442WAT     H140568   7.844   4.698   4.212
13442WAT     H240569   7.952   4.754   4.103
13443WAT      O40570   7.857   7.916   8.291
13443WAT     H140571   7.882   7.904   8.387
13443WAT     H240572   7.879   8.009   8.262
13444WAT      O40573   6.565   2.062   2.553
13444WAT     H140574   6.488   2.072   2.489
13444WAT     H240575   6.646   2.033   2.502
13445WAT      O40576   9.630   4.702   2.573
13445WAT     H140577   9.533   4.728   2.569
13445WAT     H240578   9.677   4.736   2.491
13446WAT      O40579   8.701   5.892   4.705
13446WAT     H140580   8.755   5.850   4.632
13446WAT     H240581   8.650   5.821   4.754
13447WAT      O40582   7.843   2.981   1.190
13447WAT     H140583   7.928   3.002   1.239
13447WAT     H240584   7.852   2.892   1.145
13448WAT      O40585   6.396   6.234   1.718
13448WAT     H140586   6.436   6.325   1.710
13448WAT     H240587   6.381   6.212   1.814
13449WAT      O40588   5.599   6.608   4.112
13449WAT     H140589   5.698   6.604   4.109
13449WAT     H240590   5.569   6.701   4.133
13450WAT      O40591   5.686   1.605   1.665
13450WAT     H140592   5.614   1.675   1.663
13450WAT     H240593   5.770   1.644   1.700
13451WAT      O40594   2.850   6.070   3.093
13451WAT     H140595   2.796   6.034   3.016
13451WAT     H240596   2.886   6.160   3.069
13452WAT      O40597   9.706   7.405   8.904
13452WAT     H140598   9.761   7.338   8.955
13452WAT     H240599   9.766   7.456   8.843
13453WAT      O40600   7.970   8.405   8.369
13453WAT     H140601   7.968   8.502   8.392
13453WAT     H240602   8.049   8.362   8.412
13454WAT      O40603   0.722   5.741   8.862
13454WAT     H140604   0.816   5.714   8.841
13454WAT     H240605   0.715   5.766   8.959
13455WAT      O40606   9.731   3.349   1.234
13455WAT     H140607   9.722   3.372   1.137
13455WAT     H240608   9.733   3.249   1.244
13456WAT      O40609   5.103   3.784   6.562
13456WAT     H140610   5.048   3.818   6.486
13456WAT     H240611   5.198   3.812   6.550
13457WAT      O40612   6.568   2.761   0.258
13457WAT     H140613   6.582   2.662   0.264
13457WAT     H240614   6.655   2.805   0.238
13458WAT      O40615   9.314   6.792   9.297
13458WAT     H140616   9.313   6.882   9.339
13458WAT     H240617   9.292   6.799   9.200
13459WAT      O40618   9.730   3.392   3.176
13459WAT     H140619   9.783   3.474   3.155
13459WAT     H240620   9.654   3.383   3.111
13460WAT      O40621   7.382   7.737   8.202
13460WAT     H140622   7.309   7.714   8.138
13460WAT     H240623   7.401   7.835   8.195
13461WAT      O40624   0.960   4.103   1.745
13461WAT     H140625   0.915   4.121   1.832
13461WAT     H240626   0.899   4.130   1.670
13462WAT      O40627   2.553   7.140   7.379
13462WAT     H140628   2.505   7.162   7.294
13462WAT     H240629   2.487   7.122   7.451
13463WAT      O40630   5.663   1.593   9.203
13463WAT     H140631   5.628   1.569   9.294
13463WAT     H240632   5.588   1.594   9.137
13464WAT      O40633   3.095   5.787   8.746
13464WAT     H140634   3.109   5.740   8.833
13464WAT     H240635   2.999   5.812   8.736
13465WAT      O40636   1.154   2.655   1.447
13465WAT     H140637   1.190   2.561   1.446
13465WAT     H240638   1.084   2.662   1.519
13466WAT      O40639   1.247   8.087   7.964
13466WAT     H140640   1.342   8.057   7.954
13466WAT     H240641   1.185   8.014   7.935
13467WAT      O40642   7.302   9.195   6.293
13467WAT     H140643   7.249   9.196   6.377
13467WAT     H240644   7.400   9.202   6.315
13468WAT      O40645   8.798   0.641   2.509
13468WAT     H140646   8.875   0.695   2.473
13468WAT     H240647   8.807   0.547   2.477
13469WAT      O40648   4.108   5.862   7.274
13469WAT     H140649   4.190   5.882   7.221
13469WAT     H240650   4.127   5.874   7.371
13470WAT      O40651   0.291   7.609   3.941
13470WAT     H140652   0.366   7.555   3.903
13470WAT     H240653   0.208   7.595   3.886
13471WAT      O40654   3.779   9.294   1.625
13471WAT     H140655   3.837   9.242   1.687
13471WAT     H240656   3.773   9.389   1.655
13472WAT      O40657   0.564   7.189   0.485
13472WAT     H140658   0.552   7.288   0.483
13472WAT     H240659   0.656   7.166   0.518
13473WAT      O40660   7.907   5.728   1.384
13473WAT     H140661   7.843   5.725   1.461
13473WAT     H240662   7.957   5.642   1.378
13474WAT      O40663   7.115   6.156   4.935
13474WAT     H140664   7.089   6.060   4.930
13474WAT     H240665   7.214   6.165   4.932
13475WAT      O40666   6.403   8.161   7.603
13475WAT     H140667   6.451   8.131   7.521
13475WAT     H240668   6.467   8.202   7.667
13476WAT      O40669   3.169   7.816   7.526
13476WAT     H140670   3.178   7.910   7.559
13476WAT     H240671   3.092   7.809   7.463
13477WAT      O40672   0.864   4.500   6.250
13477WAT     H140673   0.782   4.501   6.192
13477WAT     H240674   0.945   4.516   6.194
13478WAT      O40675   2.280   7.114   0.190
13478WAT     H140676   2.209   7.124   0.259
13478WAT     H240677   2.279   7.020   0.155
13479WAT      O40678   4.757   0.358   1.414
13479WAT     H140679   4.672   0.411   1.406
13479WAT     H240680   4.744   0.269   1.371
13480WAT      O40681   0.756   9.212   6.096
13480WAT     H140682   0.843   9.180   6.059
13480WAT     H240683   0.763   9.222   6.195
13481WAT      O40684   9.782   2.524   5.183
13481WAT     H140685   9.702   2.518   5.242
13481WAT     H240686   9.813   2.432   5.158
13482WAT      O40687   7.202   2.529   9.151
13482WAT     H140688   7.176   2.579   9.068
13482WAT     H240689   7.132   2.460   9.171
13483WAT      O40690   2.872   7.777   1.917
13483WAT     H140691   2.856   7.748   1.823
13483WAT     H240692   2.804   7.844   1.945
13484WAT      O40693   7.811   9.267   1.497
13484WAT     H140694   7.780   9.184   1.542
13484WAT     H240695   7.910   9.261   1.482
13485WAT      O40696   1.314   5.947   8.374
13485WAT     H140697   1.366   5.862   8.379
13485WAT     H240698   1.348   6.002   8.298
13486WAT      O40699   1.697   7.325   4.472
13486WAT     H140700   1.774   7.361   4.525
13486WAT     H240701   1.612   7.341   4.522
13487WAT      O40702   2.681   6.180   1.001
13487WAT     H140703   2.592   6.223   0.986
13487WAT     H240704   2.668   6.095   1.053
13488WAT      O40705   0.788   5.269   4.132
13488WAT     H140706   0.818   5.179   4.165
13488WAT     H240707   0.702   5.294   4.177
13489WAT      O40708   7.504   6.846   9.273
13489WAT     H140709   7.534   6.892   9.189
13489WAT     H240710   7.518   6.747   9.263
13490WAT      O40711   8.540   8.690   3.269
13490WAT     H140712   8.533   8.701   3.170
13490WAT     H240713   8.623   8.736   3.302
13491WAT      O40714   3.485   2.154   8.212
13491WAT     H140715   3.533   2.157   8.124
13491WAT     H240716   3.468   2.059   8.237
13492WAT      O40717   1.183   2.288   4.096
13492WAT     H140718   1.126   2.320   4.021
13492WAT     H240719   1.279   2.284   4.067
13493WAT      O40720   0.303   4.013   9.734
13493WAT     H140721   0.381   4.071   9.759
13493WAT     H240722   0.305   3.996   9.635
13494WAT      O40723   6.777   8.147   7.738
13494WAT     H140724   6.826   8.079   7.682
13494WAT     H240725   6.822   8.235   7.730
13495WAT      O40726   1.477   7.218   3.394
13495WAT     H140727   1.474   7.167   3.308
13495WAT     H240728   1.536   7.298   3.382
13496WAT      O40729   0.479   6.438   5.026
13496WAT     H140730   0.438   6.475   5.109
13496WAT     H240731   0.407   6.412   4.962
13497WAT      O40732   9.881   2.740   5.597
13497WAT     H140733   9.850   2.833   5.616
13497WAT     H240734   9.921   2.737   5.506
13498WAT      O40735   8.654   2.236   4.514
13498WAT     H140736   8.737   2.196   4.477
13498WAT     H240737   8.650   2.218   4.613
13499WAT      O40738   2.513   4.916   4.588
13499WAT     H140739   2.438   4.958   4.640
13499WAT     H240740   2.587   4.982   4.577
13500WAT      O40741   4.573   6.051   5.041
13500WAT     H140742   4.488   6.029   4.995
13500WAT     H240743   4.645   5.989   5.011
13501WAT      O40744   3.135   6.585   0.789
13501WAT     H140745   3.206   6.648   0.822
13501WAT     H240746   3.083   6.550   0.867
13502WAT      O40747   1.684   5.702   2.489
13502WAT     H140748   1.768   5.729   2.536
13502WAT     H240749   1.638   5.784   2.454
13503WAT      O40750   1.523   6.681   5.058
13503WAT     H140751   1.530   6.666   5.157
13503WAT     H240752   1.478   6.602   5.016
13504WAT      O40753   0.883   3.436   9.616
13504WAT     H140754   0.943   3.496   9.564
13504WAT     H240755   0.938   3.373   9.671
13505WAT      O40756   4.540   6.216   5.545
13505WAT     H140757   4.626   6.263   5.525
13505WAT     H240758   4.559   6.123   5.577
13506WAT      O40759   8.661   4.866   2.543
13506WAT     H140760   8.594   4.859   2.617
13506WAT     H240761   8.617   4.841   2.456
13507WAT      O40762   6.047   1.744   3.298
13507WAT     H140763   6.131   1.732   3.245
13507WAT     H240764   5.999   1.826   3.266
13508WAT      O40765   8.758   8.810   2.703
13508WAT     H140766   8.771   8.738   2.771
13508WAT     H240767   8.750   8.769   2.612
13509WAT      O40768   2.943   2.911   2.770
13509WAT     H140769   2.956   2.821   2.811
13509WAT     H240770   2.966   2.982   2.837
13510WAT      O40771   0.224   6.534   5.157
13510WAT     H140772   0.232   6.475   5.238
13510WAT     H240773   0.132   6.572   5.152
13511WAT      O40774   9.710   8.938   6.422
13511WAT     H140775   9.675   9.020   6.466
13511WAT     H240776   9.765   8.964   6.342
13512WAT      O40777   0.244   1.370   5.645
13512WAT     H140778   0.308   1.295   5.661
13512WAT     H240779   0.272   1.423   5.565
13513WAT      O40780   2.806   3.201   6.787
13513WAT     H140781   2.737   3.133   6.762
13513WAT     H240782   2.778   3.291   6.753
13514WAT      O40783   3.536   6.641   1.924
13514WAT     H140784   3.467   6.579   1.886
13514WAT     H240785   3.616   6.643   1.865
13515WAT      O40786   9.307   6.378   9.448
13515WAT     H140787   9.291   6.462   9.500
13515WAT     H240788   9.222   6.352   9.402
13516WAT      O40789   7.631   3.537   7.499
13516WAT     H140790   7.542   3.511   7.537
13516WAT     H240791   7.679   3.596   7.564
13517WAT      O40792   4.573   6.455   3.828
13517WAT     H140793   4.569   6.530   3.893
13517WAT     H240794   4.489   6.453   3.774
13518WAT      O40795   7.715   6.515   2.443
13518WAT     H140796   7.748   6.422   2.457
13518WAT     H240797   7.632   6.513   2.387
13519WAT      O40798   1.769   7.093   3.528
13519WAT     H140799   1.752   7.179   3.577
13519WAT     H240800   1.705   7.023   3.561
13520WAT      O40801   3.675   4.601   2.280
13520WAT     H140802   3.690   4.555   2.368
13520WAT     H240803   3.583   4.641   2.278
13521WAT      O40804   7.789   7.441   1.706
13521WAT     H140805   7.824   7.518   1.760
13521WAT     H240806   7.866   7.386   1.673
13522WAT      O40807   8.004   3.273   4.093
13522WAT     H140808   7.991   3.363   4.051
13522WAT     H240809   7.931   3.212   4.065
13523WAT      O40810   1.772   7.319   0.203
13523WAT     H140811   1.808   7.340   0.112
13523WAT     H240812   1.783   7.400   0.262
13524WAT      O40813   0.287   7.893   6.393
13524WAT     H140814   0.370   7.903   6.449
13524WAT     H240815   0.272   7.976   6.340
13525WAT      O40816   1.717   2.034   8.162
13525WAT     H140817   1.784   1.992   8.224
13525WAT     H240818   1.718   1.986   8.075
13526WAT      O40819   1.876   2.312   3.100
13526WAT     H140820   1.887   2.233   3.041
13526WAT     H240821   1.786   2.353   3.084
13527WAT      O40822   5.518   4.867   8.575
13527WAT     H140823   5.536   4.845   8.479
13527WAT     H240824   5.498   4.783   8.625
13528WAT      O40825   7.084   1.533   4.252
13528WAT     H140826   6.991   1.551   4.282
13528WAT     H240827   7.123   1.615   4.211
13529WAT      O40828   4.901   9.643   7.103
13529WAT     H140829   4.804   9.665   7.097
13529WAT     H240830   4.931   9.652   7.198
13530WAT      O40831   8.098   5.815   0.828
13530WAT     H140832   8.004   5.803   0.795
13530WAT     H240833   8.101   5.800   0.926
13531WAT      O40834   3.235   4.479   0.800
13531WAT     H140835   3.151   4.509   0.846
13531WAT     H240836   3.263   4.547   0.733
13532WAT      O40837   7.454   9.843   5.582
13532WAT     H140838   7.417   9.932   5.607
13532WAT     H240839   7.411   9.772   5.639
13533WAT      O40840   0.722   2.846   1.807
13533WAT     H140841   0.766   2.877   1.723
13533WAT     H240842   0.635   2.803   1.785
13534WAT      O40843   9.586   0.791   0.040
13534WAT     H140844   9.536   0.705   0.033
13534WAT     H240845   9.587   0.837  -0.049
13535WAT      O40846   6.248   3.265   1.891
13535WAT     H140847   6.342   3.297   1.907
13535WAT     H240848   6.205   3.322   1.821
13536WAT      O40849   0.048   0.703   1.895
13536WAT     H140850   0.145   0.687   1.875
13536WAT     H240851   0.018   0.788   1.851
13537WAT      O40852   3.217   8.939   6.984
13537WAT     H140853   3.205   8.999   6.905
13537WAT     H240854   3.310   8.902   6.984
13538WAT      O40855   0.055   0.828   3.451
13538WAT     H140856  -0.030   0.783   3.476
13538WAT     H240857   0.131   0.787   3.503
13539WAT      O40858   4.368   5.446   7.459
13539WAT     H140859   4.410   5.508   7.524
13539WAT     H240860   4.288   5.402   7.501
13540WAT      O40861   5.185   1.171   2.503
13540WAT     H140862   5.194   1.245   2.437
13540WAT     H240863   5.244   1.095   2.476
13541WAT      O40864   5.087   1.443   3.628
13541WAT     H140865   5.047   1.380   3.562
13541WAT     H240866   5.181   1.466   3.600
13542WAT      O40867   2.916   5.602   4.823
13542WAT     H140868   2.828   5.635   4.855
13542WAT     H240869   2.971   5.679   4.790
13543WAT      O40870   0.282   7.118   3.074
13543WAT     H140871   0.257   7.190   3.010
13543WAT     H240872   0.382   7.111   3.080
13544WAT      O40873   1.323   6.164   8.159
13544WAT     H140874   1.397   6.216   8.201
13544WAT     H240875   1.240   6.220   8.154
13545WAT      O40876   9.614   3.586   5.856
13545WAT     H140877   9.708   3.619   5.864
13545WAT     H240878   9.571   3.584   5.946
13546WAT      O40879   8.026   8.412   1.071
13546WAT     H140880   8.069   8.457   1.150
13546WAT     H240881   8.016   8.314   1.089
13547WAT      O40882   8.339   9.130   3.292
13547WAT     H140883   8.300   9.060   3.352
13547WAT     H240884   8.438   9.118   3.286
13548WAT      O40885   0.168   6.598   8.233
13548WAT     H140886   0.239   6.641   8.177
13548WAT     H240887   0.128   6.666   8.294
13549WAT      O40888   2.115   4.577   9.302
13549WAT     H140889   2.090   4.644   9.232
13549WAT     H240890   2.202   4.534   9.276
13550WAT      O40891   9.612   1.412   5.470
13550WAT     H140892   9.611   1.478   5.546
13550WAT     H240893   9.682   1.439   5.404
13551WAT      O40894   9.535   6.024   0.894
13551WAT     H140895   9.536   5.936   0.942
13551WAT     H240896   9.455   6.077   0.922
13552WAT      O40897   1.653   5.797   7.314
13552WAT     H140898   1.624   5.745   7.234
13552WAT     H240899   1.752   5.789   7.325
13553WAT      O40900   4.442   8.490   1.198
13553WAT     H140901   4.418   8.541   1.116
13553WAT     H240902   4.359   8.450   1.237
13554WAT      O40903   0.638   5.490   6.748
13554WAT     H140904   0.622   5.561   6.817
13554WAT     H240905   0.686   5.530   6.670
13555WAT      O40906   4.739   3.142   7.230
13555WAT     H140907   4.689   3.220   7.193
13555WAT     H240908   4.706   3.123   7.323
13556WAT      O40909   5.053   0.097   0.760
13556WAT     H140910   5.022   0.003   0.745
13556WAT     H240911   5.150   0.104   0.737
13557WAT      O40912   5.593   6.886   0.252
13557WAT     H140913   5.653   6.901   0.331
13557WAT     H240914   5.514   6.832   0.280
13558WAT      O40915   5.367   4.253   8.064
13558WAT     H140916   5.381   4.352   8.062
13558WAT     H240917   5.451   4.208   8.095
13559WAT      O40918   9.252   4.999   1.005
13559WAT     H140919   9.189   4.942   1.057
13559WAT     H240920   9.343   4.996   1.047
13560WAT      O40921   3.043   8.764   5.411
13560WAT     H140922   2.990   8.773   5.495
13560WAT     H240923   3.045   8.668   5.383
13561WAT      O40924   7.270   4.409   5.568
13561WAT     H140925   7.239   4.319   5.537
13561WAT     H240926   7.205   4.445   5.634
13562WAT      O40927   0.557   6.810   4.811
13562WAT     H140928   0.556   6.793   4.909
13562WAT     H240929   0.625   6.751   4.768
13563WAT      O40930   0.257   8.404   5.704
13563WAT     H140931   0.314   8.422   5.784
13563WAT     H240932   0.168   8.449   5.715
13564WAT      O40933   6.925   1.227   7.688
13564WAT     H140934   6.899   1.293   7.617
13564WAT     H240935   6.900   1.135   7.658
13565WAT      O40936   3.847   6.393   0.453
13565WAT     H140937   3.817   6.487   0.434
13565WAT     H240938   3.835   6.337   0.371
13566WAT      O40939   0.156   5.615   0.889
13566WAT     H140940   0.187   5.705   0.858
13566WAT     H240941   0.105   5.571   0.816
13567WAT      O40942   6.898   7.599   5.403
13567WAT     H140943   6.883   7.694   5.431
13567WAT     H240944   6.831   7.540   5.447
13568WAT      O40945   4.446   5.801   6.024
13568WAT     H140946   4.514   5.763   6.087
13568WAT     H240947   4.460   5.900   6.016
13569WAT      O40948   5.318   3.408   0.556
13569WAT     H140949   5.369   3.450   0.481
13569WAT     H240950   5.368   3.421   0.641
13570WAT      O40951   4.778   8.926   6.365
13570WAT     H140952   4.682   8.937   6.390
13570WAT     H240953   4.787   8.923   6.265
13571WAT      O40954   5.119   3.678   3.613
13571WAT     H140955   5.190   3.629   3.663
13571WAT     H240956   5.161   3.750   3.558
13572WAT      O40957   1.877   7.940   8.607
13572WAT     H140958   1.802   7.912   8.666
13572WAT     H240959   1.885   8.040   8.608
13573WAT      O40960   5.322   4.640   8.895
13573WAT     H140961   5.343   4.655   8.992
13573WAT     H240962   5.310   4.542   8.879
13574WAT      O40963   3.181   1.209   3.238
13574WAT     H140964   3.121   1.233   3.314
13574WAT     H240965   3.142   1.245   3.153
13575WAT      O40966   1.523   8.781   0.846
13575WAT     H140967   1.597   8.736   0.898
13575WAT     H240968   1.435   8.753   0.884
13576WAT      O40969   8.239   5.605   5.857
13576WAT     H140970   8.265   5.606   5.954
13576WAT     H240971   8.230   5.698   5.823
13577WAT      O40972   8.401   5.351   8.030
13577WAT     H140973   8.454   5.396   8.101
13577WAT     H240974   8.311   5.394   8.023
13578WAT      O40975   0.003   3.190   6.240
13578WAT     H140976   0.091   3.187   6.287
13578WAT     H240977  -0.056   3.258   6.284
13579WAT      O40978   7.660   4.481   5.464
13579WAT     H140979   7.708   4.395   5.444
13579WAT     H240980   7.716   4.558   5.434
13580WAT      O40981   1.898   1.679   6.449
13580WAT     H140982   1.929   1.739   6.523
13580WAT     H240983   1.911   1.583   6.476
13581WAT      O40984   4.706   2.393   3.906
13581WAT     H140985   4.621   2.357   3.943
13581WAT     H240986   4.745   2.328   3.841
13582WAT      O40987   3.317   9.469   6.791
13582WAT     H140988   3.329   9.505   6.699
13582WAT     H240989   3.381   9.395   6.807
13583WAT      O40990   2.637   2.386   9.236
13583WAT     H140991   2.643   2.463   9.299
13583WAT     H240992   2.589   2.311   9.280
13584WAT      O40993   7.491   8.396   1.797
13584WAT     H140994   7.485   8.494   1.782
13584WAT     H240995   7.554   8.356   1.731
13585WAT      O40996   3.819   4.576   3.668
13585WAT     H140997   3.877   4.657   3.672
13585WAT     H240998   3.778   4.569   3.577
13586WAT      O40999   1.038   6.256   4.917
13586WAT     H141000   1.018   6.322   4.844
13586WAT     H241001   0.953   6.229   4.963
13587WAT      O41002   2.956   0.324   6.934
13587WAT     H141003   2.984   0.409   6.890
13587WAT     H241004   2.955   0.336   7.033
13588WAT      O41005   2.227   1.054   1.411
13588WAT     H141006   2.196   1.055   1.315
13588WAT     H241007   2.157   1.010   1.467
13589WAT      O41008   3.206   6.629   1.313
13589WAT     H141009   3.138   6.650   1.243
13589WAT     H241010   3.210   6.530   1.327
13590WAT      O41011   3.165   8.611   6.057
13590WAT     H141012   3.212   8.646   6.139
13590WAT     H241013   3.233   8.593   5.986
13591WAT      O41014   8.084   8.935   5.545
13591WAT     H141015   7.985   8.920   5.542
13591WAT     H241016   8.112   8.954   5.639
13592WAT      O41017   7.605   4.466   8.761
13592WAT     H141018   7.555   4.412   8.694
13592WAT     H241019   7.692   4.421   8.782
13593WAT      O41020   7.799   4.736   3.873
13593WAT     H141021   7.736   4.691   3.935
13593WAT     H241022   7.892   4.705   3.892
13594WAT      O41023   9.784   9.255   3.229
13594WAT     H141024   9.767   9.258   3.327
13594WAT     H241025   9.845   9.331   3.203
13595WAT      O41026   5.318   8.882   0.755
13595WAT     H141027   5.254   8.952   0.787
13595WAT     H241028   5.302   8.797   0.804
13596WAT      O41029   0.950   0.838   4.011
13596WAT     H141030   0.898   0.910   3.966
13596WAT     H241031   1.048   0.857   4.002
13597WAT      O41032   8.084   1.460   8.657
13597WAT     H141033   8.050   1.367   8.667
13597WAT     H241034   8.131   1.470   8.569
13598WAT      O41035   2.700   6.672   6.032
13598WAT     H141036   2.601   6.666   6.028
13598WAT     H241037   2.734   6.623   6.113
13599WAT      O41038   5.203   0.076   5.461
13599WAT     H141039   5.260   0.140   5.410
13599WAT     H241040   5.237   0.067   5.554
13600WAT      O41041   9.788   6.814   5.678
13600WAT     H141042   9.748   6.894   5.634
13600WAT     H241043   9.719   6.767   5.733
13601WAT      O41044   7.082   5.052   3.491
13601WAT     H141045   7.137   5.056   3.408
13601WAT     H241046   7.006   4.988   3.478
13602WAT      O41047   1.516   4.425   7.356
13602WAT     H141048   1.616   4.434   7.353
13602WAT     H241049   1.474   4.516   7.359
13603WAT      O41050   5.236   8.492   2.266
13603WAT     H141051   5.241   8.526   2.172
13603WAT     H241052   5.141   8.469   2.288
13604WAT      O41053   3.122   4.147   6.364
13604WAT     H141054   3.152   4.213   6.295
13604WAT     H241055   3.144   4.055   6.333
13605WAT      O41056   0.285   1.988   5.160
13605WAT     H141057   0.279   1.914   5.093
13605WAT     H241058   0.247   1.957   5.247
13606WAT      O41059   5.889   4.746   1.885
13606WAT     H141060   5.829   4.671   1.912
13606WAT     H241061   5.851   4.833   1.918
13607WAT      O41062   9.276   8.792   7.291
13607WAT     H141063   9.255   8.862   7.359
13607WAT     H241064   9.212   8.715   7.300
13608WAT      O41065   9.486   6.020   9.761
13608WAT     H141066   9.520   6.102   9.807
13608WAT     H241067   9.422   6.046   9.689
13609WAT      O41068   9.468   3.944   2.533
13609WAT     H141069   9.511   3.888   2.603
13609WAT     H241070   9.489   4.041   2.550
13610WAT      O41071   3.770   9.010   8.247
13610WAT     H141072   3.731   8.978   8.161
13610WAT     H241073   3.722   8.967   8.324
13611WAT      O41074   1.269   2.166   9.116
13611WAT     H141075   1.241   2.258   9.092
13611WAT     H241076   1.285   2.113   9.032
13612WAT      O41077   9.886   4.843   2.681
13612WAT     H141078   9.801   4.800   2.652
13612WAT     H241079   9.962   4.807   2.626
13613WAT      O41080   3.928   4.107   6.840
13613WAT     H141081   3.876   4.051   6.905
13613WAT     H241082   3.868   4.136   6.765
13614WAT      O41083   2.108   3.477   3.893
13614WAT     H141084   2.138   3.482   3.989
13614WAT     H241085   2.044   3.402   3.882
13615WAT      O41086   4.175   7.005   6.874
13615WAT     H141087   4.218   6.998   6.784
13615WAT     H241088   4.201   6.927   6.931
13616WAT      O41089   1.969   2.761   0.083
13616WAT     H141090   1.973   2.835   0.150
13616WAT     H241091   2.019   2.787   0.001
13617WAT      O41092   8.498   6.666   8.573
13617WAT     H141093   8.477   6.568   8.574
13617WAT     H241094   8.509   6.697   8.479
13618WAT      O41095   2.559   1.667   1.513
13618WAT     H141096   2.577   1.600   1.441
13618WAT     H241097   2.545   1.757   1.473
13619WAT      O41098   7.048   5.577   8.751
13619WAT     H141099   7.014   5.570   8.845
13619WAT     H241100   7.111   5.654   8.743
13620WAT      O41101   2.840   3.432   4.956
13620WAT     H141102   2.848   3.531   4.949
13620WAT     H241103   2.872   3.390   4.871
13621WAT      O41104   3.593   4.356   1.614
13621WAT     H141105   3.591   4.355   1.514
13621WAT     H241106   3.653   4.283   1.646
13622WAT      O41107   4.462   8.984   6.181
13622WAT     H141108   4.517   9.067   6.194
13622WAT     H241109   4.367   9.011   6.161
13623WAT      O41110   7.658   4.918   7.858
13623WAT     H141111   7.574   4.965   7.883
13623WAT     H241112   7.691   4.955   7.771
13624WAT      O41113   0.145   9.795   5.560
13624WAT     H141114   0.189   9.706   5.569
13624WAT     H241115   0.172   9.854   5.637
13625WAT      O41116   4.262   4.404   2.729
13625WAT     H141117   4.265   4.472   2.803
13625WAT     H241118   4.277   4.450   2.641
13626WAT      O41119   1.752   0.070   4.934
13626WAT     H141120   1.683   0.095   4.866
13626WAT     H241121   1.841   0.107   4.906
13627WAT      O41122   0.449   0.177   1.067
13627WAT     H141123   0.509   0.127   1.005
13627WAT     H241124   0.504   0.233   1.129
13628WAT      O41125   8.766   4.394   6.435
13628WAT     H141126   8.690   4.350   6.484
13628WAT     H241127   8.851   4.344   6.455
13629WAT      O41128   0.161   9.228   1.215
13629WAT     H141129   0.231   9.187   1.274
13629WAT     H241130   0.125   9.158   1.153
13630WAT      O41131   5.452   3.640   7.672
13630WAT     H141132   5.474   3.572   7.601
13630WAT     H241133   5.527   3.706   7.679
13631WAT      O41134   6.652   6.553   9.403
13631WAT     H141135   6.614   6.629   9.352
13631WAT     H241136   6.748   6.572   9.426
13632WAT      O41137   9.663   8.485   5.693
13632WAT     H141138   9.760   8.506   5.706
13632WAT     H241139   9.616   8.564   5.656
13633WAT      O41140   5.497   0.359   2.579
13633WAT     H141141   5.540   0.327   2.664
13633WAT     H241142   5.430   0.430   2.601
13634WAT      O41143   9.449   3.028   7.111
13634WAT     H141144   9.505   3.001   7.033
13634WAT     H241145   9.480   2.980   7.193
13635WAT      O41146   1.792   5.154   2.778
13635WAT     H141147   1.717   5.134   2.715
13635WAT     H241148   1.798   5.253   2.791
13636WAT      O41149   1.699   9.389   2.003
13636WAT     H141150   1.780   9.438   2.034
13636WAT     H241151   1.650   9.351   2.082
13637WAT      O41152   2.611   4.364   1.542
13637WAT     H141153   2.695   4.362   1.488
13637WAT     H241154   2.534   4.388   1.482
13638WAT      O41155   8.846   6.444   5.205
13638WAT     H141156   8.896   6.480   5.127
13638WAT     H241157   8.752   6.423   5.177
13639WAT      O41158   1.414   6.780   6.094
13639WAT     H141159   1.462   6.760   6.009
13639WAT     H241160   1.354   6.858   6.080
13640WAT      O41161   5.456   7.937   9.632
13640WAT     H141162   5.411   7.920   9.545
13640WAT     H241163   5.398   7.995   9.689
13641WAT      O41164   9.536   5.348   9.512
13641WAT     H141165   9.456   5.296   9.482
13641WAT     H241166   9.615   5.324   9.455
13642WAT      O41167   5.722   8.692   7.624
13642WAT     H141168   5.688   8.734   7.709
13642WAT     H241169   5.647   8.642   7.580
13643WAT      O41170   6.513   8.622   2.720
13643WAT     H141171   6.468   8.612   2.631
13643WAT     H241172   6.506   8.537   2.771
13644WAT      O41173   7.440   4.636   3.310
13644WAT     H141174   7.430   4.702   3.385
13644WAT     H241175   7.361   4.643   3.249
13645WAT      O41176   6.715   1.681   1.144
13645WAT     H141177   6.781   1.699   1.072
13645WAT     H241178   6.651   1.610   1.114
13646WAT      O41179   4.151   4.271   8.836
13646WAT     H141180   4.071   4.253   8.780
13646WAT     H241181   4.233   4.233   8.792
13647WAT      O41182   0.795   1.011   8.086
13647WAT     H141183   0.860   1.086   8.100
13647WAT     H241184   0.839   0.925   8.112
13648WAT      O41185   4.164   0.386   6.370
13648WAT     H141186   4.199   0.406   6.278
13648WAT     H241187   4.223   0.320   6.415
13649WAT      O41188   0.247   7.988   1.085
13649WAT     H141189   0.224   8.048   1.008
13649WAT     H241190   0.174   7.921   1.099
13650WAT      O41191   3.091   0.962   5.056
13650WAT     H141192   3.145   0.991   5.135
13650WAT     H241193   3.109   0.865   5.038
13651WAT      O41194   2.659   3.751   7.931
13651WAT     H141195   2.597   3.739   7.853
13651WAT     H241196   2.688   3.661   7.963
13652WAT      O41197   1.778   9.595   6.238
13652WAT     H141198   1.841   9.517   6.241
13652WAT     H241199   1.691   9.566   6.200
13653WAT      O41200   8.001   2.240   3.252
13653WAT     H141201   8.088   2.278   3.286
13653WAT     H241202   7.971   2.291   3.172
13654WAT      O41203   7.370   5.524   9.304
13654WAT     H141204   7.320   5.582   9.239
13654WAT     H241205   7.440   5.473   9.255
13655WAT      O41206   7.352   8.822   3.227
13655WAT     H141207   7.257   8.846   3.205
13655WAT     H241208   7.376   8.735   3.184
13656WAT      O41209   9.314   9.258   3.112
13656WAT     H141210   9.409   9.251   3.081
13656WAT     H241211   9.306   9.330   3.181
13657WAT      O41212   2.890   5.361   5.154
13657WAT     H141213   2.926   5.314   5.074
13657WAT     H241214   2.901   5.303   5.235
13658WAT      O41215   9.688   2.187   3.627
13658WAT     H141216   9.675   2.099   3.582
13658WAT     H241217   9.621   2.253   3.591
13659WAT      O41218   3.520   0.496   9.579
13659WAT     H141219   3.618   0.504   9.561
13659WAT     H241220   3.492   0.400   9.569
13660WAT      O41221   3.044   2.809   5.881
13660WAT     H141222   3.026   2.902   5.850
13660WAT     H241223   3.121   2.809   5.945
13661WAT      O41224   4.339   6.123   0.153
13661WAT     H141225   4.300   6.195   0.210
13661WAT     H241226   4.395   6.163   0.081
13662WAT      O41227   0.994   3.959   3.876
13662WAT     H141228   0.964   4.029   3.811
13662WAT     H241229   1.091   3.973   3.897
13663WAT      O41230   3.073   3.941   3.708
13663WAT     H141231   3.163   3.971   3.740
13663WAT     H241232   3.061   3.844   3.728
13664WAT      O41233   8.607   8.278   3.004
13664WAT     H141234   8.541   8.204   3.010
13664WAT     H241235   8.698   8.244   3.028
13665WAT      O41236   3.231   1.413   8.468
13665WAT     H141237   3.278   1.333   8.431
13665WAT     H241238   3.246   1.418   8.567
13666WAT      O41239   1.446   7.982   7.646
13666WAT     H141240   1.480   7.911   7.584
13666WAT     H241241   1.359   8.017   7.613
13667WAT      O41242   9.615   6.791   0.690
13667WAT     H141243   9.688   6.809   0.624
13667WAT     H241244   9.604   6.870   0.750
13668WAT      O41245   1.950   8.280   8.332
13668WAT     H141246   1.880   8.347   8.308
13668WAT     H241247   1.937   8.251   8.427
13669WAT      O41248   5.762   1.486   1.443
13669WAT     H141249   5.688   1.422   1.422
13669WAT     H241250   5.735   1.544   1.519
13670WAT      O41251   2.315   0.021   0.140
13670WAT     H141252   2.410   0.003   0.166
13670WAT     H241253   2.305   0.117   0.116
13671WAT      O41254   4.174   5.962   6.402
13671WAT     H141255   4.182   5.933   6.497
13671WAT     H241256   4.125   5.894   6.349
13672WAT      O41257   6.372   5.344   4.519
13672WAT     H141258   6.408   5.419   4.464
13672WAT     H241259   6.438   5.323   4.592
13673WAT      O41260   1.939   5.005   7.885
13673WAT     H141261   2.029   5.041   7.859
13673WAT     H241262   1.942   4.974   7.980
13674WAT      O41263   5.712   7.218   3.576
13674WAT     H141264   5.800   7.243   3.535
13674WAT     H241265   5.720   7.130   3.623
13675WAT      O41266   1.183   5.850   0.386
13675WAT     H141267   1.217   5.928   0.438
13675WAT     H241268   1.220   5.853   0.293
13676WAT      O41269   1.947   8.917   8.349
13676WAT     H141270   2.009   8.961   8.284
13676WAT     H241271   1.997   8.848   8.401
13677WAT      O41272   3.190   0.057   1.275
13677WAT     H141273   3.187   0.156   1.262
13677WAT     H241274   3.276   0.033   1.321
13678WAT      O41275   3.119   0.528   1.086
13678WAT     H141276   3.177   0.497   1.011
13678WAT     H241277   3.151   0.617   1.118
13679WAT      O41278   2.047   8.171   5.537
13679WAT     H141279   1.977   8.231   5.497
13679WAT     H241280   2.051   8.186   5.635
13680WAT      O41281   4.477   2.518   1.993
13680WAT     H141282   4.557   2.553   2.041
13680WAT     H241283   4.442   2.437   2.039
13681WAT      O41284   2.866   6.016   3.574
13681WAT     H141285   2.893   6.035   3.669
13681WAT     H241286   2.832   5.923   3.567
13682WAT      O41287   1.455   2.849   4.156
13682WAT     H141288   1.398   2.779   4.112
13682WAT     H241289   1.413   2.939   4.144
13683WAT      O41290   4.888   2.542   7.981
13683WAT     H141291   4.879   2.457   8.031
13683WAT     H241292   4.797   2.584   7.971
13684WAT      O41293   9.610   0.927   7.346
13684WAT     H141294   9.686   0.973   7.392
13684WAT     H241295   9.527   0.983   7.355
13685WAT      O41296   7.686   8.414   8.847
13685WAT     H141297   7.691   8.387   8.943
13685WAT     H241298   7.745   8.354   8.792
13686WAT      O41299   8.408   8.229   8.019
13686WAT     H141300   8.441   8.251   8.110
13686WAT     H241301   8.452   8.289   7.952
13687WAT      O41302   6.698   2.787   4.029
13687WAT     H141303   6.659   2.696   4.041
13687WAT     H241304   6.737   2.796   3.938
13688WAT      O41305   9.171   2.448   7.049
13688WAT     H141306   9.077   2.463   7.078
13688WAT     H241307   9.228   2.431   7.130
13689WAT      O41308   9.223   5.029   0.747
13689WAT     H141309   9.236   5.014   0.845
13689WAT     H241310   9.312   5.047   0.705
13690WAT      O41311   6.214   4.847   9.121
13690WAT     H141312   6.252   4.802   9.202
13690WAT     H241313   6.268   4.928   9.099
13691WAT      O41314   0.211   8.589   3.692
13691WAT     H141315   0.215   8.507   3.636
13691WAT     H241316   0.158   8.659   3.645
13692WAT      O41317   4.894   5.661   3.578
13692WAT     H141318   4.979   5.711   3.588
13692WAT     H241319   4.817   5.724   3.579
13693WAT      O41320   5.537   8.228   4.627
13693WAT     H141321   5.442   8.214   4.655
13693WAT     H241322   5.595   8.232   4.709
13694WAT      O41323   4.842   5.579   1.442
13694WAT     H141324   4.745   5.568   1.463
13694WAT     H241325   4.858   5.560   1.345
13695WAT      O41326   5.970   4.341   2.891
13695WAT     H141327   6.048   4.305   2.840
13695WAT     H241328   5.938   4.425   2.848
13696WAT      O41329   8.756   1.609   6.995
13696WAT     H141330   8.744   1.602   7.094
13696WAT     H241331   8.734   1.701   6.965
13697WAT      O41332   4.357   5.307   6.609
13697WAT     H141333   4.313   5.218   6.623
13697WAT     H241334   4.344   5.336   6.514
13698WAT      O41335   2.259   6.426   0.997
13698WAT     H141336   2.251   6.383   1.087
13698WAT     H241337   2.264   6.525   1.008
13699WAT      O41338   1.901   7.586   4.066
13699WAT     H141339   1.861   7.652   4.131
13699WAT     H241340   1.857   7.497   4.078
13700WAT      O41341   0.266   1.450   3.962
13700WAT     H141342   0.172   1.432   3.933
13700WAT     H241343   0.279   1.548   3.976
13701WAT      O41344   3.552   9.111   2.011
13701WAT     H141345   3.501   9.098   2.096
13701WAT     H241346   3.589   9.204   2.008
13702WAT      O41347   2.876   4.761   8.378
13702WAT     H141348   2.860   4.671   8.336
13702WAT     H241349   2.927   4.749   8.463
13703WAT      O41350   5.048   1.847   9.881
13703WAT     H141351   5.102   1.766   9.860
13703WAT     H241352   5.108   1.925   9.894
13704WAT      O41353   7.072   7.307   5.677
13704WAT     H141354   7.096   7.402   5.658
13704WAT     H241355   7.099   7.249   5.600
13705WAT      O41356   7.763   2.146   9.849
13705WAT     H141357   7.802   2.194   9.771
13705WAT     H241358   7.664   2.156   9.848
13706WAT      O41359   0.023   6.424   7.133
13706WAT     H141360   0.077   6.412   7.049
13706WAT     H241361  -0.035   6.344   7.147
13707WAT      O41362   0.505   7.491   9.600
13707WAT     H141363   0.529   7.531   9.511
13707WAT     H241364   0.579   7.508   9.665
13708WAT      O41365   2.840   3.559   3.408
13708WAT     H141366   2.818   3.549   3.505
13708WAT     H241367   2.849   3.469   3.366
13709WAT      O41368   6.264   4.079   4.310
13709WAT     H141369   6.284   3.998   4.254
13709WAT     H241370   6.320   4.077   4.393
13710WAT      O41371   2.147   9.322   3.183
13710WAT     H141372   2.121   9.293   3.091
13710WAT     H241373   2.118   9.417   3.197
13711WAT      O41374   6.679   1.176   1.477
13711WAT     H141375   6.743   1.133   1.412
13711WAT     H241376   6.614   1.233   1.427
13712WAT      O41377   9.453   7.113   1.740
13712WAT     H141378   9.476   7.210   1.728
13712WAT     H241379   9.537   7.060   1.755
13713WAT      O41380   2.951   6.021   2.764
13713WAT     H141381   2.986   5.997   2.673
13713WAT     H241382   2.998   6.103   2.797
13714WAT      O41383   7.578   4.555   3.939
13714WAT     H141384   7.644   4.497   3.987
13714WAT     H241385   7.585   4.539   3.840
13715WAT      O41386   9.347   0.250   8.287
13715WAT     H141387   9.301   0.192   8.354
13715WAT     H241388   9.281   0.284   8.220
13716WAT      O41389   3.758   6.994   2.950
13716WAT     H141390   3.783   6.900   2.973
13716WAT     H241391   3.811   7.025   2.871
13717WAT      O41392   0.051   7.433   5.953
13717WAT     H141393  -0.012   7.490   6.005
13717WAT     H241394   0.120   7.394   6.014
13718WAT      O41395   1.990   5.615   3.946
13718WAT     H141396   1.952   5.705   3.924
13718WAT     H241397   1.968   5.551   3.872
13719WAT      O41398   9.120   5.895   7.628
13719WAT     H141399   9.135   5.962   7.555
13719WAT     H241400   9.048   5.928   7.689
13720WAT      O41401   1.443   7.551   5.704
13720WAT     H141402   1.380   7.550   5.781
13720WAT     H241403   1.465   7.646   5.680
13721WAT      O41404   0.759   2.523   8.880
13721WAT     H141405   0.728   2.552   8.970
13721WAT     H241406   0.684   2.476   8.833
13722WAT      O41407   3.648   7.601   8.739
13722WAT     H141408   3.686   7.685   8.777
13722WAT     H241409   3.679   7.589   8.645
13723WAT      O41410   4.122   0.941   5.379
13723WAT     H141411   4.210   0.965   5.336
13723WAT     H241412   4.120   0.844   5.401
13724WAT      O41413   7.311   5.975   1.205
13724WAT     H141414   7.379   5.978   1.278
13724WAT     H241415   7.229   5.929   1.239
13725WAT      O41416   4.039   8.872   6.284
13725WAT     H141417   4.028   8.829   6.374
13725WAT     H241418   4.081   8.962   6.296
13726WAT      O41419   8.846   3.227   8.349
13726WAT     H141420   8.758   3.205   8.307
13726WAT     H241421   8.831   3.277   8.434
13727WAT      O41422   6.745   4.770   8.154
13727WAT     H141423   6.738   4.695   8.087
13727WAT     H241424   6.745   4.732   8.246
13728WAT      O41425   1.062   7.640   5.758
13728WAT     H141426   1.049   7.729   5.802
13728WAT     H241427   1.144   7.596   5.794
13729WAT      O41428   0.571   4.327   8.456
13729WAT     H141429   0.556   4.267   8.535
13729WAT     H241430   0.599   4.273   8.377
13730WAT      O41431   8.929   6.927   1.184
13730WAT     H141432   8.926   6.923   1.084
13730WAT     H241433   8.882   6.847   1.222
13731WAT      O41434   4.618   6.112   4.436
13731WAT     H141435   4.586   6.185   4.377
13731WAT     H241436   4.641   6.150   4.526
13732WAT      O41437   2.093   7.974   9.089
13732WAT     H141438   2.108   8.072   9.108
13732WAT     H241439   2.014   7.964   9.029
13733WAT      O41440   5.047   8.509   7.779
13733WAT     H141441   5.010   8.537   7.867
13733WAT     H241442   5.138   8.548   7.767
13734WAT      O41443   5.226   6.593   1.416
13734WAT     H141444   5.323   6.616   1.408
13734WAT     H241445   5.190   6.574   1.325
13735WAT      O41446   1.543   8.874   4.276
13735WAT     H141447   1.559   8.883   4.374
13735WAT     H241448   1.516   8.962   4.238
13736WAT      O41449   7.610   2.283   0.780
13736WAT     H141450   7.619   2.269   0.878
13736WAT     H241451   7.514   2.299   0.757
13737WAT      O41452   6.421   2.294   8.859
13737WAT     H141453   6.350   2.259   8.797
13737WAT     H241454   6.384   2.301   8.951
13738WAT      O41455   8.125   6.585   1.868
13738WAT     H141456   8.217   6.618   1.850
13738WAT     H241457   8.110   6.499   1.821
13739WAT      O41458   4.429   4.236   4.634
13739WAT     H141459   4.472   4.231   4.724
13739WAT     H241460   4.394   4.329   4.619
13740WAT      O41461   0.631   8.875   4.374
13740WAT     H141462   0.577   8.930   4.437
13740WAT     H241463   0.625   8.914   4.282
13741WAT      O41464   4.188   2.451   9.307
13741WAT     H141465   4.196   2.395   9.225
13741WAT     H241466   4.094   2.483   9.316
13742WAT      O41467   7.235   4.508   2.542
13742WAT     H141468   7.309   4.487   2.478
13742WAT     H241469   7.179   4.427   2.555
13743WAT      O41470   8.246   4.481   7.102
13743WAT     H141471   8.319   4.430   7.055
13743WAT     H241472   8.208   4.549   7.040
13744WAT      O41473   0.066   0.680   3.805
13744WAT     H141474   0.149   0.645   3.849
13744WAT     H241475   0.045   0.771   3.841
13745WAT      O41476   7.845   8.722   0.188
13745WAT     H141477   7.898   8.647   0.148
13745WAT     H241478   7.805   8.777   0.115
13746WAT      O41479   9.695   0.130   5.843
13746WAT     H141480   9.627   0.065   5.809
13746WAT     H241481   9.686   0.216   5.793
13747WAT      O41482   3.431   9.557   1.315
13747WAT     H141483   3.423   9.501   1.397
13747WAT     H241484   3.341   9.568   1.273
13748WAT      O41485   4.248   5.749   8.000
13748WAT     H141486   4.178   5.703   8.054
13748WAT     H241487   4.301   5.810   8.059
13749WAT      O41488   0.395   1.051   1.704
13749WAT     H141489   0.300   1.035   1.732
13749WAT     H241490   0.454   0.982   1.745
13750WAT      O41491   1.688   2.651   2.782
13750WAT     H141492   1.722   2.667   2.690
13750WAT     H241493   1.590   2.668   2.785
13751WAT      O41494   2.045   0.974   0.280
13751WAT     H141495   1.980   0.913   0.326
13751WAT     H241496   2.117   0.920   0.238
13752WAT      O41497   0.803   0.050   9.163
13752WAT     H141498   0.812   0.149   9.176
13752WAT     H241499   0.791   0.006   9.253
13753WAT      O41500   7.013   0.501   8.108
13753WAT     H141501   6.989   0.496   8.205
13753WAT     H241502   6.947   0.559   8.061
13754WAT      O41503   2.887   3.163   2.557
13754WAT     H141504   2.817   3.107   2.601
13754WAT     H241505   2.845   3.239   2.509
13755WAT      O41506   2.924   4.658   3.180
13755WAT     H141507   2.854   4.698   3.121
13755WAT     H241508   2.918   4.559   3.176
13756WAT      O41509   7.175   1.954   6.351
13756WAT     H141510   7.084   1.960   6.392
13756WAT     H241511   7.237   1.907   6.414
13757WAT      O41512   0.676   0.922   4.994
13757WAT     H141513   0.705   1.017   5.011
13757WAT     H241514   0.643   0.914   4.900
13758WAT      O41515   2.763   6.446   5.419
13758WAT     H141516   2.784   6.465   5.515
13758WAT     H241517   2.664   6.430   5.409
13759WAT      O41518   8.825   9.361   7.723
13759WAT     H141519   8.778   9.426   7.783
13759WAT     H241520   8.915   9.397   7.699
13760WAT      O41521   6.633   5.367   7.924
13760WAT     H141522   6.677   5.277   7.933
13760WAT     H241523   6.694   5.429   7.875
13761WAT      O41524   2.457   4.012   8.351
13761WAT     H141525   2.502   3.933   8.309
13761WAT     H241526   2.366   3.984   8.384
13762WAT      O41527   1.237   3.898   5.626
13762WAT     H141528   1.208   3.823   5.686
13762WAT     H241529   1.158   3.952   5.600
13763WAT      O41530   6.849   7.523   9.563
13763WAT     H141531   6.806   7.612   9.578
13763WAT     H241532   6.947   7.530   9.581
13764WAT      O41533   9.633   8.721   7.623
13764WAT     H141534   9.666   8.791   7.560
13764WAT     H241535   9.629   8.759   7.716
13765WAT      O41536   4.315   6.179   7.843
13765WAT     H141537   4.356   6.211   7.757
13765WAT     H241538   4.235   6.123   7.822
13766WAT      O41539   3.968   0.040   2.051
13766WAT     H141540   4.058   0.074   2.022
13766WAT     H241541   3.912   0.020   1.970
13767WAT      O41542   9.682   9.608   3.211
13767WAT     H141543   9.652   9.531   3.155
13767WAT     H241544   9.740   9.574   3.285
13768WAT      O41545   0.740   8.143   9.155
13768WAT     H141546   0.656   8.197   9.166
13768WAT     H241547   0.817   8.194   9.192
13769WAT      O41548   0.821   5.136   5.000
13769WAT     H141549   0.917   5.111   5.010
13769WAT     H241550   0.810   5.233   5.021
13770WAT      O41551   2.834   1.774   1.143
13770WAT     H141552   2.766   1.848   1.143
13770WAT     H241553   2.889   1.779   1.226
13771WAT      O41554   1.677   0.913   1.192
13771WAT     H141555   1.740   0.842   1.159
13771WAT     H241556   1.630   0.955   1.114
13772WAT      O41557   1.343   2.897   7.484
13772WAT     H141558   1.406   2.929   7.414
13772WAT     H241559   1.299   2.975   7.529
13773WAT      O41560   0.905   3.582   3.339
13773WAT     H141561   0.844   3.571   3.261
13773WAT     H241562   0.859   3.552   3.422
13774WAT      O41563   3.209   4.457   7.711
13774WAT     H141564   3.141   4.526   7.734
13774WAT     H241565   3.266   4.490   7.635
13775WAT      O41566   8.133   4.494   8.089
13775WAT     H141567   8.058   4.471   8.026
13775WAT     H241568   8.181   4.575   8.055
13776WAT      O41569   3.436   1.100   9.814
13776WAT     H141570   3.502   1.172   9.835
13776WAT     H241571   3.453   1.066   9.721
13777WAT      O41572   7.082   2.934   1.787
13777WAT     H141573   7.149   2.917   1.859
13777WAT     H241574   7.070   3.033   1.776
13778WAT      O41575   8.964   6.495   3.441
13778WAT     H141576   8.932   6.538   3.357
13778WAT     H241577   8.896   6.508   3.513
13779WAT      O41578   7.026   1.112   6.505
13779WAT     H141579   7.077   1.192   6.536
13779WAT     H241580   6.937   1.108   6.552
13780WAT      O41581   9.180   5.605   4.215
13780WAT     H141582   9.155   5.696   4.247
13780WAT     H241583   9.263   5.610   4.161
13781WAT      O41584   8.631   3.824   4.999
13781WAT     H141585   8.717   3.776   4.987
13781WAT     H241586   8.559   3.759   5.021
13782WAT      O41587   1.200   3.988   1.664
13782WAT     H141588   1.267   4.062   1.676
13782WAT     H241589   1.108   4.024   1.681
13783WAT      O41590   4.214   1.794   4.280
13783WAT     H141591   4.201   1.846   4.364
13783WAT     H241592   4.240   1.857   4.206
13784WAT      O41593   0.392   4.115   2.298
13784WAT     H141594   0.370   4.209   2.274
13784WAT     H241595   0.455   4.077   2.231
13785WAT      O41596   3.101   1.590   7.411
13785WAT     H141597   3.038   1.514   7.425
13785WAT     H241598   3.147   1.580   7.323
13786WAT      O41599   3.026   1.738   1.325
13786WAT     H141600   3.119   1.707   1.346
13786WAT     H241601   3.019   1.836   1.343
13787WAT      O41602   8.460   1.408   7.261
13787WAT     H141603   8.552   1.446   7.265
13787WAT     H241604   8.393   1.481   7.270
13788WAT      O41605   5.715   8.518   8.181
13788WAT     H141606   5.725   8.566   8.268
13788WAT     H241607   5.714   8.419   8.198
13789WAT      O41608   1.001   6.754   9.849
13789WAT     H141609   1.068   6.681   9.834
13789WAT     H241610   0.929   6.749   9.780
13790WAT      O41611   0.558   5.438   3.960
13790WAT     H141612   0.494   5.430   4.037
13790WAT     H241613   0.617   5.517   3.974
13791WAT      O41614   1.075   4.343   8.919
13791WAT     H141615   1.173   4.332   8.902
13791WAT     H241616   1.056   4.436   8.948
13792WAT      O41617   1.090   9.779   7.705
13792WAT     H141618   1.179   9.809   7.739
13792WAT     H241619   1.103   9.723   7.624
13793WAT      O41620   1.145   0.894   2.621
13793WAT     H141621   1.080   0.962   2.588
13793WAT     H241622   1.235   0.912   2.581
13794WAT      O41623   9.456   5.203   7.537
13794WAT     H141624   9.376   5.252   7.502
13794WAT     H241625   9.538   5.236   7.490
13795WAT      O41626   4.705   1.344   9.749
13795WAT     H141627   4.620   1.301   9.780
13795WAT     H241628   4.704   1.353   9.649
13796WAT      O41629   6.999   4.436   6.765
13796WAT     H141630   7.078   4.496   6.752
13796WAT     H241631   6.937   4.446   6.687
13797WAT      O41632   9.721   8.051   2.534
13797WAT     H141633   9.705   8.143   2.500
13797WAT     H241634   9.634   8.004   2.547
13798WAT      O41635   0.779   5.662   1.645
13798WAT     H141636   0.759   5.719   1.724
13798WAT     H241637   0.694   5.638   1.599
13799WAT      O41638   0.972   5.806   6.373
13799WAT     H141639   1.043   5.801   6.303
13799WAT     H241640   0.893   5.751   6.344
13800WAT      O41641   8.761   7.081   6.299
13800WAT     H141642   8.792   7.010   6.236
13800WAT     H241643   8.790   7.171   6.265
13801WAT      O41644   5.223   0.533   3.812
13801WAT     H141645   5.189   0.626   3.798
13801WAT     H241646   5.145   0.472   3.831
13802WAT      O41647   6.938   7.732   4.223
13802WAT     H141648   6.937   7.660   4.293
13802WAT     H241649   6.997   7.806   4.252
13803WAT      O41650   9.668   9.511   3.913
13803WAT     H141651   9.631   9.594   3.955
13803WAT     H241652   9.651   9.434   3.974
13804WAT      O41653   6.863   7.659   3.486
13804WAT     H141654   6.866   7.564   3.454
13804WAT     H241655   6.944   7.678   3.541
13805WAT      O41656   8.093   5.298   9.286
13805WAT     H141657   8.193   5.309   9.287
13805WAT     H241658   8.056   5.322   9.376
13806WAT      O41659   8.009   6.153   1.261
13806WAT     H141660   8.052   6.067   1.289
13806WAT     H241661   8.074   6.208   1.210
13807WAT      O41662   6.465   7.112   0.899
13807WAT     H141663   6.502   7.020   0.908
13807WAT     H241664   6.505   7.156   0.818
13808WAT      O41665   5.557   7.218   1.506
13808WAT     H141666   5.614   7.267   1.440
13808WAT     H241667   5.612   7.195   1.587
13809WAT      O41668   2.021   8.275   1.823
13809WAT     H141669   1.999   8.191   1.873
13809WAT     H241670   2.071   8.252   1.739
13810WAT      O41671   0.512   7.357   2.464
13810WAT     H141672   0.600   7.401   2.445
13810WAT     H241673   0.520   7.258   2.450
13811WAT      O41674   1.505   8.493   3.379
13811WAT     H141675   1.442   8.566   3.406
13811WAT     H241676   1.464   8.437   3.308
13812WAT      O41677   4.924   2.272   7.756
13812WAT     H141678   4.858   2.260   7.830
13812WAT     H241679   4.889   2.338   7.690
13813WAT      O41680   8.258   5.866   4.232
13813WAT     H141681   8.254   5.888   4.329
13813WAT     H241682   8.217   5.940   4.179
13814WAT      O41683   4.784   0.098   1.359
13814WAT     H141684   4.786   0.102   1.259
13814WAT     H241685   4.876   0.082   1.393
13815WAT      O41686   8.256   7.264   3.321
13815WAT     H141687   8.160   7.243   3.339
13815WAT     H241688   8.302   7.183   3.283
13816WAT      O41689   8.873   6.150   5.799
13816WAT     H141690   8.892   6.077   5.865
13816WAT     H241691   8.853   6.110   5.710
13817WAT      O41692   8.844   2.626   1.912
13817WAT     H141693   8.935   2.653   1.941
13817WAT     H241694   8.850   2.576   1.825
13818WAT      O41695   6.520   8.384   6.033
13818WAT     H141696   6.539   8.294   5.993
13818WAT     H241697   6.426   8.385   6.069
13819WAT      O41698   4.154   6.015   4.995
13819WAT     H141699   4.207   5.934   4.970
13819WAT     H241700   4.058   5.991   5.008
13820WAT      O41701   9.276   2.181   8.876
13820WAT     H141702   9.362   2.136   8.901
13820WAT     H241703   9.224   2.203   8.958
13821WAT      O41704   6.198   5.365   1.783
13821WAT     H141705   6.267   5.395   1.849
13821WAT     H241706   6.142   5.444   1.755
13822WAT      O41707   6.527   3.635   5.888
13822WAT     H141708   6.625   3.645   5.906
13822WAT     H241709   6.476   3.699   5.946
13823WAT      O41710   6.790   6.924   6.701
13823WAT     H141711   6.784   6.855   6.773
13823WAT     H241712   6.788   7.015   6.742
13824WAT      O41713   8.414   6.442   4.035
13824WAT     H141714   8.436   6.523   3.980
13824WAT     H241715   8.334   6.397   3.996
13825WAT      O41716   9.293   0.125   9.451
13825WAT     H141717   9.347   0.056   9.499
13825WAT     H241718   9.342   0.154   9.368
13826WAT      O41719   2.093   2.634   6.251
13826WAT     H141720   2.157   2.599   6.182
13826WAT     H241721   2.100   2.733   6.255
13827WAT      O41722   8.250   3.226   7.982
13827WAT     H141723   8.238   3.318   7.945
13827WAT     H241724   8.340   3.190   7.955
13828WAT      O41725   2.944   4.344   9.775
13828WAT     H141726   3.024   4.285   9.788
13828WAT     H241727   2.890   4.309   9.698
13829WAT      O41728   3.166   2.542   7.876
13829WAT     H141729   3.082   2.577   7.917
13829WAT     H241730   3.161   2.442   7.870
13830WAT      O41731   3.244   4.521   9.574
13830WAT     H141732   3.333   4.537   9.616
13830WAT     H241733   3.173   4.567   9.627
13831WAT      O41734   7.665   3.627   0.586
13831WAT     H141735   7.568   3.632   0.611
13831WAT     H241736   7.720   3.661   0.662
13832WAT      O41737   8.769   5.966   3.955
13832WAT     H141738   8.799   5.884   3.907
13832WAT     H241739   8.740   6.035   3.888
13833WAT      O41740   8.107   4.701   2.284
13833WAT     H141741   8.099   4.613   2.237
13833WAT     H241742   8.203   4.730   2.283
13834WAT      O41743   0.503   1.520   3.079
13834WAT     H141744   0.462   1.611   3.084
13834WAT     H241745   0.490   1.472   3.166
13835WAT      O41746   2.698   4.881   8.216
13835WAT     H141747   2.772   4.848   8.275
13835WAT     H241748   2.702   4.981   8.210
13836WAT      O41749   2.331   9.567   3.116
13836WAT     H141750   2.241   9.566   3.074
13836WAT     H241751   2.339   9.645   3.178
13837WAT      O41752   0.420   4.816   1.681
13837WAT     H141753   0.354   4.825   1.756
13837WAT     H241754   0.505   4.778   1.717
13838WAT      O41755   1.825   1.295   8.204
13838WAT     H141756   1.889   1.352   8.152
13838WAT     H241757   1.854   1.291   8.299
13839WAT      O41758   3.367   4.318   8.305
13839WAT     H141759   3.272   4.337   8.282
13839WAT     H241760   3.402   4.245   8.245
13840WAT      O41761   7.372   9.405   5.563
13840WAT     H141762   7.446   9.441   5.620
13840WAT     H241763   7.397   9.414   5.467
13841WAT      O41764   8.801   7.607   8.197
13841WAT     H141765   8.831   7.588   8.103
13841WAT     H241766   8.724   7.549   8.220
13842WAT      O41767   6.982   9.708   6.264
13842WAT     H141768   6.962   9.804   6.283
13842WAT     H241769   7.081   9.693   6.267
13843WAT      O41770   7.967   8.864   4.646
13843WAT     H141771   7.948   8.766   4.635
13843WAT     H241772   8.063   8.876   4.671
13844WAT      O41773   1.473   3.495   3.910
13844WAT     H141774   1.503   3.412   3.863
13844WAT     H241775   1.406   3.543   3.854
13845WAT      O41776   7.576   0.134   6.564
13845WAT     H141777   7.620   0.223   6.577
13845WAT     H241778   7.644   0.062   6.577
13846WAT      O41779   8.513   3.406   5.806
13846WAT     H141780   8.545   3.314   5.825
13846WAT     H241781   8.461   3.441   5.884
13847WAT      O41782   9.604   3.145   6.108
13847WAT     H141783   9.598   3.205   6.187
13847WAT     H241784   9.525   3.160   6.049
13848WAT      O41785   1.215   3.007   1.995
13848WAT     H141786   1.308   3.023   2.026
13848WAT     H241787   1.190   2.911   2.012
13849WAT      O41788   2.761   6.932   7.185
13849WAT     H141789   2.670   6.933   7.143
13849WAT     H241790   2.755   6.958   7.281
13850WAT      O41791   3.120   1.218   2.644
13850WAT     H141792   3.037   1.274   2.650
13850WAT     H241793   3.172   1.246   2.563
13851WAT      O41794   2.745   8.621   8.085
13851WAT     H141795   2.819   8.623   8.018
13851WAT     H241796   2.780   8.646   8.175
13852WAT      O41797   4.012   9.808   4.667
13852WAT     H141798   3.943   9.736   4.664
13852WAT     H241799   4.046   9.818   4.760
13853WAT      O41800   8.018   2.026   9.775
13853WAT     H141801   8.049   1.953   9.836
13853WAT     H241802   7.946   2.079   9.819
13854WAT      O41803   2.221   9.111   9.113
13854WAT     H141804   2.156   9.186   9.100
13854WAT     H241805   2.246   9.104   9.209
13855WAT      O41806   4.268   9.483   6.963
13855WAT     H141807   4.176   9.520   6.949
13855WAT     H241808   4.299   9.505   7.056
13856WAT      O41809   1.857   5.851   1.642
13856WAT     H141810   1.799   5.876   1.564
13856WAT     H241811   1.819   5.769   1.685
13857WAT      O41812   3.285   8.206   3.746
13857WAT     H141813   3.195   8.190   3.788
13857WAT     H241814   3.349   8.136   3.778
13858WAT      O41815   6.543   9.316   4.815
13858WAT     H141816   6.473   9.260   4.860
13858WAT     H241817   6.505   9.353   4.729
13859WAT      O41818   3.642   6.052   0.973
13859WAT     H141819   3.641   6.140   0.924
13859WAT     H241820   3.650   5.978   0.907
13860WAT      O41821   7.867   8.848   9.086
13860WAT     H141822   7.894   8.827   8.992
13860WAT     H241823   7.781   8.899   9.085
13861WAT      O41824   1.339   4.365   9.715
13861WAT     H141825   1.395   4.285   9.693
13861WAT     H241826   1.245   4.350   9.686
13862WAT      O41827   2.967   8.382   8.918
13862WAT     H141828   3.024   8.463   8.903
13862WAT     H241829   3.011   8.322   8.985
13863WAT      O41830   1.577   8.173   5.714
13863WAT     H141831   1.644   8.121   5.660
13863WAT     H241832   1.490   8.176   5.665
13864WAT      O41833   7.585   6.667   8.914
13864WAT     H141834   7.547   6.754   8.883
13864WAT     H241835   7.511   6.606   8.942
13865WAT      O41836   7.996   8.507   2.930
13865WAT     H141837   7.974   8.410   2.940
13865WAT     H241838   8.075   8.529   2.987
13866WAT      O41839   8.411   5.451   3.043
13866WAT     H141840   8.412   5.394   2.961
13866WAT     H241841   8.330   5.428   3.098
13867WAT      O41842   4.085   5.686   1.381
13867WAT     H141843   4.002   5.631   1.381
13867WAT     H241844   4.061   5.783   1.372
13868WAT      O41845   7.463   2.743   0.918
13868WAT     H141846   7.416   2.670   0.869
13868WAT     H241847   7.527   2.788   0.857
13869WAT      O41848   5.486   1.265   1.988
13869WAT     H141849   5.423   1.189   1.999
13869WAT     H241850   5.485   1.297   1.894
13870WAT      O41851   9.813   9.249   1.658
13870WAT     H141852   9.840   9.273   1.751
13870WAT     H241853   9.729   9.194   1.661
13871WAT      O41854   8.272   6.450   4.606
13871WAT     H141855   8.292   6.371   4.548
13871WAT     H241856   8.247   6.528   4.548
13872WAT      O41857   8.875   9.044   2.725
13872WAT     H141858   8.835   9.089   2.805
13872WAT     H241859   8.852   8.947   2.727
13873WAT      O41860   0.233   2.064   2.703
13873WAT     H141861   0.198   2.005   2.776
13873WAT     H241862   0.234   2.159   2.735
13874WAT      O41863   8.868   8.809   2.271
13874WAT     H141864   8.855   8.886   2.333
13874WAT     H241865   8.963   8.805   2.243
13875WAT      O41866   7.387   9.548   0.979
13875WAT     H141867   7.382   9.623   0.913
13875WAT     H241868   7.480   9.541   1.015
13876WAT      O41869   4.735   6.355   4.050
13876WAT     H141870   4.636   6.348   4.054
13876WAT     H241871   4.775   6.264   4.061
13877WAT      O41872   1.177   2.748   7.750
13877WAT     H141873   1.273   2.724   7.738
13877WAT     H241874   1.151   2.816   7.682
13878WAT      O41875   9.023   9.301   9.418
13878WAT     H141876   9.085   9.235   9.374
13878WAT     H241877   8.957   9.334   9.351
13879WAT      O41878   0.347   0.212   6.701
13879WAT     H141879   0.348   0.310   6.722
13879WAT     H241880   0.411   0.193   6.626
13880WAT      O41881   5.331   2.540   8.106
13880WAT     H141882   5.430   2.546   8.119
13880WAT     H241883   5.286   2.547   8.195
13881WAT      O41884   1.264   9.228   5.987
13881WAT     H141885   1.362   9.219   6.005
13881WAT     H241886   1.228   9.304   6.041
13882WAT      O41887   1.309   7.710   5.395
13882WAT     H141888   1.355   7.635   5.348
13882WAT     H241889   1.213   7.688   5.408
13883WAT      O41890   4.470   7.153   7.250
13883WAT     H141891   4.545   7.211   7.282
13883WAT     H241892   4.445   7.179   7.157
13884WAT      O41893   0.701   8.937   1.419
13884WAT     H141894   0.729   9.009   1.482
13884WAT     H241895   0.619   8.965   1.369
13885WAT      O41896   6.442   4.989   7.132
13885WAT     H141897   6.474   5.075   7.092
13885WAT     H241898   6.483   4.976   7.222
13886WAT      O41899   5.814   2.908   6.570
13886WAT     H141900   5.778   2.988   6.522
13886WAT     H241901   5.738   2.858   6.613
13887WAT      O41902   3.296   5.220   8.335
13887WAT     H141903   3.383   5.237   8.380
13887WAT     H241904   3.260   5.132   8.364
13888WAT      O41905   9.872   0.629   7.277
13888WAT     H141906   9.863   0.648   7.375
13888WAT     H241907   9.878   0.530   7.263
13889WAT      O41908   5.873   7.779   3.688
13889WAT     H141909   5.836   7.755   3.778
13889WAT     H241910   5.853   7.705   3.623
13890WAT      O41911   9.005   5.836   1.871
13890WAT     H141912   9.007   5.826   1.970
13890WAT     H241913   9.063   5.912   1.843
13891WAT      O41914   3.208   8.758   0.376
13891WAT     H141915   3.193   8.856   0.382
13891WAT     H241916   3.162   8.723   0.294
13892WAT      O41917   5.465   9.333   7.876
13892WAT     H141918   5.416   9.366   7.956
13892WAT     H241919   5.556   9.301   7.902
13893WAT      O41920   1.637   6.374   6.633
13893WAT     H141921   1.695   6.455   6.637
13893WAT     H241922   1.632   6.332   6.723
13894WAT      O41923   3.034   2.656   4.626
13894WAT     H141924   3.030   2.683   4.722
13894WAT     H241925   3.098   2.715   4.577
13895WAT      O41926   0.720   5.546   4.381
13895WAT     H141927   0.769   5.598   4.311
13895WAT     H241928   0.626   5.579   4.388
13896WAT      O41929   2.106   7.023   8.899
13896WAT     H141930   2.080   6.966   8.821
13896WAT     H241931   2.065   7.114   8.889
13897WAT      O41932   9.410   1.095   1.362
13897WAT     H141933   9.343   1.168   1.346
13897WAT     H241934   9.362   1.008   1.368
13898WAT      O41935   1.991   5.300   4.697
13898WAT     H141936   1.918   5.272   4.635
13898WAT     H241937   1.975   5.261   4.787
13899WAT      O41938   4.573   6.038   5.964
13899WAT     H141939   4.555   6.116   5.904
13899WAT     H241940   4.659   5.995   5.937
13900WAT      O41941   7.496   5.906   3.104
13900WAT     H141942   7.513   5.809   3.117
13900WAT     H241943   7.417   5.934   3.158
13901WAT      O41944   9.035   1.980   6.000
13901WAT     H141945   9.096   2.000   6.077
13901WAT     H241946   9.041   2.055   5.934
13902WAT      O41947   7.980   3.826   5.553
13902WAT     H141948   8.044   3.860   5.622
13902WAT     H241949   7.890   3.816   5.594
13903WAT      O41950   7.998   5.298   4.543
13903WAT     H141951   7.954   5.275   4.631
13903WAT     H241952   7.997   5.397   4.530
13904WAT      O41953   8.212   4.167   8.698
13904WAT     H141954   8.211   4.077   8.741
13904WAT     H241955   8.223   4.157   8.599
13905WAT      O41956   3.246   6.978   0.297
13905WAT     H141957   3.241   6.893   0.245
13905WAT     H241958   3.254   7.055   0.234
13906WAT      O41959   4.408   6.386   6.704
13906WAT     H141960   4.439   6.305   6.654
13906WAT     H241961   4.364   6.450   6.641
13907WAT      O41962   8.895   9.316   7.206
13907WAT     H141963   8.891   9.227   7.159
13907WAT     H241964   8.976   9.319   7.264
13908WAT      O41965   3.050   5.868   4.410
13908WAT     H141966   3.030   5.854   4.507
13908WAT     H241967   2.978   5.923   4.369
13909WAT      O41968   5.571   4.645   7.614
13909WAT     H141969   5.587   4.576   7.543
13909WAT     H241970   5.612   4.615   7.700
13910WAT      O41971   8.877   3.090   1.212
13910WAT     H141972   8.879   2.997   1.248
13910WAT     H241973   8.938   3.096   1.133
13911WAT      O41974   9.316   2.544   1.173
13911WAT     H141975   9.408   2.574   1.149
13911WAT     H241976   9.312   2.445   1.176
13912WAT      O41977   4.738   7.249   7.300
13912WAT     H141978   4.765   7.154   7.317
13912WAT     H241979   4.751   7.270   7.203
13913WAT      O41980   1.377   2.528   2.996
13913WAT     H141981   1.374   2.622   2.964
13913WAT     H241982   1.375   2.527   3.096
13914WAT      O41983   0.900   4.335   3.928
13914WAT     H141984   0.959   4.295   3.858
13914WAT     H241985   0.808   4.298   3.919
13915WAT      O41986   1.805   6.694   9.507
13915WAT     H141987   1.843   6.763   9.446
13915WAT     H241988   1.879   6.639   9.546
13916WAT      O41989   2.079   3.852   1.911
13916WAT     H141990   2.074   3.852   2.011
13916WAT     H241991   2.173   3.833   1.882
13917WAT      O41992   9.587   9.186   3.760
13917WAT     H141993   9.573   9.252   3.834
13917WAT     H241994   9.503   9.180   3.705
13918WAT      O41995   7.422   5.191   0.298
13918WAT     H141996   7.476   5.138   0.363
13918WAT     H241997   7.348   5.238   0.346
13919WAT      O41998   7.183   4.884   5.161
13919WAT     H141999   7.164   4.979   5.134
13919WAT     H242000   7.272   4.880   5.207
13920WAT      O42001   9.549   4.288   3.687
13920WAT     H142002   9.636   4.304   3.642
13920WAT     H242003   9.485   4.247   3.622
13921WAT      O42004   2.754   1.182   7.464
13921WAT     H142005   2.733   1.197   7.368
13921WAT     H242006   2.675   1.139   7.509
13922WAT      O42007   1.916   3.718   8.315
13922WAT     H142008   1.997   3.765   8.349
13922WAT     H242009   1.867   3.675   8.391
13923WAT      O42010   6.765   4.540   8.896
13923WAT     H142011   6.812   4.627   8.883
13923WAT     H242012   6.832   4.466   8.906
13924WAT      O42013   3.786   1.799   6.340
13924WAT     H142014   3.864   1.746   6.375
13924WAT     H242015   3.722   1.815   6.414
13925WAT      O42016   4.120   1.902   2.977
13925WAT     H142017   4.104   1.817   2.927
13925WAT     H242018   4.094   1.980   2.920
13926WAT      O42019   0.795   0.258   9.887
13926WAT     H142020   0.715   0.228   9.836
13926WAT     H242021   0.809   0.356   9.874
13927WAT      O42022   2.134   8.321   7.720
13927WAT     H142023   2.183   8.234   7.730
13927WAT     H242024   2.199   8.397   7.727
13928WAT      O42025   2.448   3.069   8.707
13928WAT     H142026   2.443   3.149   8.766
13928WAT     H242027   2.368   3.011   8.724
13929WAT      O42028   5.942   7.269   3.437
13929WAT     H142029   5.948   7.346   3.373
13929WAT     H242030   6.021   7.269   3.497
13930WAT      O42031   1.242   7.020   5.476
13930WAT     H142032   1.157   6.971   5.494
13930WAT     H242033   1.258   7.023   5.377
13931WAT      O42034   1.735   6.334   4.426
13931WAT     H142035   1.815   6.306   4.479
13931WAT     H242036   1.661   6.268   4.440
13932WAT      O42037   0.594   0.947   7.871
13932WAT     H142038   0.666   0.994   7.923
13932WAT     H242039   0.571   1.000   7.791
13933WAT      O42040   3.247   3.871   1.248
13933WAT     H142041   3.150   3.847   1.244
13933WAT     H242042   3.265   3.946   1.185
13934WAT      O42043   3.202   9.024   0.839
13934WAT     H142044   3.139   8.998   0.912
13934WAT     H242045   3.151   9.050   0.757
13935WAT      O42046   3.987   2.962   4.742
13935WAT     H142047   3.995   2.984   4.645
13935WAT     H242048   3.985   2.863   4.754
13936WAT      O42049   4.673   0.373   2.327
13936WAT     H142050   4.635   0.454   2.281
13936WAT     H242051   4.632   0.290   2.289
13937WAT      O42052   6.534   7.446   1.950
13937WAT     H142053   6.456   7.418   1.893
13937WAT     H242054   6.616   7.453   1.893
13938WAT      O42055   0.312   9.188   5.148
13938WAT     H142056   0.297   9.177   5.247
13938WAT     H242057   0.236   9.148   5.098
13939WAT      O42058   2.481   3.583   4.097
13939WAT     H142059   2.412   3.623   4.037
13939WAT     H242060   2.493   3.487   4.075
13940WAT      O42061   7.030   3.805   7.638
13940WAT     H142062   7.100   3.743   7.603
13940WAT     H242063   6.944   3.789   7.589
13941WAT      O42064   8.521   2.338   3.352
13941WAT     H142065   8.566   2.418   3.311
13941WAT     H242066   8.588   2.283   3.400
13942WAT      O42067   2.935   4.975   9.294
13942WAT     H142068   2.850   5.028   9.284
13942WAT     H242069   2.923   4.885   9.253
13943WAT      O42070   5.621   0.214   1.557
13943WAT     H142071   5.666   0.280   1.497
13943WAT     H242072   5.687   0.146   1.587
13944WAT      O42073   3.056   0.256   0.094
13944WAT     H142074   3.121   0.332   0.104
13944WAT     H242075   2.973   0.290   0.050
13945WAT      O42076   1.992   7.996   8.115
13945WAT     H142077   1.908   7.991   8.170
13945WAT     H242078   2.021   8.092   8.108
13946WAT      O42079   3.921   8.342   5.617
13946WAT     H142080   3.959   8.431   5.643
13946WAT     H242081   3.868   8.352   5.533
13947WAT      O42082   4.048   2.903   2.653
13947WAT     H142083   4.130   2.849   2.637
13947WAT     H242084   4.073   2.991   2.694
13948WAT      O42085   7.990   7.538   4.348
13948WAT     H142086   7.981   7.571   4.442
13948WAT     H242087   7.927   7.588   4.288
13949WAT      O42088   0.936   9.330   7.946
13949WAT     H142089   1.026   9.351   7.985
13949WAT     H242090   0.864   9.365   8.007
13950WAT      O42091   2.770   0.215   2.554
13950WAT     H142092   2.678   0.229   2.518
13950WAT     H242093   2.769   0.140   2.620
13951WAT      O42094   6.882   9.466   9.549
13951WAT     H142095   6.802   9.468   9.489
13951WAT     H242096   6.870   9.395   9.618
13952WAT      O42097   4.051   9.423   1.060
13952WAT     H142098   4.137   9.403   1.014
13952WAT     H242099   4.035   9.521   1.062
13953WAT      O42100   2.986   9.353   2.008
13953WAT     H142101   3.014   9.391   1.920
13953WAT     H242102   2.953   9.426   2.067
13954WAT      O42103   7.233   9.789   9.609
13954WAT     H142104   7.261   9.847   9.686
13954WAT     H242105   7.296   9.802   9.533
13955WAT      O42106   4.312   1.145   8.663
13955WAT     H142107   4.411   1.152   8.646
13955WAT     H242108   4.266   1.111   8.581
13956WAT      O42109   9.621   7.267   8.120
13956WAT     H142110   9.534   7.306   8.149
13956WAT     H242111   9.657   7.319   8.042
13957WAT      O42112   4.078   3.694   7.652
13957WAT     H142113   4.108   3.717   7.745
13957WAT     H242114   4.016   3.616   7.655
13958WAT      O42115   6.814   7.411   2.775
13958WAT     H142116   6.847   7.363   2.694
13958WAT     H242117   6.742   7.475   2.748
13959WAT      O42118   4.093   4.570   7.036
13959WAT     H142119   4.146   4.533   6.960
13959WAT     H242120   4.090   4.670   7.029
13960WAT      O42121   9.476   8.288   0.590
13960WAT     H142122   9.449   8.379   0.622
13960WAT     H242123   9.552   8.296   0.527
13961WAT      O42124   5.632   3.851   1.504
13961WAT     H142125   5.609   3.942   1.538
13961WAT     H242126   5.684   3.801   1.574
13962WAT      O42127   1.379   4.369   1.909
13962WAT     H142128   1.331   4.339   1.991
13962WAT     H242129   1.470   4.404   1.934
13963WAT      O42130   1.855   7.661   3.371
13963WAT     H142131   1.908   7.732   3.326
13963WAT     H242132   1.897   7.638   3.459
13964WAT      O42133   2.355   4.986   4.794
13964WAT     H142134   2.414   4.986   4.874
13964WAT     H242135   2.275   4.929   4.812
13965WAT      O42136   2.753   4.548   0.704
13965WAT     H142137   2.731   4.598   0.621
13965WAT     H242138   2.785   4.611   0.775
13966WAT      O42139   9.556   3.062   2.589
13966WAT     H142140   9.472   3.089   2.542
13966WAT     H242141   9.539   3.054   2.687
13967WAT      O42142   8.349   3.989   2.776
13967WAT     H142143   8.398   3.996   2.689
13967WAT     H242144   8.272   3.927   2.765
13968WAT      O42145   2.671   4.253   7.646
13968WAT     H142146   2.592   4.314   7.658
13968WAT     H242147   2.735   4.266   7.722
13969WAT      O42148   6.234   3.045   2.779
13969WAT     H142149   6.135   3.050   2.790
13969WAT     H242150   6.275   3.132   2.807
13970WAT      O42151   3.663   1.035   6.286
13970WAT     H142152   3.597   1.090   6.337
13970WAT     H242153   3.706   0.970   6.348
13971WAT      O42154   7.862   6.856   5.204
13971WAT     H142155   7.819   6.860   5.294
13971WAT     H242156   7.794   6.830   5.136
13972WAT      O42157   6.571   5.123   8.376
13972WAT     H142158   6.616   5.206   8.408
13972WAT     H242159   6.584   5.113   8.277
13973WAT      O42160   6.720   7.681   1.426
13973WAT     H142161   6.733   7.636   1.338
13973WAT     H242162   6.809   7.705   1.464
13974WAT      O42163   2.897   7.068   3.756
13974WAT     H142164   2.894   6.990   3.818
13974WAT     H242165   2.830   7.055   3.683
13975WAT      O42166   1.739   5.908   2.809
13975WAT     H142167   1.658   5.850   2.801
13975WAT     H242168   1.771   5.908   2.904
13976WAT      O42169   3.985   4.135   2.674
13976WAT     H142170   4.040   4.180   2.745
13976WAT     H242171   3.931   4.062   2.715
13977WAT      O42172   8.520   1.957   4.567
13977WAT     H142173   8.506   2.043   4.518
13977WAT     H242174   8.610   1.919   4.543
13978WAT      O42175   2.396   0.842   6.926
13978WAT     H142176   2.454   0.773   6.969
13978WAT     H242177   2.439   0.875   6.842
13979WAT      O42178   5.175   9.397   7.642
13979WAT     H142179   5.174   9.376   7.740
13979WAT     H242180   5.082   9.410   7.610
13980WAT      O42181   1.603   6.601   4.449
13980WAT     H142182   1.662   6.523   4.471
13980WAT     H242183   1.599   6.612   4.349
13981WAT      O42184   9.526   3.794   4.050
13981WAT     H142185   9.469   3.868   4.084
13981WAT     H242186   9.469   3.715   4.027
13982WAT      O42187   2.250   9.427   7.171
13982WAT     H142188   2.194   9.346   7.152
13982WAT     H242189   2.247   9.489   7.093
13983WAT      O42190   9.762   8.840   0.188
13983WAT     H142191   9.726   8.783   0.262
13983WAT     H242192   9.859   8.823   0.176
13984WAT      O42193   2.331   1.507   2.172
13984WAT     H142194   2.382   1.518   2.258
13984WAT     H242195   2.337   1.412   2.142
13985WAT      O42196   2.185   3.204   4.476
13985WAT     H142197   2.219   3.119   4.517
13985WAT     H242198   2.111   3.183   4.412
13986WAT      O42199   5.090   2.932   7.293
13986WAT     H142200   5.033   2.881   7.228
13986WAT     H242201   5.033   2.998   7.342
13987WAT      O42202   5.347   9.605   3.466
13987WAT     H142203   5.316   9.647   3.552
13987WAT     H242204   5.426   9.546   3.485
13988WAT      O42205   6.421   4.869   1.093
13988WAT     H142206   6.321   4.865   1.091
13988WAT     H242207   6.458   4.782   1.059
13989WAT      O42208   2.304   9.777   1.224
13989WAT     H142209   2.370   9.717   1.269
13989WAT     H242210   2.243   9.816   1.293
13990WAT      O42211   6.162   9.004   6.778
13990WAT     H142212   6.074   8.994   6.825
13990WAT     H242213   6.228   9.049   6.840
13991WAT      O42214   6.106   1.498   4.245
13991WAT     H142215   6.065   1.526   4.332
13991WAT     H242216   6.065   1.549   4.170
13992WAT      O42217   0.682   2.350   8.312
13992WAT     H142218   0.628   2.270   8.338
13992WAT     H242219   0.625   2.414   8.260
13993WAT      O42220   5.284   7.918   5.870
13993WAT     H142221   5.315   7.840   5.924
13993WAT     H242222   5.212   7.888   5.807
13994WAT      O42223   0.701   7.222   3.918
13994WAT     H142224   0.675   7.250   3.825
13994WAT     H242225   0.756   7.138   3.913
13995WAT      O42226   2.277   5.559   3.981
13995WAT     H142227   2.304   5.540   3.886
13995WAT     H242228   2.180   5.582   3.984
13996WAT      O42229   8.696   6.740   8.756
13996WAT     H142230   8.615   6.749   8.698
13996WAT     H242231   8.727   6.645   8.756
13997WAT      O42232   7.831   7.679   6.376
13997WAT     H142233   7.887   7.600   6.402
13997WAT     H242234   7.832   7.746   6.450
13998WAT      O42235   8.909   7.839   5.394
13998WAT     H142236   9.000   7.881   5.388
13998WAT     H242237   8.913   7.746   5.359
13999WAT      O42238   3.745   9.583   6.659
13999WAT     H142239   3.763   9.611   6.565
13999WAT     H242240   3.756   9.484   6.667
14000WAT      O42241   5.810   7.617   2.407
14000WAT     H142242   5.781   7.567   2.489
14000WAT     H242243   5.891   7.671   2.429
14001WAT      O42244   4.049   7.245   0.662
14001WAT     H142245   4.106   7.284   0.735
14001WAT     H242246   3.964   7.296   0.656
14002WAT      O42247   8.059   3.365   0.590
14002WAT     H142248   8.155   3.381   0.567
14002WAT     H242249   8.040   3.403   0.681
14003WAT      O42250   0.420   4.393   4.353
14003WAT     H142251   0.459   4.353   4.436
14003WAT     H242252   0.460   4.347   4.273
14004WAT      O42253   8.958   3.422   8.953
14004WAT     H142254   9.046   3.415   9.000
14004WAT     H242255   8.907   3.500   8.990
14005WAT      O42256   1.924   9.429   5.259
14005WAT     H142257   1.998   9.489   5.231
14005WAT     H242258   1.881   9.388   5.179
14006WAT      O42259   4.707   0.445   7.448
14006WAT     H142260   4.659   0.482   7.527
14006WAT     H242261   4.651   0.457   7.366
14007WAT      O42262   5.772   2.276   3.033
14007WAT     H142263   5.839   2.335   2.987
14007WAT     H242264   5.744   2.202   2.972
14008WAT      O42265   5.238   0.294   5.879
14008WAT     H142266   5.334   0.266   5.886
14008WAT     H242267   5.223   0.377   5.932
14009WAT      O42268   1.670   0.566   2.562
14009WAT     H142269   1.679   0.494   2.631
14009WAT     H242270   1.583   0.556   2.515
14010WAT      O42271   9.386   5.389   4.621
14010WAT     H142272   9.329   5.383   4.539
14010WAT     H242273   9.392   5.485   4.650
14011WAT      O42274   2.320   8.033   3.211
14011WAT     H142275   2.338   8.088   3.292
14011WAT     H242276   2.257   7.959   3.234
14012WAT      O42277   0.222   9.610   1.263
14012WAT     H142278   0.281   9.691   1.266
14012WAT     H242279   0.237   9.555   1.345
14013WAT      O42280   9.516   3.376   8.047
14013WAT     H142281   9.576   3.394   8.126
14013WAT     H242282   9.426   3.350   8.080
14014WAT      O42283   4.135   7.194   9.646
14014WAT     H142284   4.052   7.139   9.636
14014WAT     H242285   4.161   7.197   9.743
14015WAT      O42286   6.194   7.055   4.064
14015WAT     H142287   6.099   7.078   4.042
14015WAT     H242288   6.204   7.051   4.163
14016WAT      O42289   5.673   2.786   5.162
14016WAT     H142290   5.762   2.829   5.148
14016WAT     H242291   5.667   2.749   5.254
14017WAT      O42292   0.079   6.323   1.325
14017WAT     H142293   0.175   6.312   1.350
14017WAT     H242294   0.021   6.307   1.405
14018WAT      O42295   0.554   5.792   6.207
14018WAT     H142296   0.554   5.790   6.307
14018WAT     H242297   0.508   5.711   6.171
14019WAT      O42298   0.274   4.171   2.706
14019WAT     H142299   0.281   4.257   2.655
14019WAT     H242300   0.306   4.096   2.648
14020WAT      O42301   8.359   1.894   8.704
14020WAT     H142302   8.365   1.923   8.609
14020WAT     H242303   8.272   1.847   8.720
14021WAT      O42304   6.619   5.772   7.641
14021WAT     H142305   6.597   5.739   7.549
14021WAT     H242306   6.537   5.808   7.685
14022WAT      O42307   2.989   9.374   0.633
14022WAT     H142308   2.979   9.363   0.732
14022WAT     H242309   3.050   9.451   0.614
14023WAT      O42310   5.427   8.441   0.248
14023WAT     H142311   5.349   8.382   0.228
14023WAT     H242312   5.430   8.462   0.346
14024WAT      O42313   3.444   4.408   8.037
14024WAT     H142314   3.438   4.311   8.059
14024WAT     H242315   3.354   4.450   8.047
14025WAT      O42316   8.302   6.220   4.452
14025WAT     H142317   8.247   6.138   4.442
14025WAT     H242318   8.399   6.198   4.437
14026WAT      O42319   8.145   1.972   3.208
14026WAT     H142320   8.086   2.039   3.163
14026WAT     H242321   8.230   2.017   3.238
14027WAT      O42322   7.647   0.120   0.572
14027WAT     H142323   7.742   0.114   0.544
14027WAT     H242324   7.588   0.114   0.491
14028WAT      O42325   4.419   6.425   3.162
14028WAT     H142326   4.467   6.470   3.087
14028WAT     H242327   4.385   6.336   3.132
14029WAT      O42328   9.683   9.442   2.054
14029WAT     H142329   9.674   9.493   1.968
14029WAT     H242330   9.708   9.505   2.128
14030WAT      O42331   8.123   4.620   9.300
14030WAT     H142332   8.183   4.576   9.366
14030WAT     H242333   8.028   4.613   9.332
14031WAT      O42334   5.500   1.116   8.422
14031WAT     H142335   5.432   1.131   8.494
14031WAT     H242336   5.589   1.096   8.463
14032WAT      O42337   5.471   9.673   5.546
14032WAT     H142338   5.529   9.755   5.548
14032WAT     H242339   5.435   9.661   5.453
14033WAT      O42340   2.014   3.449   0.417
14033WAT     H142341   2.091   3.493   0.371
14033WAT     H242342   1.985   3.505   0.494
14034WAT      O42343   9.424   0.352   3.574
14034WAT     H142344   9.393   0.386   3.663
14034WAT     H242345   9.437   0.253   3.579
14035WAT      O42346   2.000   0.043   3.619
14035WAT     H142347   2.030  -0.020   3.547
14035WAT     H242348   1.919   0.005   3.665
14036WAT      O42349   6.664   6.032   7.747
14036WAT     H142350   6.661   5.954   7.684
14036WAT     H242351   6.572   6.053   7.780
14037WAT      O42352   3.181   4.996   8.469
14037WAT     H142353   3.166   5.024   8.564
14037WAT     H242354   3.171   4.897   8.461
14038WAT      O42355   2.712   2.302   6.872
14038WAT     H142356   2.675   2.362   6.801
14038WAT     H242357   2.666   2.213   6.867
14039WAT      O42358   5.449   5.000   3.075
14039WAT     H142359   5.464   4.940   3.154
14039WAT     H242360   5.377   5.066   3.096
14040WAT      O42361   9.427   3.368   1.783
14040WAT     H142362   9.331   3.395   1.776
14040WAT     H242363   9.455   3.322   1.698
14041WAT      O42364   0.477   5.474   8.172
14041WAT     H142365   0.434   5.525   8.246
14041WAT     H242366   0.551   5.530   8.133
14042WAT      O42367   9.287   9.119   4.362
14042WAT     H142368   9.256   9.208   4.330
14042WAT     H242369   9.274   9.051   4.289
14043WAT      O42370   1.132   2.346   4.706
14043WAT     H142371   1.173   2.265   4.747
14043WAT     H242372   1.094   2.323   4.617
14044WAT      O42373   8.561   9.424   3.182
14044WAT     H142374   8.603   9.515   3.172
14044WAT     H242375   8.560   9.378   3.094
14045WAT      O42376   3.837   4.989   6.866
14045WAT     H142377   3.929   4.961   6.893
14045WAT     H242378   3.809   4.938   6.785
14046WAT      O42379   8.082   3.046   1.307
14046WAT     H142380   8.129   3.073   1.391
14046WAT     H242381   8.103   3.111   1.234
14047WAT      O42382   5.785   2.737   3.573
14047WAT     H142383   5.798   2.672   3.648
14047WAT     H242384   5.776   2.686   3.487
14048WAT      O42385   6.142   2.501   2.270
14048WAT     H142386   6.162   2.411   2.308
14048WAT     H242387   6.115   2.492   2.174
14049WAT      O42388   5.769   5.904   3.560
14049WAT     H142389   5.791   5.807   3.552
14049WAT     H242390   5.676   5.914   3.594
14050WAT      O42391   0.815   9.461   4.256
14050WAT     H142392   0.815   9.478   4.157
14050WAT     H242393   0.867   9.533   4.302
14051WAT      O42394   7.157   1.330   9.398
14051WAT     H142395   7.181   1.284   9.483
14051WAT     H242396   7.174   1.269   9.321
14052WAT      O42397   1.982   4.943   8.767
14052WAT     H142398   2.003   4.921   8.672
14052WAT     H242399   2.016   5.034   8.788
14053WAT      O42400   2.540   6.361   5.306
14053WAT     H142401   2.539   6.305   5.389
14053WAT     H242402   2.565   6.304   5.227
14054WAT      O42403   3.935   7.410   9.856
14054WAT     H142404   3.956   7.425   9.953
14054WAT     H242405   4.020   7.412   9.803
14055WAT      O42406   4.059   8.769   4.402
14055WAT     H142407   4.031   8.675   4.423
14055WAT     H242408   3.995   8.834   4.443
14056WAT      O42409   9.242   1.614   8.602
14056WAT     H142410   9.227   1.687   8.669
14056WAT     H242411   9.197   1.530   8.633
14057WAT      O42412   6.014   3.111   5.656
14057WAT     H142413   6.063   3.142   5.575
14057WAT     H242414   6.043   3.017   5.678
14058WAT      O42415   0.275   8.055   2.821
14058WAT     H142416   0.354   8.031   2.766
14058WAT     H242417   0.221   7.972   2.839
14059WAT      O42418   4.983   2.309   8.939
14059WAT     H142419   5.050   2.235   8.949
14059WAT     H242420   4.905   2.278   8.885
14060WAT      O42421   1.947   1.464   2.324
14060WAT     H142422   1.919   1.534   2.390
14060WAT     H242423   1.957   1.505   2.234
14061WAT      O42424   6.685   0.012   5.936
14061WAT     H142425   6.680  -0.060   5.867
14061WAT     H242426   6.595   0.026   5.977
14062WAT      O42427   7.631   3.790   9.880
14062WAT     H142428   7.541   3.771   9.919
14062WAT     H242429   7.663   3.710   9.828
14063WAT      O42430   8.428   7.052   0.871
14063WAT     H142431   8.481   7.088   0.948
14063WAT     H242432   8.371   6.976   0.903
14064WAT      O42433   1.771   4.034   2.372
14064WAT     H142434   1.707   4.106   2.344
14064WAT     H242435   1.766   4.023   2.471
14065WAT      O42436   4.222   9.109   2.829
14065WAT     H142437   4.311   9.075   2.856
14065WAT     H242438   4.232   9.201   2.789
14066WAT      O42439   6.462   9.274   6.301
14066WAT     H142440   6.429   9.321   6.219
14066WAT     H242441   6.450   9.175   6.290
14067WAT      O42442   2.223   5.045   5.764
14067WAT     H142443   2.215   5.138   5.800
14067WAT     H242444   2.312   5.007   5.788
14068WAT      O42445   5.986   8.599   8.056
14068WAT     H142446   6.006   8.548   7.972
14068WAT     H242447   5.898   8.569   8.093
14069WAT      O42448   3.960   0.763   4.333
14069WAT     H142449   3.901   0.828   4.284
14069WAT     H242450   4.052   0.765   4.294
14070WAT      O42451   2.384   2.469   6.663
14070WAT     H142452   2.422   2.456   6.571
14070WAT     H242453   2.357   2.565   6.673
14071WAT      O42454   4.487   8.920   3.862
14071WAT     H142455   4.481   8.853   3.936
14071WAT     H242456   4.541   8.882   3.787
14072WAT      O42457   1.989   5.314   3.045
14072WAT     H142458   2.067   5.262   3.008
14072WAT     H242459   1.975   5.288   3.141
14073WAT      O42460   5.726   7.306   7.322
14073WAT     H142461   5.822   7.334   7.314
14073WAT     H242462   5.710   7.268   7.413
14074WAT      O42463   0.050   1.786   0.082
14074WAT     H142464   0.026   1.820  -0.009
14074WAT     H242465   0.005   1.699   0.099
14075WAT      O42466   6.836   8.006   3.112
14075WAT     H142467   6.896   8.075   3.153
14075WAT     H242468   6.742   8.041   3.110
14076WAT      O42469   4.418   2.801   7.253
14076WAT     H142470   4.361   2.746   7.315
14076WAT     H242471   4.361   2.841   7.181
14077WAT      O42472   0.840   1.719   3.294
14077WAT     H142473   0.880   1.649   3.235
14077WAT     H242474   0.741   1.706   3.300
14078WAT      O42475   9.799   1.078   7.475
14078WAT     H142476   9.878   1.026   7.507
14078WAT     H242477   9.769   1.141   7.546
14079WAT      O42478   2.845   8.093   7.975
14079WAT     H142479   2.764   8.094   7.916
14079WAT     H242480   2.826   8.145   8.058
14080WAT      O42481   5.122   3.135   9.476
14080WAT     H142482   5.104   3.052   9.422
14080WAT     H242483   5.172   3.110   9.558
14081WAT      O42484   3.120   1.240   0.191
14081WAT     H142485   3.187   1.189   0.245
14081WAT     H242486   3.130   1.215   0.094
14082WAT      O42487   5.213   2.624   4.260
14082WAT     H142488   5.225   2.565   4.340
14082WAT     H242489   5.116   2.639   4.244
14083WAT      O42490   0.422   1.759   6.551
14083WAT     H142491   0.520   1.765   6.571
14083WAT     H242492   0.407   1.688   6.482
14084WAT      O42493   4.999   8.113   2.147
14084WAT     H142494   5.002   8.213   2.149
14084WAT     H242495   5.042   8.077   2.230
14085WAT      O42496   4.754   9.103   8.072
14085WAT     H142497   4.694   9.182   8.061
14085WAT     H242498   4.700   9.019   8.071
14086WAT      O42499   6.541   2.473   7.795
14086WAT     H142500   6.522   2.378   7.770
14086WAT     H242501   6.492   2.496   7.879
14087WAT      O42502   0.568   7.017   8.728
14087WAT     H142503   0.584   7.056   8.637
14087WAT     H242504   0.471   6.997   8.740
14088WAT      O42505   3.921   6.040   8.746
14088WAT     H142506   3.890   6.134   8.761
14088WAT     H242507   3.882   5.981   8.817
14089WAT      O42508   8.195   8.040   6.870
14089WAT     H142509   8.170   8.024   6.774
14089WAT     H242510   8.242   8.128   6.877
14090WAT      O42511   3.241   9.048   0.428
14090WAT     H142512   3.167   9.053   0.495
14090WAT     H242513   3.329   9.042   0.475
14091WAT      O42514   2.190   7.096   6.570
14091WAT     H142515   2.224   7.007   6.602
14091WAT     H242516   2.267   7.150   6.534
14092WAT      O42517   7.682   8.756   6.027
14092WAT     H142518   7.620   8.816   6.078
14092WAT     H242519   7.662   8.661   6.049
14093WAT      O42520   1.232   5.570   8.536
14093WAT     H142521   1.153   5.594   8.480
14093WAT     H242522   1.238   5.633   8.614
14094WAT      O42523   9.758   5.758   2.215
14094WAT     H142524   9.794   5.675   2.258
14094WAT     H242525   9.704   5.734   2.134
14095WAT      O42526   1.963   8.302   0.448
14095WAT     H142527   1.980   8.231   0.516
14095WAT     H242528   1.967   8.392   0.492
14096WAT      O42529   0.287   1.030   3.516
14096WAT     H142530   0.358   1.098   3.497
14096WAT     H242531   0.285   0.962   3.442
14097WAT      O42532   0.750   0.166   6.847
14097WAT     H142533   0.691   0.246   6.845
14097WAT     H242534   0.706   0.091   6.798
14098WAT      O42535   6.666   3.675   8.651
14098WAT     H142536   6.710   3.596   8.608
14098WAT     H242537   6.582   3.647   8.695
14099WAT      O42538   4.065   3.535   4.682
14099WAT     H142539   4.121   3.611   4.716
14099WAT     H242540   4.018   3.492   4.759
14100WAT      O42541   3.065   3.818   4.172
14100WAT     H142542   3.146   3.863   4.134
14100WAT     H242543   3.079   3.800   4.269
14101WAT      O42544   4.711   4.221   0.352
14101WAT     H142545   4.640   4.151   0.354
14101WAT     H242546   4.737   4.245   0.446
14102WAT      O42547   1.069   6.750   5.588
14102WAT     H142548   0.990   6.776   5.643
14102WAT     H242549   1.045   6.757   5.491
14103WAT      O42550   9.173   5.707   5.617
14103WAT     H142551   9.217   5.796   5.625
14103WAT     H242552   9.110   5.708   5.539
14104WAT      O42553   0.604   0.866   6.316
14104WAT     H142554   0.553   0.943   6.276
14104WAT     H242555   0.629   0.802   6.244
14105WAT      O42556   8.814   3.088   5.725
14105WAT     H142557   8.865   3.174   5.720
14105WAT     H242558   8.873   3.017   5.762
14106WAT      O42559   6.488   1.171   8.090
14106WAT     H142560   6.539   1.249   8.054
14106WAT     H242561   6.543   1.088   8.082
14107WAT      O42562   7.195   4.896   0.086
14107WAT     H142563   7.257   4.975   0.086
14107WAT     H242564   7.236   4.822   0.033
14108WAT      O42565   7.153   1.183   0.955
14108WAT     H142566   7.208   1.104   0.930
14108WAT     H242567   7.212   1.254   0.995
14109WAT      O42568   6.291   3.458   9.582
14109WAT     H142569   6.270   3.532   9.646
14109WAT     H242570   6.210   3.437   9.528
14110WAT      O42571   2.147   8.799   6.901
14110WAT     H142572   2.065   8.831   6.853
14110WAT     H242573   2.130   8.707   6.936
14111WAT      O42574   6.616   7.917   5.638
14111WAT     H142575   6.691   7.869   5.683
14111WAT     H242576   6.653   7.983   5.572
14112WAT      O42577   5.555   1.278   3.115
14112WAT     H142578   5.471   1.330   3.131
14112WAT     H242579   5.587   1.295   3.022
14113WAT      O42580   9.433   1.178   8.538
14113WAT     H142581   9.337   1.157   8.521
14113WAT     H242582   9.447   1.277   8.533
14114WAT      O42583   0.536   1.854   1.281
14114WAT     H142584   0.562   1.883   1.373
14114WAT     H242585   0.616   1.818   1.234
14115WAT      O42586   4.257   7.359   7.407
14115WAT     H142587   4.251   7.261   7.392
14115WAT     H242588   4.167   7.396   7.430
14116WAT      O42589   4.991   2.724   6.290
14116WAT     H142590   4.908   2.763   6.329
14116WAT     H242591   5.068   2.785   6.308
14117WAT      O42592   1.365   9.026   0.821
14117WAT     H142593   1.408   9.018   0.731
14117WAT     H242594   1.428   8.996   0.892
14118WAT      O42595   0.629   7.197   6.270
14118WAT     H142596   0.584   7.110   6.291
14118WAT     H242597   0.693   7.220   6.344
14119WAT      O42598   9.364   7.188   4.217
14119WAT     H142599   9.433   7.255   4.243
14119WAT     H242600   9.287   7.234   4.174
14120WAT      O42601   7.126   4.964   0.849
14120WAT     H142602   7.030   4.976   0.873
14120WAT     H242603   7.184   5.015   0.913
14121WAT      O42604   0.888   0.887   6.904
14121WAT     H142605   0.795   0.907   6.935
14121WAT     H242606   0.940   0.844   6.978
14122WAT      O42607   7.832   3.546   9.538
14122WAT     H142608   7.861   3.607   9.465
14122WAT     H242609   7.732   3.542   9.540
14123WAT      O42610   5.706   7.830   0.861
14123WAT     H142611   5.759   7.755   0.899
14123WAT     H242612   5.654   7.797   0.781
14124WAT      O42613   7.402   6.843   0.937
14124WAT     H142614   7.463   6.894   0.997
14124WAT     H242615   7.387   6.751   0.976
14125WAT      O42616   2.872   0.479   1.996
14125WAT     H142617   2.968   0.466   2.021
14125WAT     H242618   2.814   0.431   2.060
14126WAT      O42619   0.121   3.122   4.636
14126WAT     H142620   0.185   3.134   4.712
14126WAT     H242621   0.172   3.114   4.550
14127WAT      O42622   0.486   7.053   9.515
14127WAT     H142623   0.578   7.047   9.554
14127WAT     H242624   0.463   6.966   9.471
14128WAT      O42625   4.351   4.982   8.490
14128WAT     H142626   4.317   5.051   8.427
14128WAT     H242627   4.305   4.991   8.578
14129WAT      O42628   2.292   5.926   0.963
14129WAT     H142629   2.316   6.008   1.015
14129WAT     H242630   2.299   5.846   1.023
14130WAT      O42631   2.089   9.267   8.810
14130WAT     H142632   2.011   9.316   8.770
14130WAT     H242633   2.077   9.259   8.909
14131WAT      O42634   1.734   3.978   8.680
14131WAT     H142635   1.785   3.913   8.737
14131WAT     H242636   1.795   4.019   8.612
14132WAT      O42637   1.701   1.475   2.591
14132WAT     H142638   1.754   1.560   2.589
14132WAT     H242639   1.725   1.423   2.673
14133WAT      O42640   4.403   1.291   0.401
14133WAT     H142641   4.382   1.208   0.452
14133WAT     H242642   4.318   1.334   0.371
14134WAT      O42643   1.361   7.092   7.921
14134WAT     H142644   1.460   7.106   7.924
14134WAT     H242645   1.330   7.092   7.826
14135WAT      O42646   1.139   9.623   6.593
14135WAT     H142647   1.141   9.596   6.689
14135WAT     H242648   1.222   9.675   6.572
14136WAT      O42649   5.895   9.666   3.359
14136WAT     H142650   5.871   9.573   3.333
14136WAT     H242651   5.813   9.717   3.384
14137WAT      O42652   0.882   8.875   4.600
14137WAT     H142653   0.820   8.953   4.604
14137WAT     H242654   0.830   8.790   4.603
14138WAT      O42655   4.519   3.666   3.244
14138WAT     H142656   4.464   3.590   3.209
14138WAT     H242657   4.458   3.741   3.270
14139WAT      O42658   4.809   5.542   0.665
14139WAT     H142659   4.838   5.561   0.571
14139WAT     H242660   4.848   5.456   0.696
14140WAT      O42661   0.884   2.228   6.039
14140WAT     H142662   0.869   2.315   6.085
14140WAT     H242663   0.808   2.209   5.977
14141WAT      O42664   2.984   7.329   1.726
14141WAT     H142665   3.026   7.355   1.814
14141WAT     H242666   3.029   7.380   1.652
14142WAT      O42667   7.163   7.940   9.811
14142WAT     H142668   7.152   8.039   9.821
14142WAT     H242669   7.093   7.905   9.750
14143WAT      O42670   6.836   0.902   2.927
14143WAT     H142671   6.923   0.909   2.878
14143WAT     H242672   6.812   0.806   2.940
14144WAT      O42673   7.362   1.764   9.474
14144WAT     H142674   7.369   1.664   9.467
14144WAT     H242675   7.268   1.793   9.458
14145WAT      O42676   0.908   6.085   4.612
14145WAT     H142677   0.980   6.016   4.613
14145WAT     H242678   0.947   6.174   4.587
14146WAT      O42679   3.700   1.348   5.289
14146WAT     H142680   3.683   1.441   5.319
14146WAT     H242681   3.798   1.332   5.282
14147WAT      O42682   0.035   9.115   4.333
14147WAT     H142683   0.049   9.117   4.432
14147WAT     H242684   0.116   9.077   4.289
14148WAT      O42685   7.954   0.709   2.137
14148WAT     H142686   7.923   0.752   2.052
14148WAT     H242687   7.899   0.743   2.214
14149WAT      O42688   0.679   8.960   2.483
14149WAT     H142689   0.769   8.989   2.516
14149WAT     H242690   0.628   9.040   2.452
14150WAT      O42691   1.263   3.475   2.787
14150WAT     H142692   1.257   3.550   2.721
14150WAT     H242693   1.355   3.474   2.828
14151WAT      O42694   4.560   1.339   5.499
14151WAT     H142695   4.572   1.247   5.460
14151WAT     H242696   4.629   1.355   5.569
14152WAT      O42697   0.045   9.002   5.648
14152WAT     H142698  -0.014   9.037   5.574
14152WAT     H242699   0.100   9.078   5.684
14153WAT      O42700   7.478   3.589   7.015
14153WAT     H142701   7.533   3.626   6.940
14153WAT     H242702   7.531   3.593   7.100
14154WAT      O42703   5.427   6.964   2.789
14154WAT     H142704   5.518   6.955   2.829
14154WAT     H242705   5.434   6.963   2.689
14155WAT      O42706   0.736   5.642   6.513
14155WAT     H142707   0.801   5.622   6.440
14155WAT     H242708   0.648   5.667   6.473
14156WAT      O42709   7.376   3.005   4.373
14156WAT     H142710   7.448   3.045   4.317
14156WAT     H242711   7.389   2.906   4.379
14157WAT      O42712   6.996   3.226   6.587
14157WAT     H142713   7.022   3.208   6.682
14157WAT     H242714   7.064   3.288   6.546
14158WAT      O42715   2.680   1.159   4.571
14158WAT     H142716   2.724   1.128   4.487
14158WAT     H242717   2.748   1.169   4.643
14159WAT      O42718   0.925   8.891   7.930
14159WAT     H142719   0.860   8.964   7.909
14159WAT     H242720   1.018   8.928   7.928
14160WAT      O42721   5.984   6.362   2.411
14160WAT     H142722   6.058   6.304   2.376
14160WAT     H242723   5.950   6.420   2.338
14161WAT      O42724   2.673   8.634   4.848
14161WAT     H142725   2.701   8.614   4.942
14161WAT     H242726   2.744   8.688   4.803
14162WAT      O42727   4.356   6.577   5.243
14162WAT     H142728   4.282   6.515   5.218
14162WAT     H242729   4.441   6.525   5.253
14163WAT      O42730   1.452   6.742   1.057
14163WAT     H142731   1.459   6.681   0.978
14163WAT     H242732   1.477   6.835   1.028
14164WAT      O42733   9.825   1.845   9.191
14164WAT     H142734   9.786   1.937   9.204
14164WAT     H242735   9.924   1.850   9.193
14165WAT      O42736   7.601   8.693   5.057
14165WAT     H142737   7.551   8.608   5.042
14165WAT     H242738   7.670   8.705   4.985
14166WAT      O42739   3.368   6.211   6.426
14166WAT     H142740   3.367   6.127   6.372
14166WAT     H242741   3.324   6.195   6.515
14167WAT      O42742   3.471   3.100   3.846
14167WAT     H142743   3.525   3.027   3.803
14167WAT     H242744   3.443   3.166   3.777
14168WAT      O42745   6.494   8.546   3.228
14168WAT     H142746   6.512   8.537   3.326
14168WAT     H242747   6.448   8.634   3.211
14169WAT      O42748   8.135   3.959   6.445
14169WAT     H142749   8.066   3.978   6.516
14169WAT     H242750   8.098   3.983   6.356
14170WAT      O42751   1.591   6.343   5.015
14170WAT     H142752   1.587   6.246   5.039
14170WAT     H242753   1.680   6.380   5.038
14171WAT      O42754   4.603   8.524   9.102
14171WAT     H142755   4.590   8.498   9.198
14171WAT     H242756   4.571   8.617   9.088
14172WAT      O42757   6.510   5.823   2.937
14172WAT     H142758   6.437   5.820   2.868
14172WAT     H242759   6.518   5.915   2.975
14173WAT      O42760   5.832   0.627   7.220
14173WAT     H142761   5.804   0.723   7.222
14173WAT     H242762   5.887   0.610   7.138
14174WAT      O42763   1.835   8.105   4.805
14174WAT     H142764   1.748   8.114   4.757
14174WAT     H242765   1.822   8.054   4.890
14175WAT      O42766   5.045   7.391   6.678
14175WAT     H142767   5.101   7.360   6.755
14175WAT     H242768   5.097   7.386   6.594
14176WAT      O42769   3.900   5.314   4.927
14176WAT     H142770   3.843   5.329   5.008
14176WAT     H242771   3.860   5.364   4.849
14177WAT      O42772   8.254   8.888   7.218
14177WAT     H142773   8.261   8.967   7.279
14177WAT     H242774   8.310   8.813   7.253
14178WAT      O42775   2.772   9.440   0.240
14178WAT     H142776   2.791   9.519   0.297
14178WAT     H242777   2.787   9.356   0.293
14179WAT      O42778   8.782   5.155   4.662
14179WAT     H142779   8.719   5.227   4.635
14179WAT     H242780   8.776   5.079   4.597
14180WAT      O42781   6.989   6.942   9.717
14180WAT     H142782   6.994   7.005   9.795
14180WAT     H242783   6.989   6.995   9.632
14181WAT      O42784   5.351   9.006   1.086
14181WAT     H142785   5.318   9.053   1.168
14181WAT     H242786   5.325   8.910   1.090
14182WAT      O42787   3.124   1.855   7.494
14182WAT     H142788   3.111   1.756   7.482
14182WAT     H242789   3.043   1.903   7.460
14183WAT      O42790   5.563   5.911   7.631
14183WAT     H142791   5.514   5.906   7.543
14183WAT     H242792   5.511   5.861   7.700
14184WAT      O42793   9.548   3.450   4.381
14184WAT     H142794   9.497   3.533   4.399
14184WAT     H242795   9.511   3.375   4.436
14185WAT      O42796   9.413   1.783   0.021
14185WAT     H142797   9.432   1.799  -0.076
14185WAT     H242798   9.499   1.767   0.070
14186WAT      O42799   1.154   2.928   4.476
14186WAT     H142800   1.253   2.931   4.476
14186WAT     H242801   1.122   2.872   4.399
14187WAT      O42802   0.114   2.451   6.620
14187WAT     H142803   0.134   2.380   6.688
14187WAT     H242804   0.036   2.505   6.650
14188WAT      O42805   9.278   1.899   0.418
14188WAT     H142806   9.264   1.844   0.336
14188WAT     H242807   9.362   1.870   0.464
14189WAT      O42808   8.134   4.736   7.323
14189WAT     H142809   8.165   4.661   7.265
14189WAT     H242810   8.198   4.813   7.316
14190WAT      O42811   9.740   9.750   9.275
14190WAT     H142812   9.763   9.674   9.336
14190WAT     H242813   9.816   9.765   9.211
14191WAT      O42814   1.242   1.560   8.270
14191WAT     H142815   1.253   1.568   8.369
14191WAT     H242816   1.182   1.484   8.248
14192WAT      O42817   8.213   7.063   5.236
14192WAT     H142818   8.123   7.078   5.277
14192WAT     H242819   8.245   7.148   5.194
14193WAT      O42820   9.173   8.578   0.457
14193WAT     H142821   9.131   8.600   0.545
14193WAT     H242822   9.120   8.619   0.383
14194WAT      O42823   6.161   4.010   3.967
14194WAT     H142824   6.065   3.985   3.966
14194WAT     H242825   6.212   3.946   4.024
14195WAT      O42826   2.482   9.533   3.806
14195WAT     H142827   2.477   9.611   3.743
14195WAT     H242828   2.424   9.551   3.886
14196WAT      O42829   4.482   3.581   5.304
14196WAT     H142830   4.578   3.605   5.291
14196WAT     H242831   4.441   3.642   5.373
14197WAT      O42832   3.707   7.119   0.965
14197WAT     H142833   3.682   7.068   0.883
14197WAT     H242834   3.700   7.217   0.946
14198WAT      O42835   8.903   2.169   5.338
14198WAT     H142836   8.810   2.135   5.335
14198WAT     H242837   8.950   2.132   5.419
14199WAT      O42838   5.066   6.059   4.378
14199WAT     H142839   5.152   6.009   4.372
14199WAT     H242840   5.064   6.112   4.463
14200WAT      O42841   0.842   1.180   3.497
14200WAT     H142842   0.900   1.141   3.568
14200WAT     H242843   0.888   1.257   3.454
14201WAT      O42844   0.762   0.695   5.059
14201WAT     H142845   0.728   0.779   5.016
14201WAT     H242846   0.838   0.717   5.119
14202WAT      O42847   9.240   6.953   5.750
14202WAT     H142848   9.278   6.988   5.664
14202WAT     H242849   9.232   7.028   5.816
14203WAT      O42850   9.270   0.804   4.633
14203WAT     H142851   9.362   0.840   4.650
14203WAT     H242852   9.230   0.772   4.719
14204WAT      O42853   9.438   8.951   3.181
14204WAT     H142854   9.371   8.957   3.107
14204WAT     H242855   9.531   8.955   3.142
14205WAT      O42856   3.994   0.509   3.033
14205WAT     H142857   3.908   0.472   3.067
14205WAT     H242858   4.070   0.466   3.081
14206WAT      O42859   2.152   8.226   8.715
14206WAT     H142860   2.172   8.218   8.812
14206WAT     H242861   2.200   8.305   8.677
14207WAT      O42862   8.683   9.003   6.731
14207WAT     H142863   8.620   9.075   6.703
14207WAT     H242864   8.691   9.003   6.831
14208WAT      O42865   6.076   4.919   3.201
14208WAT     H142866   6.167   4.920   3.243
14208WAT     H242867   6.057   5.009   3.161
14209WAT      O42868   6.457   2.400   2.063
14209WAT     H142869   6.506   2.483   2.034
14209WAT     H242870   6.360   2.420   2.074
14210WAT      O42871   8.712   9.258   9.073
14210WAT     H142872   8.710   9.336   9.011
14210WAT     H242873   8.655   9.185   9.037
14211WAT      O42874   6.578   6.586   3.912
14211WAT     H142875   6.633   6.541   3.982
14211WAT     H242876   6.521   6.519   3.865
14212WAT      O42877   4.719   0.589   0.275
14212WAT     H142878   4.755   0.509   0.228
14212WAT     H242879   4.783   0.618   0.346
14213WAT      O42880   0.495   4.774   6.062
14213WAT     H142881   0.589   4.746   6.039
14213WAT     H242882   0.496   4.825   6.148
14214WAT      O42883   7.251   0.206   9.872
14214WAT     H142884   7.339   0.253   9.860
14214WAT     H242885   7.207   0.194   9.783
14215WAT      O42886   7.510   7.005   6.864
14215WAT     H142887   7.583   6.956   6.912
14215WAT     H242888   7.512   6.981   6.767
14216WAT      O42889   1.316   4.937   6.132
14216WAT     H142890   1.379   4.974   6.200
14216WAT     H242891   1.225   4.926   6.173
14217WAT      O42892   3.041   1.067   6.340
14217WAT     H142893   2.995   1.155   6.352
14217WAT     H242894   3.051   1.021   6.428
14218WAT      O42895   5.429   5.721   6.694
14218WAT     H142896   5.378   5.747   6.613
14218WAT     H242897   5.399   5.631   6.725
14219WAT      O42898   0.488   8.638   6.415
14219WAT     H142899   0.409   8.681   6.372
14219WAT     H242900   0.512   8.689   6.498
14220WAT      O42901   1.325   5.880   0.126
14220WAT     H142902   1.287   5.918   0.042
14220WAT     H242903   1.416   5.919   0.142
14221WAT      O42904   0.319   2.706   2.314
14221WAT     H142905   0.396   2.759   2.348
14221WAT     H242906   0.235   2.739   2.355
14222WAT      O42907   4.664   9.153   1.647
14222WAT     H142908   4.692   9.069   1.692
14222WAT     H242909   4.607   9.131   1.568
14223WAT      O42910   2.589   0.077   0.186
14223WAT     H142911   2.625   0.052   0.276
14223WAT     H242912   2.611   0.173   0.168
14224WAT      O42913   8.565   8.206   4.864
14224WAT     H142914   8.546   8.115   4.828
14224WAT     H242915   8.580   8.269   4.788
14225WAT      O42916   2.144   2.956   7.444
14225WAT     H142917   2.207   3.028   7.412
14225WAT     H242918   2.085   2.993   7.515
14226WAT      O42919   4.611   1.448   8.557
14226WAT     H142920   4.619   1.546   8.573
14226WAT     H242921   4.514   1.422   8.555
14227WAT      O42922   6.960   8.395   6.613
14227WAT     H142923   7.039   8.366   6.560
14227WAT     H242924   6.893   8.437   6.553
14228WAT      O42925   7.318   1.394   2.009
14228WAT     H142926   7.263   1.310   2.010
14228WAT     H242927   7.369   1.401   2.095
14229WAT      O42928   1.900   5.463   2.600
14229WAT     H142929   1.908   5.559   2.572
14229WAT     H242930   1.894   5.457   2.700
14230WAT      O42931   4.015   0.376   5.601
14230WAT     H142932   3.927   0.403   5.640
14230WAT     H242933   4.088   0.400   5.664
14231WAT      O42934   1.226   9.825   0.257
14231WAT     H142935   1.146   9.879   0.283
14231WAT     H242936   1.212   9.785   0.167
14232WAT      O42937   9.582   1.071   2.169
14232WAT     H142938   9.585   1.064   2.268
14232WAT     H242939   9.645   1.142   2.139
14233WAT      O42940   4.092   0.255   9.725
14233WAT     H142941   4.140   0.258   9.637
14233WAT     H242942   4.094   0.345   9.768
14234WAT      O42943   8.753   2.710   4.411
14234WAT     H142944   8.813   2.742   4.484
14234WAT     H242945   8.699   2.633   4.443
14235WAT      O42946   1.199   0.360   5.605
14235WAT     H142947   1.173   0.312   5.522
14235WAT     H242948   1.240   0.448   5.582
14236WAT      O42949   4.604   9.648   3.245
14236WAT     H142950   4.548   9.708   3.187
14236WAT     H242951   4.691   9.629   3.198
14237WAT      O42952   1.515   1.139   5.432
14237WAT     H142953   1.448   1.112   5.503
14237WAT     H242954   1.592   1.075   5.434
14238WAT      O42955   2.553   2.952   7.277
14238WAT     H142956   2.561   2.947   7.377
14238WAT     H242957   2.503   3.035   7.252
14239WAT      O42958   4.261   7.964   2.873
14239WAT     H142959   4.317   8.006   2.944
14239WAT     H242960   4.283   7.866   2.866
14240WAT      O42961   6.950   8.957   0.641
14240WAT     H142962   6.906   8.883   0.591
14240WAT     H242963   6.928   9.044   0.597
14241WAT      O42964   1.985   1.050   1.856
14241WAT     H142965   1.895   1.061   1.813
14241WAT     H242966   2.048   1.119   1.820
14242WAT      O42967   3.725   4.468   2.500
14242WAT     H142968   3.820   4.449   2.525
14242WAT     H242969   3.669   4.471   2.583
14243WAT      O42970   2.934   1.567   0.995
14243WAT     H142971   2.898   1.647   1.043
14243WAT     H242972   3.033   1.568   0.997
14244WAT      O42973   0.595   6.289   3.180
14244WAT     H142974   0.578   6.279   3.082
14244WAT     H242975   0.550   6.215   3.229
14245WAT      O42976   4.756   3.134   9.267
14245WAT     H142977   4.745   3.102   9.361
14245WAT     H242978   4.800   3.063   9.212
14246WAT      O42979   4.658   1.524   8.033
14246WAT     H142980   4.737   1.585   8.042
14246WAT     H242981   4.582   1.559   8.087
14247WAT      O42982   8.862   7.439   9.825
14247WAT     H142983   8.960   7.458   9.827
14247WAT     H242984   8.812   7.523   9.805
14248WAT      O42985   1.677   8.255   6.705
14248WAT     H142986   1.703   8.244   6.801
14248WAT     H242987   1.690   8.168   6.657
14249WAT      O42988   2.015   8.038   0.130
14249WAT     H142989   1.977   7.962   0.183
14249WAT     H242990   2.107   8.060   0.164
14250WAT      O42991   2.008   8.643   1.211
14250WAT     H142992   1.965   8.702   1.143
14250WAT     H242993   2.054   8.699   1.280
14251WAT      O42994   1.679   4.894   9.402
14251WAT     H142995   1.646   4.799   9.410
14251WAT     H242996   1.647   4.947   9.480
14252WAT      O42997   9.768   0.685   4.811
14252WAT     H142998   9.772   0.724   4.719
14252WAT     H242999   9.848   0.714   4.864
14253WAT      O43000   2.413   2.699   9.041
14253WAT     H143001   2.435   2.641   9.119
14253WAT     H243002   2.452   2.790   9.055
14254WAT      O43003   9.655   2.152   1.386
14254WAT     H143004   9.677   2.234   1.334
14254WAT     H243005   9.572   2.167   1.439
14255WAT      O43006   9.721   7.021   1.709
14255WAT     H143007   9.727   7.106   1.761
14255WAT     H243008   9.814   6.991   1.685
14256WAT      O43009   9.805   5.095   9.598
14256WAT     H143010   9.898   5.130   9.607
14256WAT     H243011   9.749   5.132   9.673
14257WAT      O43012   3.934   4.442   3.070
14257WAT     H143013   3.937   4.379   3.148
14257WAT     H243014   3.873   4.518   3.091
14258WAT      O43015   5.230   3.754   2.779
14258WAT     H143016   5.316   3.710   2.753
14258WAT     H243017   5.164   3.684   2.806
14259WAT      O43018   4.492   7.228   6.976
14259WAT     H143019   4.581   7.265   7.002
14259WAT     H243020   4.473   7.251   6.881
14260WAT      O43021   5.720   4.438   4.527
14260WAT     H143022   5.633   4.411   4.567
14260WAT     H243023   5.775   4.356   4.508
14261WAT      O43024   0.361   4.887   2.367
14261WAT     H143025   0.454   4.908   2.398
14261WAT     H243026   0.299   4.959   2.399
14262WAT      O43027   2.951   5.175   6.915
14262WAT     H143028   3.005   5.149   6.995
14262WAT     H243029   3.012   5.190   6.837
14263WAT      O43030   9.315   8.855   9.887
14263WAT     H143031   9.317   8.916   9.808
14263WAT     H243032   9.372   8.893   9.960
14264WAT      O43033   5.729   6.527   7.040
14264WAT     H143034   5.658   6.516   7.111
14264WAT     H243035   5.819   6.521   7.082
14265WAT      O43036   8.587   7.611   7.847
14265WAT     H143037   8.545   7.654   7.927
14265WAT     H243038   8.517   7.562   7.795
14266WAT      O43039   1.573   4.397   4.751
14266WAT     H143040   1.483   4.362   4.776
14266WAT     H243041   1.614   4.443   4.830
14267WAT      O43042   4.623   8.469   2.338
14267WAT     H143043   4.706   8.512   2.374
14267WAT     H243044   4.560   8.450   2.414
14268WAT      O43045   9.156   9.196   7.653
14268WAT     H143046   9.116   9.270   7.708
14268WAT     H243047   9.083   9.147   7.605
14269WAT      O43048   5.140   5.010   9.732
14269WAT     H143049   5.113   5.069   9.808
14269WAT     H243050   5.162   4.919   9.768
14270WAT      O43051   8.891   1.506   4.220
14270WAT     H143052   8.912   1.408   4.215
14270WAT     H243053   8.954   1.556   4.160
14271WAT      O43054   3.106   9.792   2.925
14271WAT     H143055   3.195   9.745   2.920
14271WAT     H243056   3.116   9.886   2.892
14272WAT      O43057   9.806   1.231   2.148
14272WAT     H143058   9.875   1.172   2.106
14272WAT     H243059   9.816   1.324   2.113
14273WAT      O43060   8.386   6.313   8.536
14273WAT     H143061   8.336   6.230   8.510
14273WAT     H243062   8.325   6.373   8.588
14274WAT      O43063   2.974   8.976   6.275
14274WAT     H143064   2.934   9.005   6.362
14274WAT     H243065   3.072   8.999   6.274
14275WAT      O43066   1.868   5.014   4.762
14275WAT     H143067   1.830   4.989   4.674
14275WAT     H243068   1.805   5.074   4.811
14276WAT      O43069   7.711   8.011   4.950
14276WAT     H143070   7.641   7.940   4.951
14276WAT     H243071   7.784   7.985   4.886
14277WAT      O43072   1.549   8.599   4.173
14277WAT     H143073   1.516   8.554   4.256
14277WAT     H243074   1.551   8.698   4.187
14278WAT      O43075   4.252   3.332   8.748
14278WAT     H143076   4.264   3.309   8.844
14278WAT     H243077   4.192   3.264   8.705
14279WAT      O43078   1.655   5.255   7.011
14279WAT     H143079   1.695   5.176   7.057
14279WAT     H243080   1.603   5.309   7.077
14280WAT      O43081   3.703   5.086   0.964
14280WAT     H143082   3.700   5.182   0.994
14280WAT     H243083   3.772   5.037   1.017
14281WAT      O43084   2.549   3.546   1.916
14281WAT     H143085   2.458   3.570   1.884
14281WAT     H243086   2.570   3.452   1.887
14282WAT      O43087   9.110   9.217   8.507
14282WAT     H143088   9.188   9.256   8.456
14282WAT     H243089   9.025   9.259   8.475
14283WAT      O43090   2.952   7.710   3.203
14283WAT     H143091   2.869   7.722   3.147
14283WAT     H243092   2.943   7.763   3.287
14284WAT      O43093   7.159   0.050   4.333
14284WAT     H143094   7.254   0.049   4.365
14284WAT     H243095   7.106   0.115   4.387
14285WAT      O43096   0.077   2.843   3.950
14285WAT     H143097  -0.001   2.803   3.999
14285WAT     H243098   0.044   2.890   3.868
14286WAT      O43099   0.210   6.305   4.885
14286WAT     H143100   0.247   6.212   4.884
14286WAT     H243101   0.192   6.333   4.980
14287WAT      O43102   6.415   5.240   3.024
14287WAT     H143103   6.458   5.291   2.950
14287WAT     H243104   6.421   5.292   3.109
14288WAT      O43105   5.956   7.650   9.236
14288WAT     H143106   5.940   7.583   9.164
14288WAT     H243107   6.029   7.712   9.208
14289WAT      O43108   1.866   8.510   3.302
14289WAT     H143109   1.797   8.582   3.306
14289WAT     H243110   1.957   8.551   3.292
14290WAT      O43111   5.529   7.267   2.995
14290WAT     H143112   5.589   7.236   3.069
14290WAT     H243113   5.444   7.215   2.997
14291WAT      O43114   2.846   0.103   1.585
14291WAT     H143115   2.805   0.073   1.671
14291WAT     H243116   2.873   0.199   1.593
14292WAT      O43117   7.511   5.094   1.749
14292WAT     H143118   7.471   5.123   1.663
14292WAT     H243119   7.604   5.058   1.733
14293WAT      O43120   9.379   0.819   4.362
14293WAT     H143121   9.342   0.808   4.454
14293WAT     H243122   9.348   0.906   4.324
14294WAT      O43123   0.230   4.918   7.745
14294WAT     H143124   0.287   4.876   7.816
14294WAT     H243125   0.135   4.889   7.757
14295WAT      O43126   8.739   2.419   2.079
14295WAT     H143127   8.781   2.496   2.031
14295WAT     H243128   8.807   2.346   2.091
14296WAT      O43129   6.654   6.019   0.177
14296WAT     H143130   6.583   6.060   0.120
14296WAT     H243131   6.660   5.922   0.157
14297WAT      O43132   9.441   1.154   1.818
14297WAT     H143133   9.368   1.115   1.874
14297WAT     H243134   9.498   1.080   1.782
14298WAT      O43135   8.932   5.819   4.967
14298WAT     H143136   8.890   5.907   4.942
14298WAT     H243137   8.864   5.762   5.013
14299WAT      O43138   7.088   8.469   8.565
14299WAT     H143139   7.125   8.545   8.511
14299WAT     H243140   6.988   8.470   8.559
14300WAT      O43141   3.398   0.967   5.477
14300WAT     H143142   3.360   0.874   5.488
14300WAT     H243143   3.497   0.961   5.469
14301WAT      O43144   2.671   2.102   5.698
14301WAT     H143145   2.599   2.122   5.632
14301WAT     H243146   2.631   2.059   5.779
14302WAT      O43147   3.467   5.215   1.643
14302WAT     H143148   3.495   5.129   1.686
14302WAT     H243149   3.430   5.196   1.552
14303WAT      O43150   0.639   3.880   7.989
14303WAT     H143151   0.616   3.967   7.945
14303WAT     H243152   0.569   3.857   8.056
14304WAT      O43153   1.286   6.095   4.939
14304WAT     H143154   1.188   6.109   4.921
14304WAT     H243155   1.310   6.000   4.921
14305WAT      O43156   2.848   4.283   7.835
14305WAT     H143157   2.929   4.289   7.777
14305WAT     H243158   2.843   4.364   7.893
14306WAT      O43159   8.934   5.371   5.736
14306WAT     H143160   8.848   5.420   5.748
14306WAT     H243161   8.973   5.350   5.826
14307WAT      O43162   9.635   7.833   7.968
14307WAT     H143163   9.605   7.746   8.007
14307WAT     H243164   9.659   7.820   7.872
14308WAT      O43165   1.276   2.114   0.706
14308WAT     H143166   1.365   2.072   0.690
14308WAT     H243167   1.286   2.186   0.774
14309WAT      O43168   6.789   1.845   3.821
14309WAT     H143169   6.737   1.920   3.781
14309WAT     H243170   6.781   1.847   3.921
14310WAT      O43171   2.931   2.690   5.328
14310WAT     H143172   3.025   2.677   5.294
14310WAT     H243173   2.901   2.605   5.372
14311WAT      O43174   1.111   5.509   8.960
14311WAT     H143175   1.178   5.518   9.033
14311WAT     H243176   1.138   5.435   8.899
14312WAT      O43177   4.453   3.950   1.854
14312WAT     H143178   4.496   3.860   1.851
14312WAT     H243179   4.524   4.021   1.854
14313WAT      O43180   5.448   0.662   8.214
14313WAT     H143181   5.387   0.614   8.276
14313WAT     H243182   5.424   0.759   8.212
14314WAT      O43183   6.814   0.588   2.662
14314WAT     H143184   6.798   0.604   2.760
14314WAT     H243185   6.814   0.676   2.614
14315WAT      O43186   2.546   8.577   4.321
14315WAT     H143187   2.454   8.592   4.359
14315WAT     H243188   2.547   8.606   4.225
14316WAT      O43189   6.467   6.818   1.452
14316WAT     H143190   6.552   6.841   1.499
14316WAT     H243191   6.390   6.842   1.511
14317WAT      O43192   0.556   3.562   5.131
14317WAT     H143193   0.559   3.636   5.198
14317WAT     H243194   0.607   3.483   5.165
14318WAT      O43195   1.865   8.021   5.321
14318WAT     H143196   1.953   8.062   5.344
14318WAT     H243197   1.879   7.924   5.299
14319WAT      O43198   1.829   4.750   1.678
14319WAT     H143199   1.896   4.824   1.677
14319WAT     H243200   1.861   4.676   1.737
14320WAT      O43201   1.283   4.524   5.922
14320WAT     H143202   1.283   4.477   6.010
14320WAT     H243203   1.368   4.504   5.873
14321WAT      O43204   3.872   8.186   3.415
14321WAT     H143205   3.906   8.143   3.331
14321WAT     H243206   3.845   8.115   3.480
14322WAT      O43207   4.877   3.725   3.702
14322WAT     H143208   4.861   3.689   3.794
14322WAT     H243209   4.967   3.694   3.670
14323WAT      O43210   3.436   6.831   7.892
14323WAT     H143211   3.342   6.800   7.877
14323WAT     H243212   3.446   6.925   7.858
14324WAT      O43213   2.143   5.626   0.553
14324WAT     H143214   2.157   5.539   0.505
14324WAT     H243215   2.230   5.655   0.593
14325WAT      O43216   1.690   2.768   7.186
14325WAT     H143217   1.745   2.753   7.104
14325WAT     H243218   1.617   2.700   7.190
14326WAT      O43219   1.874   4.296   9.772
14326WAT     H143220   1.816   4.215   9.757
14326WAT     H243221   1.835   4.374   9.724
14327WAT      O43222   6.753   4.874   5.613
14327WAT     H143223   6.847   4.840   5.609
14327WAT     H243224   6.754   4.973   5.596
14328WAT      O43225   1.696   1.087   8.074
14328WAT     H143226   1.727   1.164   8.129
14328WAT     H243227   1.775   1.033   8.045
14329WAT      O43228   7.113   7.544   9.504
14329WAT     H143229   7.170   7.627   9.508
14329WAT     H243230   7.164   7.467   9.540
14330WAT      O43231   3.727   4.543   3.425
14330WAT     H143232   3.731   4.600   3.344
14330WAT     H243233   3.657   4.472   3.412
14331WAT      O43234   8.051   5.477   7.214
14331WAT     H143235   7.996   5.424   7.278
14331WAT     H243236   8.125   5.523   7.263
14332WAT      O43237   6.427   0.289   1.525
14332WAT     H143238   6.522   0.309   1.546
14332WAT     H243239   6.411   0.191   1.535
14333WAT      O43240   4.692   8.122   0.936
14333WAT     H143241   4.632   8.056   0.981
14333WAT     H243242   4.680   8.117   0.837
14334WAT      O43243   2.811   5.911   1.366
14334WAT     H143244   2.827   5.846   1.440
14334WAT     H243245   2.811   6.004   1.404
14335WAT      O43246   1.880   8.409   2.086
14335WAT     H143247   1.829   8.324   2.101
14335WAT     H243248   1.960   8.391   2.028
14336WAT      O43249   6.299   3.639   5.013
14336WAT     H143250   6.351   3.579   4.951
14336WAT     H243251   6.347   3.726   5.023
14337WAT      O43252   3.784   8.289   3.810
14337WAT     H143253   3.722   8.305   3.887
14337WAT     H243254   3.743   8.223   3.748
14338WAT      O43255   6.174   3.903   4.678
14338WAT     H143256   6.113   3.980   4.696
14338WAT     H243257   6.257   3.936   4.634
14339WAT      O43258   4.324   0.242   5.666
14339WAT     H143259   4.307   0.152   5.625
14339WAT     H243260   4.278   0.247   5.755
14340WAT      O43261   2.771   6.316   5.909
14340WAT     H143262   2.714   6.368   5.973
14340WAT     H243263   2.716   6.287   5.831
14341WAT      O43264   8.733   0.074   7.382
14341WAT     H143265   8.763   0.083   7.287
14341WAT     H243266   8.792   0.128   7.442
14342WAT      O43267   7.793   1.591   9.120
14342WAT     H143268   7.835   1.661   9.178
14342WAT     H243269   7.694   1.591   9.135
14343WAT      O43270   0.213   5.545   0.013
14343WAT     H143271   0.292   5.490  -0.012
14343WAT     H243272   0.144   5.487   0.056
14344WAT      O43273   5.433   9.139   6.636
14344WAT     H143274   5.491   9.195   6.697
14344WAT     H243275   5.362   9.197   6.597
14345WAT      O43276   7.836   6.870   6.649
14345WAT     H143277   7.791   6.903   6.567
14345WAT     H243278   7.795   6.914   6.729
14346WAT      O43279   6.696   4.627   4.176
14346WAT     H143280   6.621   4.668   4.124
14346WAT     H243281   6.688   4.652   4.272
14347WAT      O43282   9.069   7.604   1.128
14347WAT     H143283   9.059   7.635   1.222
14347WAT     H243284   9.151   7.548   1.120
14348WAT      O43285   8.724   1.782   5.424
14348WAT     H143286   8.743   1.732   5.508
14348WAT     H243287   8.715   1.717   5.348
14349WAT      O43288   8.243   9.413   1.346
14349WAT     H143289   8.323   9.472   1.344
14349WAT     H243290   8.212   9.401   1.440
14350WAT      O43291   5.307   3.038   6.865
14350WAT     H143292   5.354   3.085   6.791
14350WAT     H243293   5.209   3.038   6.848
14351WAT      O43294   7.133   5.813   7.201
14351WAT     H143295   7.156   5.892   7.143
14351WAT     H243296   7.167   5.829   7.294
14352WAT      O43297   7.912   6.155   9.254
14352WAT     H143298   7.984   6.097   9.294
14352WAT     H243299   7.827   6.141   9.303
14353WAT      O43300   8.927   5.142   6.500
14353WAT     H143301   9.003   5.117   6.561
14353WAT     H243302   8.876   5.218   6.540
14354WAT      O43303   3.849   6.746   8.591
14354WAT     H143304   3.947   6.759   8.607
14354WAT     H243305   3.816   6.671   8.648
14355WAT      O43306   5.527   4.765   0.811
14355WAT     H143307   5.474   4.727   0.736
14355WAT     H243308   5.502   4.718   0.896
14356WAT      O43309   5.156   3.993   9.169
14356WAT     H143310   5.154   4.083   9.214
14356WAT     H243311   5.103   3.998   9.085
14357WAT      O43312   7.476   1.579   0.921
14357WAT     H143313   7.471   1.679   0.927
14357WAT     H243314   7.548   1.545   0.981
14358WAT      O43315   8.030   4.727   1.324
14358WAT     H143316   8.087   4.737   1.405
14358WAT     H243317   7.964   4.802   1.320
14359WAT      O43318   2.003   2.750   7.778
14359WAT     H143319   2.078   2.747   7.845
14359WAT     H243320   1.959   2.840   7.781
14360WAT      O43321   3.637   0.272   5.864
14360WAT     H143322   3.581   0.191   5.844
14360WAT     H243323   3.604   0.314   5.949
14361WAT      O43324   7.701   0.536   3.419
14361WAT     H143325   7.750   0.555   3.504
14361WAT     H243326   7.765   0.502   3.351
14362WAT      O43327   6.065   0.481   8.435
14362WAT     H143328   6.057   0.575   8.470
14362WAT     H243329   6.117   0.482   8.350
14363WAT      O43330   6.062   6.748   7.189
14363WAT     H143331   6.094   6.739   7.283
14363WAT     H243332   5.964   6.730   7.185
14364WAT      O43333   4.850   1.077   3.286
14364WAT     H143334   4.839   1.052   3.189
14364WAT     H243335   4.804   1.009   3.343
14365WAT      O43336   8.869   8.275   2.380
14365WAT     H143337   8.882   8.196   2.440
14365WAT     H243338   8.842   8.355   2.434
14366WAT      O43339   0.085   7.136   6.303
14366WAT     H143340   0.046   7.064   6.246
14366WAT     H243341   0.024   7.153   6.381
14367WAT      O43342   4.466   0.522   8.554
14367WAT     H143343   4.442   0.547   8.647
14367WAT     H243344   4.502   0.428   8.553
14368WAT      O43345   1.514   0.938   6.042
14368WAT     H143346   1.424   0.895   6.031
14368WAT     H243347   1.533   0.952   6.139
14369WAT      O43348   1.008   9.503   2.040
14369WAT     H143349   1.024   9.487   2.138
14369WAT     H243350   1.095   9.505   1.992
14370WAT      O43351   2.144   4.982   3.546
14370WAT     H143352   2.229   4.944   3.582
14370WAT     H243353   2.092   5.023   3.621
14371WAT      O43354   5.156   7.964   4.575
14371WAT     H143355   5.246   7.949   4.534
14371WAT     H243356   5.086   7.919   4.519
14372WAT      O43357   6.047   3.886   8.496
14372WAT     H143358   6.036   3.984   8.478
14372WAT     H243359   6.080   3.874   8.590
14373WAT      O43360   1.071   2.329   2.984
14373WAT     H143361   0.984   2.280   2.974
14373WAT     H243362   1.062   2.422   2.948
14374WAT      O43363   6.751   5.779   3.559
14374WAT     H143364   6.694   5.730   3.625
14374WAT     H243365   6.841   5.796   3.600
14375WAT      O43366   3.760   0.546   6.646
14375WAT     H143367   3.794   0.640   6.645
14375WAT     H243368   3.662   0.546   6.625
14376WAT      O43369   9.658   4.288   5.012
14376WAT     H143370   9.713   4.217   5.056
14376WAT     H243371   9.695   4.378   5.034
14377WAT      O43372   5.299   6.620   9.871
14377WAT     H143373   5.369   6.690   9.857
14377WAT     H243374   5.332   6.532   9.836
14378WAT      O43375   2.480   7.832   5.139
14378WAT     H143376   2.519   7.766   5.074
14378WAT     H243377   2.503   7.803   5.232
14379WAT      O43378   7.398   5.290   6.324
14379WAT     H143379   7.495   5.271   6.314
14379WAT     H243380   7.345   5.213   6.290
14380WAT      O43381   4.722   3.391   8.492
14380WAT     H143382   4.671   3.471   8.522
14380WAT     H243383   4.820   3.412   8.491
14381WAT      O43384   6.283   0.378   2.229
14381WAT     H143385   6.218   0.450   2.251
14381WAT     H243386   6.277   0.357   2.131
14382WAT      O43387   0.311   4.318   2.106
14382WAT     H143388   0.367   4.283   2.031
14382WAT     H243389   0.225   4.267   2.110
14383WAT      O43390   3.837   1.695   2.719
14383WAT     H143391   3.808   1.607   2.758
14383WAT     H243392   3.802   1.769   2.775
14384WAT      O43393   3.242   4.660   4.759
14384WAT     H143394   3.312   4.731   4.753
14384WAT     H243395   3.187   4.660   4.675
14385WAT      O43396   5.932   8.004   3.214
14385WAT     H143397   5.877   8.052   3.145
14385WAT     H243398   5.943   8.062   3.294
14386WAT      O43399   0.549   5.770   5.875
14386WAT     H143400   0.456   5.740   5.900
14386WAT     H243401   0.570   5.855   5.924
14387WAT      O43402   2.339   9.182   4.450
14387WAT     H143403   2.412   9.130   4.495
14387WAT     H243404   2.274   9.214   4.519
14388WAT      O43405   8.926   5.890   1.457
14388WAT     H143406   8.939   5.908   1.360
14388WAT     H243407   8.828   5.885   1.477
14389WAT      O43408   4.116   4.834   6.164
14389WAT     H143409   4.191   4.812   6.227
14389WAT     H243410   4.139   4.918   6.114
14390WAT      O43411   7.966   4.997   6.200
14390WAT     H143412   8.025   4.922   6.173
14390WAT     H243413   8.021   5.079   6.216
14391WAT      O43414   0.873   4.246   6.892
14391WAT     H143415   0.935   4.303   6.838
14391WAT     H243416   0.790   4.228   6.839
14392WAT      O43417   9.642   0.884   4.405
14392WAT     H143418   9.560   0.839   4.368
14392WAT     H243419   9.621   0.981   4.422
14393WAT      O43420   9.224   0.961   0.233
14393WAT     H143421   9.216   0.996   0.326
14393WAT     H243422   9.210   0.862   0.233
14394WAT      O43423   3.284   7.185   5.615
14394WAT     H143424   3.308   7.088   5.602
14394WAT     H243425   3.193   7.191   5.657
14395WAT      O43426   2.409   5.057   1.783
14395WAT     H143427   2.415   4.957   1.790
14395WAT     H243428   2.329   5.082   1.729
14396WAT      O43429   9.806   2.802   9.583
14396WAT     H143430   9.777   2.887   9.626
14396WAT     H243431   9.853   2.821   9.497
14397WAT      O43432   8.198   3.042   2.125
14397WAT     H143433   8.265   3.115   2.109
14397WAT     H243434   8.138   3.035   2.046
14398WAT      O43435   0.135   6.598   7.339
14398WAT     H143436   0.077   6.573   7.262
14398WAT     H243437   0.192   6.521   7.365
14399WAT      O43438   5.721   6.639   3.219
14399WAT     H143439   5.736   6.633   3.121
14399WAT     H243440   5.623   6.640   3.238
14400WAT      O43441   8.429   8.778   2.728
14400WAT     H143442   8.413   8.715   2.652
14400WAT     H243443   8.525   8.805   2.729
14401WAT      O43444   8.308   1.582   0.389
14401WAT     H143445   8.315   1.578   0.290
14401WAT     H243446   8.394   1.551   0.430
14402WAT      O43447   9.862   2.719   4.668
14402WAT     H143448   9.765   2.696   4.655
14402WAT     H243449   9.871   2.817   4.683
14403WAT      O43450   6.799   1.002   1.288
14403WAT     H143451   6.898   1.006   1.270
14403WAT     H243452   6.749   0.993   1.202
14404WAT      O43453   2.412   0.174   4.112
14404WAT     H143454   2.486   0.187   4.178
14404WAT     H243455   2.396   0.260   4.063
14405WAT      O43456   0.208   7.174   1.678
14405WAT     H143457   0.150   7.177   1.760
14405WAT     H243458   0.253   7.263   1.665
14406WAT      O43459   3.904   3.389   9.536
14406WAT     H143460   3.919   3.485   9.509
14406WAT     H243461   3.811   3.362   9.513
14407WAT      O43462   6.315   0.837   8.350
14407WAT     H143463   6.388   0.791   8.300
14407WAT     H243464   6.291   0.922   8.303
14408WAT      O43465   5.233   1.236   7.549
14408WAT     H143466   5.160   1.280   7.496
14408WAT     H243467   5.209   1.141   7.567
14409WAT      O43468   8.513   3.603   3.399
14409WAT     H143469   8.461   3.636   3.478
14409WAT     H243470   8.493   3.661   3.319
14410WAT      O43471   5.193   1.972   1.899
14410WAT     H143472   5.212   1.970   1.998
14410WAT     H243473   5.177   2.067   1.870
14411WAT      O43474   8.287   4.303   6.499
14411WAT     H143475   8.247   4.326   6.587
14411WAT     H243476   8.220   4.253   6.443
14412WAT      O43477   4.770   8.219   9.893
14412WAT     H143478   4.811   8.190   9.806
14412WAT     H243479   4.711   8.297   9.877
14413WAT      O43480   7.524   4.528   1.562
14413WAT     H143481   7.462   4.498   1.635
14413WAT     H243482   7.561   4.448   1.515
14414WAT      O43483   1.744   7.302   9.582
14414WAT     H143484   1.736   7.207   9.552
14414WAT     H243485   1.803   7.352   9.519
14415WAT      O43486   5.887   0.249   9.496
14415WAT     H143487   5.886   0.149   9.484
14415WAT     H243488   5.794   0.283   9.505
14416WAT      O43489   1.569   5.639   9.854
14416WAT     H143490   1.636   5.604   9.789
14416WAT     H243491   1.597   5.729   9.886
14417WAT      O43492   3.619   9.306   4.357
14417WAT     H143493   3.561   9.355   4.422
14417WAT     H243494   3.562   9.247   4.299
14418WAT      O43495   6.908   1.989   8.930
14418WAT     H143496   6.841   1.973   9.003
14418WAT     H243497   6.930   1.903   8.885
14419WAT      O43498   0.434   7.008   7.775
14419WAT     H143499   0.456   7.089   7.720
14419WAT     H243500   0.504   6.997   7.846
14420WAT      O43501   9.384   1.778   5.245
14420WAT     H143502   9.384   1.839   5.324
14420WAT     H243503   9.328   1.817   5.172
14421WAT      O43504   0.274   7.198   9.185
14421WAT     H143505   0.313   7.287   9.162
14421WAT     H243506   0.302   7.172   9.278
14422WAT      O43507   5.091   7.709   5.135
14422WAT     H143508   5.054   7.677   5.048
14422WAT     H243509   5.191   7.704   5.133
14423WAT      O43510   4.467   1.773   8.178
14423WAT     H143511   4.552   1.820   8.152
14423WAT     H243512   4.450   1.788   8.276
14424WAT      O43513   8.220   8.491   9.655
14424WAT     H143514   8.233   8.413   9.716
14424WAT     H243515   8.133   8.535   9.676
14425WAT      O43516   5.810   3.286   5.695
14425WAT     H143517   5.888   3.225   5.704
14425WAT     H243518   5.833   3.360   5.632
14426WAT      O43519   8.721   9.351   2.024
14426WAT     H143520   8.687   9.257   2.032
14426WAT     H243521   8.809   9.359   2.071
14427WAT      O43522   3.963   6.846   6.138
14427WAT     H143523   3.921   6.784   6.204
14427WAT     H243524   3.940   6.816   6.045
14428WAT      O43525   7.385   7.229   5.559
14428WAT     H143526   7.408   7.317   5.517
14428WAT     H243527   7.302   7.193   5.516
14429WAT      O43528   5.017   3.030   0.421
14429WAT     H143529   5.114   3.030   0.446
14429WAT     H243530   4.990   3.123   0.396
14430WAT      O43531   7.204   0.383   2.061
14430WAT     H143532   7.119   0.407   2.108
14430WAT     H243533   7.183   0.326   1.981
14431WAT      O43534   0.024   3.921   8.884
14431WAT     H143535   0.115   3.935   8.923
14431WAT     H243536   0.011   3.824   8.864
14432WAT      O43537   1.326   9.766   1.423
14432WAT     H143538   1.270   9.708   1.364
14432WAT     H243539   1.276   9.790   1.505
14433WAT      O43540   3.946   4.375   3.353
14433WAT     H143541   4.035   4.401   3.391
14433WAT     H243542   3.883   4.452   3.359
14434WAT      O43543   8.539   1.374   8.206
14434WAT     H143544   8.600   1.450   8.229
14434WAT     H243545   8.450   1.410   8.179
14435WAT      O43546   8.419   8.801   4.961
14435WAT     H143547   8.332   8.818   5.008
14435WAT     H243548   8.484   8.873   4.985
14436WAT      O43549   3.264   2.547   5.832
14436WAT     H143550   3.290   2.500   5.748
14436WAT     H243551   3.182   2.602   5.815
14437WAT      O43552   6.784   9.165   3.336
14437WAT     H143553   6.852   9.194   3.403
14437WAT     H243554   6.757   9.070   3.355
14438WAT      O43555   4.200   8.677   9.282
14438WAT     H143556   4.232   8.770   9.298
14438WAT     H243557   4.172   8.667   9.187
14439WAT      O43558   8.112   7.480   2.757
14439WAT     H143559   8.035   7.522   2.805
14439WAT     H243560   8.158   7.415   2.818
14440WAT      O43561   2.625   4.664   2.294
14440WAT     H143562   2.716   4.632   2.268
14440WAT     H243563   2.604   4.632   2.387
14441WAT      O43564   1.397   9.389   5.804
14441WAT     H143565   1.410   9.381   5.706
14441WAT     H243566   1.333   9.319   5.836
14442WAT      O43567   8.777   8.773   8.048
14442WAT     H143568   8.876   8.759   8.037
14442WAT     H243569   8.736   8.789   7.958
14443WAT      O43570   6.552   5.359   7.622
14443WAT     H143571   6.609   5.411   7.685
14443WAT     H243572   6.504   5.287   7.673
14444WAT      O43573   8.152   1.294   7.997
14444WAT     H143574   8.061   1.334   7.985
14444WAT     H243575   8.169   1.280   8.094
14445WAT      O43576   7.738   1.133   5.638
14445WAT     H143577   7.733   1.060   5.707
14445WAT     H243578   7.792   1.102   5.560
14446WAT      O43579   5.194   1.303   0.793
14446WAT     H143580   5.222   1.382   0.737
14446WAT     H243581   5.120   1.331   0.854
14447WAT      O43582   7.451   5.916   6.674
14447WAT     H143583   7.452   5.823   6.638
14447WAT     H243584   7.360   5.939   6.709
14448WAT      O43585   6.094   3.786   5.861
14448WAT     H143586   6.077   3.689   5.845
14448WAT     H243587   6.175   3.815   5.811
14449WAT      O43588   3.158   3.757   2.160
14449WAT     H143589   3.231   3.693   2.139
14449WAT     H243590   3.189   3.822   2.230
14450WAT      O43591   2.376   8.537   6.086
14450WAT     H143592   2.440   8.515   6.013
14450WAT     H243593   2.362   8.635   6.090
14451WAT      O43594   4.120   5.157   7.381
14451WAT     H143595   4.109   5.248   7.422
14451WAT     H243596   4.032   5.111   7.378
14452WAT      O43597   4.124   4.809   5.305
14452WAT     H143598   4.198   4.743   5.317
14452WAT     H243599   4.161   4.894   5.270
14453WAT      O43600   6.072   4.649   2.976
14453WAT     H143601   6.141   4.580   2.953
14453WAT     H243602   5.982   4.618   2.946
14454WAT      O43603   2.798   3.442   6.290
14454WAT     H143604   2.764   3.417   6.199
14454WAT     H243605   2.863   3.372   6.322
14455WAT      O43606   7.108   6.006   7.506
14455WAT     H143607   7.038   6.025   7.575
14455WAT     H243608   7.117   6.085   7.445
14456WAT      O43609   6.063   5.494   3.276
14456WAT     H143610   6.076   5.454   3.185
14456WAT     H243611   6.017   5.583   3.266
14457WAT      O43612   7.770   7.078   2.985
14457WAT     H143613   7.773   7.176   2.967
14457WAT     H243614   7.730   7.031   2.907
14458WAT      O43615   7.397   0.361   7.869
14458WAT     H143616   7.470   0.316   7.920
14458WAT     H243617   7.309   0.343   7.914
14459WAT      O43618   2.705   0.891   7.931
14459WAT     H143619   2.669   0.896   8.024
14459WAT     H243620   2.791   0.942   7.925
14460WAT      O43621   6.954   0.078   9.239
14460WAT     H143622   6.931   0.167   9.198
14460WAT     H243623   6.902   0.066   9.323
14461WAT      O43624   1.401   1.584   7.347
14461WAT     H143625   1.368   1.556   7.437
14461WAT     H243626   1.323   1.612   7.291
14462WAT      O43627   8.461   9.267   9.247
14462WAT     H143628   8.421   9.357   9.266
14462WAT     H243629   8.560   9.275   9.240
14463WAT      O43630   3.358   3.961   7.597
14463WAT     H143631   3.292   4.031   7.624
14463WAT     H243632   3.409   3.994   7.517
14464WAT      O43633   1.606   7.422   8.538
14464WAT     H143634   1.696   7.378   8.538
14464WAT     H243635   1.618   7.521   8.543
14465WAT      O43636   1.228   9.785   9.557
14465WAT     H143637   1.178   9.872   9.551
14465WAT     H243638   1.317   9.801   9.598
14466WAT      O43639   7.328   3.068   7.413
14466WAT     H143640   7.363   3.082   7.320
14466WAT     H243641   7.394   3.015   7.466
14467WAT      O43642   0.058   2.530   1.821
14467WAT     H143643  -0.027   2.581   1.833
14467WAT     H243644   0.091   2.498   1.910
14468WAT      O43645   9.651   8.461   9.366
14468WAT     H143646   9.728   8.399   9.350
14468WAT     H243647   9.566   8.410   9.361
14469WAT      O43648   3.882   3.055   3.679
14469WAT     H143649   3.784   3.072   3.665
14469WAT     H243650   3.901   2.957   3.668
14470WAT      O43651   2.189   7.657   1.262
14470WAT     H143652   2.141   7.573   1.288
14470WAT     H243653   2.266   7.672   1.324
14471WAT      O43654   8.945   8.782   9.722
14471WAT     H143655   8.952   8.826   9.812
14471WAT     H243656   8.871   8.824   9.670
14472WAT      O43657   8.330   0.001   6.895
14472WAT     H143658   8.323   0.043   6.986
14472WAT     H243659   8.277   0.055   6.829
14473WAT      O43660   7.826   5.841   2.599
14473WAT     H143661   7.798   5.862   2.693
14473WAT     H243662   7.818   5.923   2.543
14474WAT      O43663   6.561   6.809   3.597
14474WAT     H143664   6.520   6.891   3.557
14474WAT     H243665   6.658   6.824   3.614
14475WAT      O43666   6.271   7.672   9.762
14475WAT     H143667   6.174   7.659   9.783
14475WAT     H243668   6.318   7.584   9.766
14476WAT      O43669   7.420   7.440   9.165
14476WAT     H143670   7.465   7.526   9.189
14476WAT     H243671   7.432   7.421   9.068
14477WAT      O43672   8.720   6.887   6.547
14477WAT     H143673   8.620   6.877   6.551
14477WAT     H243674   8.744   6.950   6.473
14478WAT      O43675   6.880   3.934   9.314
14478WAT     H143676   6.781   3.933   9.307
14478WAT     H243677   6.918   4.001   9.250
14479WAT      O43678   7.661   9.300   4.287
14479WAT     H143679   7.566   9.329   4.302
14479WAT     H243680   7.677   9.290   4.189
14480WAT      O43681   0.962   7.383   2.327
14480WAT     H143682   0.928   7.421   2.413
14480WAT     H243683   1.057   7.353   2.338
14481WAT      O43684   7.007   7.822   3.204
14481WAT     H143685   6.934   7.884   3.176
14481WAT     H243686   6.969   7.731   3.221
14482WAT      O43687   1.059   3.545   4.103
14482WAT     H143688   1.013   3.634   4.102
14482WAT     H243689   1.156   3.558   4.120
14483WAT      O43690   6.218   2.948   1.688
14483WAT     H143691   6.252   2.888   1.761
14483WAT     H243692   6.256   3.040   1.700
14484WAT      O43693   6.254   2.141   0.986
14484WAT     H143694   6.327   2.206   1.004
14484WAT     H243695   6.180   2.186   0.935
14485WAT      O43696   3.377   2.230   7.551
14485WAT     H143697   3.414   2.206   7.640
14485WAT     H243698   3.330   2.318   7.557
14486WAT      O43699   1.883   9.750   4.093
14486WAT     H143700   1.913   9.743   4.188
14486WAT     H243701   1.961   9.739   4.032
14487WAT      O43702   8.660   0.667   4.782
14487WAT     H143703   8.753   0.638   4.762
14487WAT     H243704   8.630   0.626   4.869
14488WAT      O43705   2.038   8.300   0.732
14488WAT     H143706   1.960   8.243   0.758
14488WAT     H243707   2.009   8.395   0.724
14489WAT      O43708   2.909   8.283   0.814
14489WAT     H143709   2.938   8.318   0.725
14489WAT     H243710   2.832   8.221   0.803
14490WAT      O43711   4.900   6.023   5.817
14490WAT     H143712   4.989   6.068   5.809
14490WAT     H243713   4.889   5.986   5.909
14491WAT      O43714   4.857   6.370   8.299
14491WAT     H143715   4.887   6.428   8.223
14491WAT     H243716   4.933   6.312   8.329
14492WAT      O43717   8.502   4.434   5.850
14492WAT     H143718   8.541   4.341   5.851
14492WAT     H243719   8.490   4.464   5.755
14493WAT      O43720   9.038   4.966   9.623
14493WAT     H143721   9.130   5.005   9.628
14493WAT     H243722   9.039   4.873   9.661
14494WAT      O43723   0.463   2.428   7.544
14494WAT     H143724   0.450   2.510   7.600
14494WAT     H243725   0.487   2.454   7.451
14495WAT      O43726   7.406   4.157   1.591
14495WAT     H143727   7.427   4.185   1.685
14495WAT     H243728   7.378   4.061   1.590
14496WAT      O43729   3.581   5.723   6.194
14496WAT     H143730   3.522   5.794   6.234
14496WAT     H243731   3.644   5.765   6.129
14497WAT      O43732   6.574   9.469   2.641
14497WAT     H143733   6.630   9.536   2.592
14497WAT     H243734   6.629   9.427   2.713
14498WAT      O43735   0.484   0.794   9.659
14498WAT     H143736   0.404   0.839   9.699
14498WAT     H243737   0.505   0.837   9.571
14499WAT      O43738   2.369   8.166   6.241
14499WAT     H143739   2.468   8.152   6.244
14499WAT     H243740   2.323   8.079   6.223
14500WAT      O43741   6.468   6.575   0.600
14500WAT     H143742   6.388   6.630   0.579
14500WAT     H243743   6.526   6.568   0.518
14501WAT      O43744   6.943   0.019   4.972
14501WAT     H143745   7.007   0.002   4.897
14501WAT     H243746   6.987  -0.005   5.059
14502WAT      O43747   8.053   5.192   8.706
14502WAT     H143748   8.052   5.121   8.635
14502WAT     H243749   7.960   5.224   8.723
14503WAT      O43750   5.242   9.143   3.196
14503WAT     H143751   5.214   9.186   3.110
14503WAT     H243752   5.317   9.195   3.237
14504WAT      O43753   0.764   1.028   0.578
14504WAT     H143754   0.776   0.932   0.556
14504WAT     H243755   0.740   1.038   0.675
14505WAT      O43756   9.418   9.311   7.326
14505WAT     H143757   9.466   9.392   7.294
14505WAT     H243758   9.367   9.269   7.251
14506WAT      O43759   7.995   4.558   2.501
14506WAT     H143760   8.030   4.615   2.427
14506WAT     H243761   8.047   4.574   2.584
14507WAT      O43762   1.447   0.997   4.665
14507WAT     H143763   1.440   1.072   4.600
14507WAT     H243764   1.398   1.021   4.749
14508WAT      O43765   0.089   6.570   8.558
14508WAT     H143766   0.025   6.535   8.489
14508WAT     H243767   0.179   6.583   8.517
14509WAT      O43768   9.280   1.426   2.894
14509WAT     H143769   9.243   1.359   2.958
14509WAT     H243770   9.216   1.501   2.884
14510WAT      O43771   6.701   6.147   3.321
14510WAT     H143772   6.698   6.239   3.362
14510WAT     H243773   6.623   6.094   3.354
14511WAT      O43774   8.440   6.861   6.486
14511WAT     H143775   8.383   6.902   6.558
14511WAT     H243776   8.449   6.763   6.504
14512WAT      O43777   2.149   1.639   7.825
14512WAT     H143778   2.217   1.681   7.765
14512WAT     H243779   2.109   1.709   7.884
14513WAT      O43780   3.499   5.603   2.229
14513WAT     H143781   3.516   5.586   2.132
14513WAT     H243782   3.401   5.593   2.247
14514WAT      O43783   9.337   3.386   0.235
14514WAT     H143784   9.437   3.388   0.228
14514WAT     H243785   9.298   3.355   0.148
14515WAT      O43786   1.913   5.329   0.438
14515WAT     H143787   1.925   5.230   0.447
14515WAT     H243788   1.865   5.365   0.517
14516WAT      O43789   0.960   0.846   0.151
14516WAT     H143790   1.028   0.891   0.209
14516WAT     H243791   0.971   0.746   0.158
14517WAT      O43792   2.884   4.457   0.148
14517WAT     H143793   2.971   4.411   0.129
14517WAT     H243794   2.831   4.403   0.212
14518WAT      O43795   7.698   1.608   0.172
14518WAT     H143796   7.784   1.581   0.127
14518WAT     H243797   7.638   1.529   0.178
14519WAT      O43798   1.722   0.492   6.200
14519WAT     H143799   1.646   0.534   6.151
14519WAT     H243800   1.743   0.547   6.281
14520WAT      O43801   1.812   3.805   7.345
14520WAT     H143802   1.849   3.726   7.393
14520WAT     H243803   1.749   3.855   7.405
14521WAT      O43804   5.329   0.820   1.912
14521WAT     H143805   5.384   0.737   1.902
14521WAT     H243806   5.293   0.847   1.822
14522WAT      O43807   2.951   4.896   1.317
14522WAT     H143808   2.979   4.890   1.221
14522WAT     H243809   2.890   4.973   1.329
14523WAT      O43810   6.131   9.526   2.107
14523WAT     H143811   6.102   9.615   2.074
14523WAT     H243812   6.226   9.508   2.079
14524WAT      O43813   0.926   8.498   7.063
14524WAT     H143814   0.969   8.410   7.079
14524WAT     H243815   0.964   8.566   7.127
14525WAT      O43816   5.056   4.690   6.299
14525WAT     H143817   5.130   4.704   6.234
14525WAT     H243818   4.982   4.755   6.280
14526WAT      O43819   5.415   9.248   1.261
14526WAT     H143820   5.495   9.306   1.274
14526WAT     H243821   5.372   9.269   1.173
14527WAT      O43822   1.353   3.134   6.839
14527WAT     H143823   1.392   3.080   6.764
14527WAT     H243824   1.286   3.199   6.801
14528WAT      O43825   7.800   3.823   0.771
14528WAT     H143826   7.745   3.878   0.834
14528WAT     H243827   7.875   3.780   0.820
14529WAT      O43828   8.260   7.842   1.506
14529WAT     H143829   8.206   7.865   1.426
14529WAT     H243830   8.218   7.765   1.554
14530WAT      O43831   1.961   0.694   8.008
14530WAT     H143832   1.976   0.636   7.928
14530WAT     H243833   1.872   0.672   8.049
14531WAT      O43834   1.921   1.548   0.376
14531WAT     H143835   1.974   1.535   0.461
14531WAT     H243836   1.966   1.500   0.301
14532WAT      O43837   6.744   7.340   3.033
14532WAT     H143838   6.746   7.340   2.933
14532WAT     H243839   6.650   7.334   3.065
14533WAT      O43840   5.578   0.549   9.358
14533WAT     H143841   5.646   0.619   9.335
14533WAT     H243842   5.530   0.576   9.442
14534WAT      O43843   2.062   7.702   8.042
14534WAT     H143844   2.014   7.652   8.114
14534WAT     H243845   2.009   7.784   8.020
14535WAT      O43846   8.755   7.674   8.473
14535WAT     H143847   8.766   7.658   8.375
14535WAT     H243848   8.778   7.769   8.494
14536WAT      O43849   1.405   5.854   4.895
14536WAT     H143850   1.421   5.854   4.796
14536WAT     H243851   1.415   5.761   4.931
14537WAT      O43852   6.882   2.764   1.889
14537WAT     H143853   6.861   2.815   1.972
14537WAT     H243854   6.947   2.816   1.834
14538WAT      O43855   3.828   1.739   2.451
14538WAT     H143856   3.900   1.808   2.451
14538WAT     H243857   3.822   1.697   2.542
14539WAT      O43858   2.297   0.356   2.069
14539WAT     H143859   2.267   0.334   2.162
14539WAT     H243860   2.220   0.391   2.016
14540WAT      O43861   2.726   5.825   4.596
14540WAT     H143862   2.814   5.872   4.602
14540WAT     H243863   2.668   5.852   4.673
14541WAT      O43864   2.148   8.190   1.563
14541WAT     H143865   2.177   8.253   1.490
14541WAT     H243866   2.073   8.133   1.530
14542WAT      O43867   1.990   3.268   6.398
14542WAT     H143868   1.948   3.337   6.457
14542WAT     H243869   1.939   3.182   6.405
14543WAT      O43870   2.882   3.734   5.731
14543WAT     H143871   2.831   3.648   5.741
14543WAT     H243872   2.820   3.811   5.748
14544WAT      O43873   2.046   7.469   5.376
14544WAT     H143874   2.085   7.383   5.342
14544WAT     H243875   1.995   7.514   5.302
14545WAT      O43876   7.955   7.108   5.289
14545WAT     H143877   7.900   7.184   5.255
14545WAT     H243878   7.905   7.022   5.278
14546WAT      O43879   7.216   2.856   1.173
14546WAT     H143880   7.314   2.877   1.176
14546WAT     H243881   7.164   2.935   1.205
14547WAT      O43882   1.594   4.508   1.541
14547WAT     H143883   1.540   4.560   1.607
14547WAT     H243884   1.686   4.547   1.536
14548WAT      O43885   9.769   4.701   0.451
14548WAT     H143886   9.681   4.748   0.440
14548WAT     H243887   9.820   4.704   0.365
14549WAT      O43888   5.410   2.135   5.413
14549WAT     H143889   5.444   2.220   5.453
14549WAT     H243890   5.350   2.155   5.336
14550WAT      O43891   9.210   5.816   1.481
14550WAT     H143892   9.115   5.845   1.489
14550WAT     H243893   9.217   5.718   1.501
14551WAT      O43894   6.575   7.634   5.462
14551WAT     H143895   6.487   7.606   5.424
14551WAT     H243896   6.621   7.696   5.398
14552WAT      O43897   9.658   7.987   4.545
14552WAT     H143898   9.737   7.985   4.607
14552WAT     H243899   9.575   8.009   4.596
14553WAT      O43900   4.645   6.726   0.998
14553WAT     H143901   4.632   6.806   1.057
14553WAT     H243902   4.570   6.662   1.013
14554WAT      O43903   9.541   9.501   8.094
14554WAT     H143904   9.547   9.568   8.020
14554WAT     H243905   9.606   9.526   8.166
14555WAT      O43906   3.326   0.512   3.371
14555WAT     H143907   3.426   0.514   3.379
14555WAT     H243908   3.291   0.432   3.419
14556WAT      O43909   8.110   3.560   6.135
14556WAT     H143910   8.024   3.516   6.162
14556WAT     H243911   8.090   3.639   6.077
14557WAT      O43912   6.060   1.171   3.405
14557WAT     H143913   6.016   1.245   3.457
14557WAT     H243914   5.991   1.126   3.348
14558WAT      O43915   1.644   5.540   0.771
14558WAT     H143916   1.564   5.579   0.817
14558WAT     H243917   1.693   5.611   0.722
14559WAT      O43918   7.478   3.680   3.213
14559WAT     H143919   7.478   3.710   3.308
14559WAT     H243920   7.560   3.625   3.196
14560WAT      O43921   8.756   3.432   0.965
14560WAT     H143922   8.837   3.469   1.010
14560WAT     H243923   8.706   3.374   1.030
14561WAT      O43924   5.880   2.452   8.177
14561WAT     H143925   5.948   2.470   8.106
14561WAT     H243926   5.807   2.520   8.171
14562WAT      O43927   2.168   7.274   5.265
14562WAT     H143928   2.250   7.252   5.318
14562WAT     H243929   2.158   7.207   5.191
14563WAT      O43930   3.038   3.649   1.702
14563WAT     H143931   2.939   3.659   1.704
14563WAT     H243932   3.080   3.732   1.739
14564WAT      O43933   6.684   8.628   0.785
14564WAT     H143934   6.763   8.664   0.835
14564WAT     H243935   6.660   8.537   0.820
14565WAT      O43936   9.878   6.953   0.224
14565WAT     H143937   9.845   6.891   0.153
14565WAT     H243938   9.971   6.928   0.250
14566WAT      O43939   7.907   2.031   0.193
14566WAT     H143940   7.914   1.931   0.197
14566WAT     H243941   7.830   2.057   0.133
14567WAT      O43942   3.434   8.539   5.345
14567WAT     H143943   3.393   8.510   5.432
14567WAT     H243944   3.426   8.638   5.336
14568WAT      O43945   6.392   6.784   8.065
14568WAT     H143946   6.364   6.776   7.969
14568WAT     H243947   6.445   6.703   8.091
14569WAT      O43948   0.157   7.234   8.785
14569WAT     H143949   0.240   7.275   8.822
14569WAT     H243950   0.118   7.294   8.715
14570WAT      O43951   9.129   0.462   1.137
14570WAT     H143952   9.142   0.554   1.100
14570WAT     H243953   9.119   0.397   1.062
14571WAT      O43954   9.815   1.541   8.833
14571WAT     H143955   9.758   1.471   8.790
14571WAT     H243956   9.759   1.621   8.853
14572WAT      O43957   0.435   2.152   6.254
14572WAT     H143958   0.446   2.104   6.167
14572WAT     H243959   0.347   2.126   6.295
14573WAT      O43960   0.187   2.112   6.368
14573WAT     H143961   0.131   2.032   6.391
14573WAT     H243962   0.126   2.188   6.343
14574WAT      O43963   1.215   1.531   5.643
14574WAT     H143964   1.247   1.470   5.570
14574WAT     H243965   1.184   1.617   5.602
14575WAT      O43966   8.524   9.066   9.071
14575WAT     H143967   8.472   9.146   9.101
14575WAT     H243968   8.471   9.014   9.004
14576WAT      O43969   0.474   6.113   7.385
14576WAT     H143970   0.457   6.108   7.483
14576WAT     H243971   0.554   6.057   7.362
14577WAT      O43972   5.254   8.436   8.815
14577WAT     H143973   5.283   8.478   8.901
14577WAT     H243974   5.324   8.371   8.784
14578WAT      O43975   2.534   3.789   8.221
14578WAT     H143976   2.435   3.783   8.211
14578WAT     H243977   2.578   3.779   8.132
14579WAT      O43978   2.328   2.803   7.573
14579WAT     H143979   2.410   2.859   7.578
14579WAT     H243980   2.256   2.854   7.526
14580WAT      O43981   5.307   3.861   3.500
14580WAT     H143982   5.348   3.939   3.547
14580WAT     H243983   5.237   3.893   3.437
14581WAT      O43984   9.034   8.473   4.919
14581WAT     H143985   8.951   8.443   4.873
14581WAT     H243986   9.010   8.520   5.004
14582WAT      O43987   0.887   0.799   8.867
14582WAT     H143988   0.963   0.788   8.931
14582WAT     H243989   0.821   0.863   8.905
14583WAT      O43990   4.860   4.941   9.861
14583WAT     H143991   4.830   4.849   9.884
14583WAT     H243992   4.813   5.007   9.920
14584WAT      O43993   3.216   1.848   2.906
14584WAT     H143994   3.172   1.787   2.840
14584WAT     H243995   3.152   1.867   2.981
14585WAT      O43996   1.836   7.376   9.830
14585WAT     H143997   1.935   7.359   9.829
14585WAT     H243998   1.794   7.332   9.750
14586WAT      O43999   5.887   6.945   1.410
14586WAT     H144000   5.868   7.041   1.386
14586WAT     H244001   5.906   6.939   1.508
14587WAT      O44002   9.402   2.067   4.600
14587WAT     H144003   9.452   2.034   4.520
14587WAT     H244004   9.319   2.113   4.571
14588WAT      O44005   9.033   1.436   5.967
14588WAT     H144006   9.054   1.520   6.017
14588WAT     H244007   9.108   1.370   5.980
14589WAT      O44008   5.797   0.524   7.466
14589WAT     H144009   5.807   0.572   7.379
14589WAT     H244010   5.738   0.577   7.527
14590WAT      O44011   4.850   5.561   2.628
14590WAT     H144012   4.805   5.577   2.540
14590WAT     H244013   4.824   5.471   2.662
14591WAT      O44014   8.842   9.568   0.402
14591WAT     H144015   8.934   9.605   0.413
14591WAT     H244016   8.845   9.490   0.339
14592WAT      O44017   2.688   6.686   7.498
14592WAT     H144018   2.675   6.785   7.507
14592WAT     H244019   2.611   6.647   7.447
14593WAT      O44020   8.606   7.605   7.158
14593WAT     H144021   8.656   7.619   7.243
14593WAT     H244022   8.644   7.664   7.087
14594WAT      O44023   5.247   9.261   4.185
14594WAT     H144024   5.241   9.307   4.273
14594WAT     H244025   5.211   9.320   4.113
14595WAT      O44026   0.970   6.518   9.214
14595WAT     H144027   1.048   6.501   9.274
14595WAT     H244028   0.924   6.432   9.194
14596WAT      O44029   0.375   4.723   8.753
14596WAT     H144030   0.340   4.663   8.681
14596WAT     H244031   0.470   4.745   8.735
14597WAT      O44032   5.159   5.968   1.554
14597WAT     H144033   5.186   6.063   1.573
14597WAT     H244034   5.085   5.941   1.615
14598WAT      O44035   6.162   8.842   3.384
14598WAT     H144036   6.118   8.756   3.410
14598WAT     H244037   6.115   8.881   3.305
14599WAT      O44038   7.471   4.737   6.494
14599WAT     H144039   7.453   4.832   6.468
14599WAT     H244040   7.551   4.734   6.554
14600WAT      O44041   7.454   6.798   5.199
14600WAT     H144042   7.495   6.770   5.286
14600WAT     H244043   7.395   6.724   5.165
14601WAT      O44044   3.357   1.917   1.980
14601WAT     H144045   3.380   1.999   2.031
14601WAT     H244046   3.315   1.942   1.892
14602WAT      O44047   2.963   3.322   0.777
14602WAT     H144048   2.946   3.226   0.756
14602WAT     H244049   2.896   3.378   0.728
14603WAT      O44050   6.119   3.755   9.035
14603WAT     H144051   6.042   3.810   9.006
14603WAT     H244052   6.173   3.805   9.102
14604WAT      O44053   1.736   8.824   6.338
14604WAT     H144054   1.639   8.848   6.343
14604WAT     H244055   1.746   8.725   6.342
14605WAT      O44056   8.430   1.015   3.989
14605WAT     H144057   8.476   1.047   3.906
14605WAT     H244058   8.499   0.977   4.051
14606WAT      O44059   6.771   3.015   2.407
14606WAT     H144060   6.816   3.010   2.318
14606WAT     H244061   6.817   2.954   2.471
14607WAT      O44062   8.538   3.797   7.787
14607WAT     H144063   8.469   3.785   7.716
14607WAT     H244064   8.500   3.768   7.875
14608WAT      O44065   0.363   4.932   0.525
14608WAT     H144066   0.418   4.937   0.608
14608WAT     H244067   0.308   4.848   0.527
14609WAT      O44068   2.459   8.079   5.483
14609WAT     H144069   2.484   8.054   5.389
14609WAT     H244070   2.541   8.075   5.541
14610WAT      O44071   0.904   1.845  -0.003
14610WAT     H144072   0.905   1.860   0.096
14610WAT     H244073   0.839   1.772  -0.025
14611WAT      O44074   0.633   4.242   1.675
14611WAT     H144075   0.592   4.253   1.585
14611WAT     H244076   0.678   4.327   1.703
14612WAT      O44077   2.397   7.552   6.095
14612WAT     H144078   2.452   7.521   6.017
14612WAT     H244079   2.458   7.578   6.170
14613WAT      O44080   8.951   5.837   9.480
14613WAT     H144081   8.943   5.773   9.556
14613WAT     H244082   8.860   5.871   9.455
14614WAT      O44083   6.923   2.015   1.898
14614WAT     H144084   6.912   2.077   1.976
14614WAT     H244085   6.910   1.920   1.929
14615WAT      O44086   3.047   7.917   8.322
14615WAT     H144087   3.014   7.927   8.416
14615WAT     H244088   3.079   8.005   8.289
14616WAT      O44089   4.163   3.110   5.507
14616WAT     H144090   4.127   3.019   5.486
14616WAT     H244091   4.210   3.108   5.595
14617WAT      O44092   1.939   5.733   2.568
14617WAT     H144093   1.946   5.788   2.651
14617WAT     H244094   2.018   5.752   2.509
14618WAT      O44095   8.107   7.152   2.006
14618WAT     H144096   8.157   7.166   2.092
14618WAT     H244097   8.160   7.188   1.930
14619WAT      O44098   9.479   1.513   0.458
14619WAT     H144099   9.555   1.454   0.430
14619WAT     H244100   9.440   1.480   0.543
14620WAT      O44101   0.572   7.328   1.719
14620WAT     H144102   0.497   7.393   1.709
14620WAT     H244103   0.658   7.377   1.725
14621WAT      O44104   7.248   1.274   3.993
14621WAT     H144105   7.197   1.294   4.077
14621WAT     H244106   7.267   1.176   3.989
14622WAT      O44107   9.465   5.979   2.471
14622WAT     H144108   9.474   6.068   2.516
14622WAT     H244109   9.437   5.993   2.376
14623WAT      O44110   1.164   1.835   3.078
14623WAT     H144111   1.211   1.832   2.990
14623WAT     H244112   1.066   1.850   3.063
14624WAT      O44113   1.709   0.508   2.256
14624WAT     H144114   1.716   0.502   2.355
14624WAT     H244115   1.684   0.601   2.229
14625WAT      O44116   3.138   5.669   8.990
14625WAT     H144117   3.077   5.740   9.025
14625WAT     H244118   3.217   5.659   9.051
14626WAT      O44119   8.788   8.993   2.449
14626WAT     H144120   8.785   9.013   2.547
14626WAT     H244121   8.724   9.053   2.401
14627WAT      O44122   2.733   2.710   8.139
14627WAT     H144123   2.669   2.721   8.214
14627WAT     H244124   2.692   2.743   8.054
14628WAT      O44125   2.959   2.914   8.301
14628WAT     H144126   2.922   3.003   8.324
14628WAT     H244127   2.935   2.891   8.206
14629WAT      O44128   0.456   7.148   1.524
14629WAT     H144129   0.538   7.191   1.561
14629WAT     H244130   0.385   7.145   1.595
14630WAT      O44131   5.709   5.977   3.880
14630WAT     H144132   5.618   5.945   3.908
14630WAT     H244133   5.777   5.944   3.946
14631WAT      O44134   3.966   6.397   1.796
14631WAT     H144135   4.037   6.433   1.735
14631WAT     H244136   4.008   6.371   1.883
14632WAT      O44137   5.607   4.977   9.319
14632WAT     H144138   5.605   4.901   9.384
14632WAT     H244139   5.526   5.035   9.334
14633WAT      O44140   1.414   7.146   3.134
14633WAT     H144141   1.376   7.233   3.102
14633WAT     H244142   1.501   7.128   3.087
14634WAT      O44143   7.013   0.732   7.808
14634WAT     H144144   6.997   0.808   7.871
14634WAT     H244145   6.927   0.708   7.762
14635WAT      O44146   2.312   3.035   8.974
14635WAT     H144147   2.337   3.126   8.941
14635WAT     H244148   2.212   3.028   8.982
14636WAT      O44149   1.283   3.579   0.815
14636WAT     H144150   1.354   3.544   0.876
14636WAT     H244151   1.287   3.530   0.728
14637WAT      O44152   2.084   1.994   2.639
14637WAT     H144153   2.079   2.092   2.618
14637WAT     H244154   2.171   1.973   2.684
14638WAT      O44155   6.082   3.914   6.672
14638WAT     H144156   6.155   3.940   6.609
14638WAT     H244157   5.994   3.944   6.637
14639WAT      O44158   3.859   0.951   7.703
14639WAT     H144159   3.829   0.925   7.795
14639WAT     H244160   3.908   1.038   7.708
14640WAT      O44161   0.066   3.093   9.597
14640WAT     H144162   0.131   3.122   9.527
14640WAT     H244163   0.117   3.061   9.678
14641WAT      O44164   0.279   3.937   3.752
14641WAT     H144165   0.191   3.973   3.722
14641WAT     H244166   0.341   3.932   3.674
14642WAT      O44167   1.889   0.444   2.983
14642WAT     H144168   1.971   0.387   2.982
14642WAT     H244169   1.907   0.529   3.031
14643WAT      O44170   5.764   2.878   4.197
14643WAT     H144171   5.768   2.880   4.297
14643WAT     H244172   5.857   2.870   4.161
14644WAT      O44173   2.808   1.896   7.710
14644WAT     H144174   2.746   1.975   7.714
14644WAT     H244175   2.875   1.901   7.784
14645WAT      O44176   2.869   1.340   1.153
14645WAT     H144177   2.878   1.430   1.111
14645WAT     H244178   2.890   1.346   1.251
14646WAT      O44179   9.661   7.014   7.999
14646WAT     H144180   9.569   6.982   7.972
14646WAT     H244181   9.653   7.098   8.052
14647WAT      O44182   4.889   3.710   5.910
14647WAT     H144183   4.962   3.770   5.942
14647WAT     H244184   4.919   3.614   5.915
14648WAT      O44185   1.555   8.406   3.731
14648WAT     H144186   1.499   8.464   3.790
14648WAT     H244187   1.618   8.462   3.678
14649WAT      O44188   0.287   8.245   4.412
14649WAT     H144189   0.300   8.332   4.364
14649WAT     H244190   0.194   8.213   4.398
14650WAT      O44191   2.065   2.321   0.257
14650WAT     H144192   1.977   2.330   0.211
14650WAT     H244193   2.115   2.407   0.250
14651WAT      O44194   5.039   9.692   6.842
14651WAT     H144195   4.988   9.658   6.921
14651WAT     H244196   5.137   9.694   6.863
14652WAT      O44197   4.847   3.758   1.592
14652WAT     H144198   4.766   3.746   1.651
14652WAT     H244199   4.927   3.776   1.649
14653WAT      O44200   7.875   1.154   0.840
14653WAT     H144201   7.889   1.216   0.763
14653WAT     H244202   7.807   1.085   0.815
14654WAT      O44203   8.271   4.172   7.154
14654WAT     H144204   8.206   4.151   7.080
14654WAT     H244205   8.298   4.268   7.148
14655WAT      O44206   2.194   0.596   0.158
14655WAT     H144207   2.268   0.637   0.212
14655WAT     H244208   2.128   0.553   0.219
14656WAT      O44209   7.523   3.796   4.140
14656WAT     H144210   7.573   3.871   4.096
14656WAT     H244211   7.588   3.731   4.179
14657WAT      O44212   5.214   6.856   8.183
14657WAT     H144213   5.198   6.760   8.162
14657WAT     H244214   5.193   6.874   8.279
14658WAT      O44215   6.041   4.465   1.887
14658WAT     H144216   5.950   4.505   1.899
14658WAT     H244217   6.057   4.397   1.958
14659WAT      O44218   6.075   2.745   5.441
14659WAT     H144219   6.088   2.648   5.424
14659WAT     H244220   6.135   2.773   5.517
14660WAT      O44221   5.449   2.663   6.179
14660WAT     H144222   5.539   2.665   6.221
14660WAT     H244223   5.440   2.740   6.117
14661WAT      O44224   4.880   3.564   4.400
14661WAT     H144225   4.956   3.627   4.382
14661WAT     H244226   4.805   3.615   4.443
14662WAT      O44227   5.549   7.073   7.616
14662WAT     H144228   5.591   7.162   7.630
14662WAT     H244229   5.618   7.001   7.626
14663WAT      O44230   5.463   2.380   1.186
14663WAT     H144231   5.425   2.306   1.242
14663WAT     H244232   5.524   2.341   1.117
14664WAT      O44233   5.962   3.472   6.733
14664WAT     H144234   5.999   3.399   6.676
14664WAT     H244235   5.942   3.437   6.824
14665WAT      O44236   0.201   0.784   4.586
14665WAT     H144237   0.263   0.732   4.528
14665WAT     H244238   0.107   0.756   4.569
14666WAT      O44239   9.613   6.865   5.435
14666WAT     H144240   9.603   6.899   5.341
14666WAT     H244241   9.621   6.766   5.434
14667WAT      O44242   1.539   5.960   1.862
14667WAT     H144243   1.599   5.895   1.907
14667WAT     H244244   1.593   6.036   1.826
14668WAT      O44245   9.018   3.123   2.146
14668WAT     H144246   9.018   3.221   2.169
14668WAT     H244247   8.982   3.071   2.224
14669WAT      O44248   3.142   5.154   6.353
14669WAT     H144249   3.166   5.070   6.400
14669WAT     H244250   3.170   5.148   6.257
14670WAT      O44251   4.133   1.378   0.094
14670WAT     H144252   4.161   1.362   0.188
14670WAT     H244253   4.148   1.475   0.071
14671WAT      O44254   5.205   4.232   8.546
14671WAT     H144255   5.179   4.273   8.459
14671WAT     H244256   5.192   4.133   8.542
14672WAT      O44257   4.920   9.468   6.736
14672WAT     H144258   4.970   9.534   6.792
14672WAT     H244259   4.952   9.475   6.641
14673WAT      O44260   9.363   6.383   6.738
14673WAT     H144261   9.458   6.400   6.763
14673WAT     H244262   9.359   6.326   6.655
14674WAT      O44263   7.963   6.020   5.049
14674WAT     H144264   7.933   6.013   4.954
14674WAT     H244265   8.052   5.975   5.059
14675WAT      O44266   2.927   0.657   6.301
14675WAT     H144267   2.934   0.644   6.400
14675WAT     H244268   2.857   0.595   6.265
14676WAT      O44269   6.384   4.062   6.261
14676WAT     H144270   6.454   3.992   6.247
14676WAT     H244271   6.409   4.145   6.212
14677WAT      O44272   2.222   9.814   6.622
14677WAT     H144273   2.123   9.806   6.617
14677WAT     H244274   2.247   9.878   6.695
14678WAT      O44275   7.533   6.435   0.315
14678WAT     H144276   7.530   6.347   0.267
14678WAT     H244277   7.615   6.485   0.289
14679WAT      O44278   2.302   8.113   9.621
14679WAT     H144279   2.249   8.166   9.688
14679WAT     H244280   2.314   8.167   9.538
14680WAT      O44281   7.903   0.723   2.675
14680WAT     H144282   7.976   0.656   2.668
14680WAT     H244283   7.929   0.807   2.626
14681WAT      O44284   5.199   9.023   9.553
14681WAT     H144285   5.255   9.036   9.635
14681WAT     H244286   5.253   9.047   9.472
14682WAT      O44287   0.886   3.168   7.028
14682WAT     H144288   0.811   3.206   7.083
14682WAT     H244289   0.968   3.159   7.085
14683WAT      O44290   8.117   1.504   2.271
14683WAT     H144291   8.198   1.485   2.216
14683WAT     H244292   8.115   1.601   2.297
14684WAT      O44293   9.468   4.256   9.538
14684WAT     H144294   9.490   4.174   9.590
14684WAT     H244295   9.370   4.275   9.546
14685WAT      O44296   5.195   2.098   3.185
14685WAT     H144297   5.156   2.171   3.241
14685WAT     H244298   5.194   2.012   3.236
14686WAT      O44299   1.073   7.750   9.097
14686WAT     H144300   1.131   7.697   9.158
14686WAT     H244301   1.021   7.817   9.150
14687WAT      O44302   3.542   4.204   8.900
14687WAT     H144303   3.489   4.214   8.816
14687WAT     H244304   3.615   4.137   8.885
14688WAT      O44305   5.450   2.114   9.594
14688WAT     H144306   5.359   2.146   9.621
14688WAT     H244307   5.517   2.139   9.663
14689WAT      O44308   9.600   2.360   3.282
14689WAT     H144309   9.563   2.270   3.257
14689WAT     H244310   9.529   2.415   3.324
14690WAT      O44311   7.207   1.102   6.283
14690WAT     H144312   7.127   1.094   6.343
14690WAT     H244313   7.185   1.163   6.207
14691WAT      O44314   6.727   8.329   6.876
14691WAT     H144315   6.661   8.257   6.898
14691WAT     H244316   6.756   8.374   6.961
14692WAT      O44317   7.673   7.796   2.970
14692WAT     H144318   7.593   7.817   3.026
14692WAT     H244319   7.644   7.748   2.887
14693WAT      O44320   4.529   0.446   4.599
14693WAT     H144321   4.456   0.416   4.661
14693WAT     H244322   4.585   0.516   4.645
14694WAT      O44323   1.871   2.979   7.771
14694WAT     H144324   1.802   2.988   7.842
14694WAT     H244325   1.956   3.022   7.802
14695WAT      O44326   5.549   3.757   6.714
14695WAT     H144327   5.587   3.816   6.786
14695WAT     H244328   5.595   3.668   6.716
14696WAT      O44329   5.275   5.236   3.144
14696WAT     H144330   5.286   5.237   3.243
14696WAT     H244331   5.183   5.204   3.121
14697WAT      O44332   9.101   4.673   8.735
14697WAT     H144333   9.023   4.612   8.719
14697WAT     H244334   9.170   4.625   8.790
14698WAT      O44335   1.214   5.640   6.588
14698WAT     H144336   1.199   5.568   6.657
14698WAT     H244337   1.303   5.626   6.545
14699WAT      O44338   7.764   5.572   3.198
14699WAT     H144339   7.670   5.559   3.169
14699WAT     H244340   7.781   5.669   3.217
14700WAT      O44341   0.118   9.282   7.791
14700WAT     H144342   0.045   9.284   7.723
14700WAT     H244343   0.184   9.212   7.767
14701WAT      O44344   4.962   8.254   7.075
14701WAT     H144345   4.966   8.354   7.072
14701WAT     H244346   4.947   8.218   6.982
14702WAT      O44347   1.991   6.708   1.288
14702WAT     H144348   2.007   6.805   1.304
14702WAT     H244349   1.909   6.679   1.337
14703WAT      O44350   9.671   0.269   9.314
14703WAT     H144351   9.694   0.258   9.217
14703WAT     H244352   9.586   0.221   9.334
14704WAT      O44353   0.739   9.590   5.333
14704WAT     H144354   0.831   9.574   5.367
14704WAT     H244355   0.677   9.608   5.410
14705WAT      O44356   5.732   1.095   0.557
14705WAT     H144357   5.677   1.013   0.542
14705WAT     H244358   5.694   1.148   0.632
14706WAT      O44359   2.324   7.862   6.212
14706WAT     H144360   2.317   7.795   6.286
14706WAT     H244361   2.378   7.823   6.137
14707WAT      O44362   2.968   5.753   8.342
14707WAT     H144363   2.894   5.813   8.312
14707WAT     H244364   2.975   5.756   8.442
14708WAT      O44365   0.670   3.202   4.733
14708WAT     H144366   0.722   3.137   4.788
14708WAT     H244367   0.694   3.295   4.760
14709WAT      O44368   5.851   4.749   1.624
14709WAT     H144369   5.871   4.771   1.719
14709WAT     H244370   5.753   4.736   1.612
14710WAT      O44371   8.979   0.011   4.420
14710WAT     H144372   8.900  -0.046   4.442
14710WAT     H244373   9.055  -0.011   4.482
14711WAT      O44374   1.836   6.123   4.949
14711WAT     H144375   1.835   6.079   5.039
14711WAT     H244376   1.859   6.055   4.879
14712WAT      O44377   6.837   8.559   5.103
14712WAT     H144378   6.798   8.642   5.064
14712WAT     H244379   6.840   8.567   5.203
14713WAT      O44380   2.911   7.857   5.120
14713WAT     H144381   2.882   7.897   5.032
14713WAT     H244382   2.941   7.763   5.106
14714WAT      O44383   8.801   8.287   7.265
14714WAT     H144384   8.753   8.269   7.179
14714WAT     H244385   8.743   8.260   7.342
14715WAT      O44386   9.740   5.500   3.456
14715WAT     H144387   9.810   5.486   3.386
14715WAT     H244388   9.751   5.591   3.496
14716WAT      O44389   8.016   7.271   9.043
14716WAT     H144390   7.922   7.241   9.062
14716WAT     H244391   8.079   7.219   9.100
14717WAT      O44392   1.013   8.672   8.390
14717WAT     H144393   1.021   8.731   8.470
14717WAT     H244394   1.049   8.582   8.411
14718WAT      O44395   4.821   4.252   5.576
14718WAT     H144396   4.756   4.203   5.634
14718WAT     H244397   4.775   4.284   5.494
14719WAT      O44398   7.774   8.939   5.853
14719WAT     H144399   7.816   9.011   5.910
14719WAT     H244400   7.716   8.881   5.910
14720WAT      O44401   2.995   7.089   9.277
14720WAT     H144402   3.092   7.069   9.288
14720WAT     H244403   2.955   7.023   9.213
14721WAT      O44404   0.919   6.508   3.004
14721WAT     H144405   0.998   6.549   3.051
14721WAT     H244406   0.843   6.572   3.004
14722WAT      O44407   3.445   2.177   1.072
14722WAT     H144408   3.386   2.096   1.070
14722WAT     H244409   3.534   2.152   1.110
14723WAT      O44410   5.041   1.878   5.635
14723WAT     H144411   5.010   1.937   5.561
14723WAT     H244412   5.133   1.906   5.665
14724WAT      O44413   9.055   2.300   7.439
14724WAT     H144414   9.094   2.245   7.513
14724WAT     H244415   8.966   2.337   7.468
14725WAT      O44416   6.230   1.690   2.249
14725WAT     H144417   6.228   1.786   2.221
14725WAT     H244418   6.287   1.638   2.185
14726WAT      O44419   3.992   2.992   4.473
14726WAT     H144420   4.011   2.928   4.399
14726WAT     H244421   3.984   3.084   4.436
14727WAT      O44422   3.301   5.075   5.722
14727WAT     H144423   3.385   5.068   5.668
14727WAT     H244424   3.314   5.025   5.808
14728WAT      O44425   4.134   3.223   0.962
14728WAT     H144426   4.161   3.245   1.056
14728WAT     H244427   4.035   3.207   0.959
14729WAT      O44428   1.378   4.659   4.112
14729WAT     H144429   1.382   4.715   4.029
14729WAT     H244430   1.432   4.576   4.099
14730WAT      O44431   0.006   9.804   8.372
14730WAT     H144432   0.048   9.719   8.404
14730WAT     H244433  -0.066   9.832   8.436
14731WAT      O44434   2.022   4.953   1.264
14731WAT     H144435   1.963   4.882   1.227
14731WAT     H244436   1.968   5.034   1.286
14732WAT      O44437   4.294   7.376   3.961
14732WAT     H144438   4.317   7.474   3.960
14732WAT     H244439   4.261   7.351   4.052
14733WAT      O44440   6.558   1.431   4.085
14733WAT     H144441   6.467   1.394   4.066
14733WAT     H244442   6.551   1.526   4.112
14734WAT      O44443   9.621   3.419   6.550
14734WAT     H144444   9.583   3.508   6.573
14734WAT     H244445   9.622   3.361   6.631
14735WAT      O44446   9.571   9.532   7.282
14735WAT     H144447   9.631   9.518   7.361
14735WAT     H244448   9.531   9.623   7.286
14736WAT      O44449   6.396   2.911   5.557
14736WAT     H144450   6.352   3.000   5.561
14736WAT     H244451   6.394   2.869   5.648
14737WAT      O44452   5.006   9.059   7.098
14737WAT     H144453   5.070   9.064   7.022
14737WAT     H244454   4.961   8.969   7.098
14738WAT      O44455   4.074   4.231   1.797
14738WAT     H144456   4.056   4.250   1.701
14738WAT     H244457   4.060   4.134   1.816
14739WAT      O44458   1.749   1.866   4.042
14739WAT     H144459   1.834   1.839   3.997
14739WAT     H244460   1.759   1.855   4.141
14740WAT      O44461   2.160   1.844   7.575
14740WAT     H144462   2.240   1.836   7.516
14740WAT     H244463   2.096   1.770   7.554
14741WAT      O44464   0.057   1.585   8.426
14741WAT     H144465   0.110   1.565   8.509
14741WAT     H244466   0.112   1.562   8.345
14742WAT      O44467   6.058   8.720   3.014
14742WAT     H144468   6.008   8.690   3.096
14742WAT     H244469   6.007   8.794   2.970
14743WAT      O44470   3.832   9.352   6.006
14743WAT     H144471   3.849   9.317   6.098
14743WAT     H244472   3.835   9.452   6.007
14744WAT      O44473   5.436   6.956   2.508
14744WAT     H144474   5.401   6.889   2.443
14744WAT     H244475   5.528   6.984   2.480
14745WAT      O44476   9.358   5.201   0.351
14745WAT     H144477   9.377   5.297   0.332
14745WAT     H244478   9.404   5.144   0.283
14746WAT      O44479   7.608   9.401   9.218
14746WAT     H144480   7.580   9.310   9.251
14746WAT     H244481   7.708   9.407   9.219
14747WAT      O44482   5.587   8.776   7.842
14747WAT     H144483   5.609   8.859   7.892
14747WAT     H244484   5.541   8.711   7.902
14748WAT      O44485   7.699   5.560   4.599
14748WAT     H144486   7.664   5.475   4.559
14748WAT     H244487   7.652   5.638   4.558
14749WAT      O44488   0.538   4.026   4.323
14749WAT     H144489   0.470   4.019   4.397
14749WAT     H244490   0.605   3.953   4.332
14750WAT      O44491   3.930   8.558   0.206
14750WAT     H144492   3.994   8.628   0.173
14750WAT     H244493   3.978   8.494   0.265
14751WAT      O44494   5.067   3.785   2.580
14751WAT     H144495   5.029   3.695   2.562
14751WAT     H244496   5.127   3.780   2.661
14752WAT      O44497   7.473   4.689   2.204
14752WAT     H144498   7.430   4.601   2.226
14752WAT     H244499   7.571   4.676   2.189
14753WAT      O44500   8.358   0.877   1.797
14753WAT     H144501   8.420   0.836   1.731
14753WAT     H244502   8.271   0.828   1.796
14754WAT      O44503   9.574   1.647   3.629
14754WAT     H144504   9.554   1.702   3.710
14754WAT     H244505   9.543   1.554   3.644
14755WAT      O44506   3.507   3.467   1.554
14755WAT     H144507   3.494   3.460   1.653
14755WAT     H244508   3.419   3.473   1.508
14756WAT      O44509   9.524   2.067   4.998
14756WAT     H144510   9.608   2.031   5.037
14756WAT     H244511   9.478   2.125   5.066
14757WAT      O44512   8.092   7.156   1.390
14757WAT     H144513   8.046   7.096   1.324
14757WAT     H244514   8.165   7.207   1.344
14758WAT      O44515   8.525   3.630   0.074
14758WAT     H144516   8.590   3.640   0.150
14758WAT     H244517   8.433   3.623   0.110
14759WAT      O44518   1.448   0.594   1.218
14759WAT     H144519   1.430   0.674   1.275
14759WAT     H244520   1.365   0.570   1.167
14760WAT      O44521   9.206   4.826   3.752
14760WAT     H144522   9.230   4.912   3.707
14760WAT     H244523   9.208   4.752   3.685
14761WAT      O44524   5.727   7.398   2.252
14761WAT     H144525   5.674   7.428   2.173
14761WAT     H244526   5.738   7.474   2.316
14762WAT      O44527   3.818   6.830   0.511
14762WAT     H144528   3.879   6.797   0.583
14762WAT     H244529   3.862   6.906   0.463
14763WAT      O44530   4.897   3.569   1.381
14763WAT     H144531   4.880   3.635   1.455
14763WAT     H244532   4.929   3.618   1.300
14764WAT      O44533   7.330   0.986   0.875
14764WAT     H144534   7.282   0.904   0.906
14764WAT     H244535   7.429   0.971   0.881
14765WAT      O44536   6.087   0.209   3.155
14765WAT     H144537   6.067   0.274   3.081
14765WAT     H244538   6.023   0.223   3.230
14766WAT      O44539   3.915   0.227   4.822
14766WAT     H144540   3.915   0.227   4.722
14766WAT     H244541   3.982   0.161   4.856
14767WAT      O44542   8.741   0.943   8.901
14767WAT     H144543   8.815   0.922   8.965
14767WAT     H244544   8.665   0.984   8.951
14768WAT      O44545   3.361   3.535   2.163
14768WAT     H144546   3.424   3.566   2.092
14768WAT     H244547   3.407   3.537   2.251
14769WAT      O44548   7.429   5.134   7.336
14769WAT     H144549   7.355   5.149   7.270
14769WAT     H244550   7.478   5.220   7.351
14770WAT      O44551   0.558   1.895   4.633
14770WAT     H144552   0.646   1.941   4.623
14770WAT     H244553   0.486   1.952   4.592
14771WAT      O44554   7.776   0.088   8.524
14771WAT     H144555   7.778  -0.001   8.569
14771WAT     H244556   7.687   0.101   8.480
14772WAT      O44557   9.478   2.035   9.454
14772WAT     H144558   9.406   2.008   9.391
14772WAT     H244559   9.438   2.088   9.529
14773WAT      O44560   3.094   5.662   3.260
14773WAT     H144561   3.080   5.568   3.228
14773WAT     H244562   3.161   5.707   3.201
14774WAT      O44563   4.208   9.664   5.201
14774WAT     H144564   4.233   9.759   5.186
14774WAT     H244565   4.122   9.659   5.251
14775WAT      O44566   2.133   1.476   3.742
14775WAT     H144567   2.101   1.419   3.818
14775WAT     H244568   2.232   1.468   3.734
14776WAT      O44569   8.879   5.693   9.715
14776WAT     H144570   8.805   5.756   9.740
14776WAT     H244571   8.841   5.605   9.689
14777WAT      O44572   6.339   1.127   9.363
14777WAT     H144573   6.283   1.073   9.427
14777WAT     H244574   6.423   1.157   9.409
14778WAT      O44575   1.141   2.637   3.695
14778WAT     H144576   1.240   2.647   3.680
14778WAT     H244577   1.114   2.543   3.676
14779WAT      O44578   8.286   9.741   2.310
14779WAT     H144579   8.346   9.754   2.231
14779WAT     H244580   8.201   9.696   2.280
14780WAT      O44581   6.986   9.241   6.088
14780WAT     H144582   7.013   9.154   6.130
14780WAT     H244583   7.060   9.274   6.030
14781WAT      O44584   3.443   2.122   8.620
14781WAT     H144585   3.454   2.024   8.641
14781WAT     H244586   3.523   2.153   8.567
14782WAT      O44587   0.747   0.593   3.931
14782WAT     H144588   0.701   0.600   3.842
14782WAT     H244589   0.705   0.657   3.995
14783WAT      O44590   7.160   5.180   5.389
14783WAT     H144591   7.124   5.167   5.297
14783WAT     H244592   7.259   5.172   5.389
14784WAT      O44593   1.680   4.285   7.082
14784WAT     H144594   1.636   4.278   7.172
14784WAT     H244595   1.755   4.220   7.077
14785WAT      O44596   0.870   5.784   5.659
14785WAT     H144597   0.895   5.809   5.565
14785WAT     H244598   0.935   5.823   5.723
14786WAT      O44599   1.572   1.143   6.592
14786WAT     H144600   1.499   1.198   6.633
14786WAT     H244601   1.619   1.091   6.663
14787WAT      O44602   7.955   4.145   2.800
14787WAT     H144603   7.900   4.065   2.826
14787WAT     H244604   7.924   4.179   2.711
14788WAT      O44605   1.986   1.827   6.696
14788WAT     H144606   1.963   1.915   6.655
14788WAT     H244607   2.061   1.840   6.761
14789WAT      O44608   0.910   2.099   9.802
14789WAT     H144609   0.853   2.024   9.835
14789WAT     H244610   1.000   2.094   9.846
14790WAT      O44611   3.950   1.545   3.263
14790WAT     H144612   3.979   1.637   3.238
14790WAT     H244613   3.858   1.528   3.227
14791WAT      O44614   7.879   3.128   6.202
14791WAT     H144615   7.798   3.094   6.249
14791WAT     H244616   7.907   3.063   6.131
14792WAT      O44617   1.937   6.927   0.557
14792WAT     H144618   1.908   6.852   0.616
14792WAT     H244619   1.938   6.896   0.461
14793WAT      O44620   8.982   5.824   2.883
14793WAT     H144621   9.044   5.882   2.831
14793WAT     H244622   8.892   5.825   2.839
14794WAT      O44623   3.207   5.388   9.422
14794WAT     H144624   3.209   5.357   9.327
14794WAT     H244625   3.218   5.309   9.483
14795WAT      O44626   6.486   7.961   4.437
14795WAT     H144627   6.499   8.058   4.457
14795WAT     H244628   6.555   7.931   4.370
14796WAT      O44629   3.844   2.704   7.912
14796WAT     H144630   3.921   2.641   7.922
14796WAT     H244631   3.818   2.740   8.002
14797WAT      O44632   4.786   3.855   2.508
14797WAT     H144633   4.870   3.837   2.560
14797WAT     H244634   4.809   3.867   2.411
14798WAT      O44635   4.538   4.132   5.086
14798WAT     H144636   4.495   4.047   5.057
14798WAT     H244637   4.487   4.169   5.164
14799WAT      O44638   0.638   2.728   2.305
14799WAT     H144639   0.681   2.684   2.226
14799WAT     H244640   0.605   2.819   2.278
14800WAT      O44641   4.864   9.841   9.219
14800WAT     H144642   4.929   9.767   9.235
14800WAT     H244643   4.826   9.871   9.307
14801WAT      O44644   0.567   6.080   3.343
14801WAT     H144645   0.483   6.073   3.396
14801WAT     H244646   0.646   6.061   3.402
14802WAT      O44647   7.554   6.291   9.409
14802WAT     H144648   7.511   6.274   9.497
14802WAT     H244649   7.583   6.204   9.369
14803WAT      O44650   1.788   0.476   1.061
14803WAT     H144651   1.805   0.570   1.089
14803WAT     H244652   1.711   0.439   1.112
14804WAT      O44653   3.747   2.203   6.835
14804WAT     H144654   3.842   2.216   6.806
14804WAT     H244655   3.745   2.148   6.918
14805WAT      O44656   1.054   2.758   4.305
14805WAT     H144657   1.043   2.772   4.207
14805WAT     H244658   1.034   2.663   4.328
14806WAT      O44659   0.031   7.877   6.010
14806WAT     H144660   0.111   7.830   5.972
14806WAT     H244661  -0.041   7.810   6.029
14807WAT      O44662   6.402   9.330   2.479
14807WAT     H144663   6.462   9.278   2.420
14807WAT     H244664   6.456   9.390   2.538
14808WAT      O44665   9.360   2.638   0.819
14808WAT     H144666   9.433   2.679   0.763
14808WAT     H244667   9.319   2.708   0.877
14809WAT      O44668   2.388   1.148   4.875
14809WAT     H144669   2.459   1.088   4.910
14809WAT     H244670   2.328   1.178   4.949
14810WAT      O44671   0.862   5.063   3.196
14810WAT     H144672   0.762   5.059   3.191
14810WAT     H244673   0.889   5.155   3.223
14811WAT      O44674   4.073   7.234   6.722
14811WAT     H144675   4.143   7.169   6.748
14811WAT     H244676   4.001   7.237   6.791
14812WAT      O44677   2.046   5.253   0.160
14812WAT     H144678   2.087   5.183   0.219
14812WAT     H244679   2.109   5.275   0.086
14813WAT      O44680   2.138   3.623   7.978
14813WAT     H144681   2.165   3.534   7.942
14813WAT     H244682   2.039   3.623   7.995
14814WAT      O44683   7.109   6.660   7.962
14814WAT     H144684   7.205   6.688   7.971
14814WAT     H244685   7.054   6.738   7.932
14815WAT      O44686   2.454   2.455   0.946
14815WAT     H144687   2.354   2.465   0.952
14815WAT     H244688   2.476   2.371   0.896
14816WAT      O44689   5.727   1.243   6.549
14816WAT     H144690   5.655   1.234   6.480
14816WAT     H244691   5.812   1.203   6.515
14817WAT      O44692   1.766   1.451   5.755
14817WAT     H144693   1.708   1.486   5.829
14817WAT     H244694   1.714   1.449   5.670
14818WAT      O44695   5.132   0.385   9.644
14818WAT     H144696   5.136   0.467   9.587
14818WAT     H244697   5.189   0.314   9.603
14819WAT      O44698   7.073   8.413   5.086
14819WAT     H144699   7.054   8.320   5.115
14819WAT     H244700   7.002   8.475   5.121
14820WAT      O44701   5.119   9.328   1.675
14820WAT     H144702   5.088   9.239   1.642
14820WAT     H244703   5.077   9.400   1.620
14821WAT      O44704   7.139   9.729   8.489
14821WAT     H144705   7.194   9.718   8.406
14821WAT     H244706   7.048   9.691   8.474
14822WAT      O44707   0.504   2.142   8.362
14822WAT     H144708   0.538   2.059   8.318
14822WAT     H244709   0.491   2.125   8.459
14823WAT      O44710   9.514   0.476   8.560
14823WAT     H144711   9.549   0.567   8.584
14823WAT     H244712   9.519   0.464   8.461
14824WAT      O44713   6.709   1.109   7.834
14824WAT     H144714   6.776   1.091   7.761
14824WAT     H244715   6.636   1.041   7.829
14825WAT      O44716   7.382   5.805   6.972
14825WAT     H144717   7.424   5.889   6.939
14825WAT     H244718   7.293   5.792   6.929
14826WAT      O44719   6.597   2.578   3.306
14826WAT     H144720   6.501   2.569   3.332
14826WAT     H244721   6.629   2.492   3.266
14827WAT      O44722   8.696   7.415   2.621
14827WAT     H144723   8.765   7.373   2.563
14827WAT     H244724   8.613   7.360   2.620
14828WAT      O44725   1.552   2.945   8.421
14828WAT     H144726   1.529   2.983   8.331
14828WAT     H244727   1.628   2.881   8.412
14829WAT      O44728   4.718   5.601   2.379
14829WAT     H144729   4.647   5.671   2.372
14829WAT     H244730   4.715   5.543   2.297
14830WAT      O44731   4.208   4.620   4.664
14830WAT     H144732   4.169   4.541   4.618
14830WAT     H244733   4.153   4.643   4.744
14831WAT      O44734   2.188   1.969   5.123
14831WAT     H144735   2.212   1.883   5.167
14831WAT     H244736   2.236   2.045   5.169
14832WAT      O44737   2.101   7.808   0.517
14832WAT     H144738   2.033   7.880   0.530
14832WAT     H244739   2.082   7.731   0.578
14833WAT      O44740   8.423   4.606   3.617
14833WAT     H144741   8.414   4.706   3.611
14833WAT     H244742   8.470   4.582   3.702
14834WAT      O44743   7.483   2.174   8.351
14834WAT     H144744   7.441   2.219   8.430
14834WAT     H244745   7.444   2.210   8.267
14835WAT      O44746   8.384   5.434   8.508
14835WAT     H144747   8.343   5.503   8.449
14835WAT     H244748   8.478   5.461   8.530
14836WAT      O44749   1.490   3.929   9.170
14836WAT     H144750   1.392   3.915   9.159
14836WAT     H244751   1.532   3.849   9.213
14837WAT      O44752   5.666   9.343   5.967
14837WAT     H144753   5.698   9.329   5.874
14837WAT     H244754   5.687   9.437   5.996
14838WAT      O44755   0.473   0.686   6.997
14838WAT     H144756   0.503   0.615   7.060
14838WAT     H244757   0.392   0.655   6.948
14839WAT      O44758   0.816   6.660   5.075
14839WAT     H144759   0.732   6.707   5.100
14839WAT     H244760   0.798   6.593   5.002
14840WAT      O44761   8.786   9.743   3.687
14840WAT     H144762   8.747   9.832   3.668
14840WAT     H244763   8.735   9.699   3.761
14841WAT      O44764   0.694   6.325   9.648
14841WAT     H144765   0.783   6.355   9.613
14841WAT     H244766   0.694   6.331   9.748
14842WAT      O44767   7.594   5.019   5.818
14842WAT     H144768   7.621   5.026   5.914
14842WAT     H244769   7.535   4.938   5.806
14843WAT      O44770   6.404   3.239   8.748
14843WAT     H144771   6.413   3.299   8.828
14843WAT     H244772   6.407   3.294   8.665
14844WAT      O44773   5.129   6.031   8.284
14844WAT     H144774   5.050   5.986   8.243
14844WAT     H244775   5.212   6.002   8.235
14845WAT      O44776   9.315   9.450   3.288
14845WAT     H144777   9.271   9.515   3.225
14845WAT     H244778   9.391   9.496   3.334
14846WAT      O44779   2.093   6.655   9.174
14846WAT     H144780   2.166   6.639   9.107
14846WAT     H244781   2.052   6.744   9.158
14847WAT      O44782   5.571   0.874   0.546
14847WAT     H144783   5.616   0.825   0.620
14847WAT     H244784   5.547   0.810   0.473
14848WAT      O44785   9.773   3.206   7.098
14848WAT     H144786   9.869   3.219   7.074
14848WAT     H244787   9.764   3.197   7.197
14849WAT      O44788   3.931   1.701   5.317
14849WAT     H144789   3.980   1.618   5.290
14849WAT     H244790   3.837   1.677   5.342
14850WAT      O44791   5.645   3.771   3.351
14850WAT     H144792   5.745   3.766   3.347
14850WAT     H244793   5.612   3.713   3.426
14851WAT      O44794   2.220   1.355   8.231
14851WAT     H144795   2.293   1.400   8.181
14851WAT     H244796   2.228   1.255   8.221
14852WAT      O44797   4.699   2.199   8.134
14852WAT     H144798   4.662   2.182   8.043
14852WAT     H244799   4.790   2.239   8.127
14853WAT      O44800   4.713   1.628   9.768
14853WAT     H144801   4.788   1.660   9.711
14853WAT     H244802   4.715   1.528   9.773
14854WAT      O44803   9.384   7.814   5.693
14854WAT     H144804   9.388   7.753   5.615
14854WAT     H244805   9.291   7.812   5.731
14855WAT      O44806   9.496   8.417   3.579
14855WAT     H144807   9.514   8.486   3.508
14855WAT     H244808   9.478   8.329   3.535
14856WAT      O44809   7.688   0.316   5.342
14856WAT     H144810   7.769   0.362   5.306
14856WAT     H244811   7.715   0.252   5.414
14857WAT      O44812   7.883   3.573   6.429
14857WAT     H144813   7.874   3.524   6.343
14857WAT     H244814   7.844   3.518   6.503
14858WAT      O44815   7.145   7.625   6.182
14858WAT     H144816   7.172   7.603   6.276
14858WAT     H244817   7.210   7.582   6.118
14859WAT      O44818   9.463   6.093   4.339
14859WAT     H144819   9.450   6.092   4.438
14859WAT     H244820   9.415   6.171   4.300
14860WAT      O44821   8.958   1.853   9.017
14860WAT     H144822   8.983   1.769   9.065
14860WAT     H244823   9.004   1.856   8.928
14861WAT      O44824   7.212   2.084   2.563
14861WAT     H144825   7.181   1.995   2.531
14861WAT     H244826   7.190   2.094   2.660
14862WAT      O44827   3.793   7.999   7.803
14862WAT     H144828   3.712   8.016   7.860
14862WAT     H244829   3.810   7.900   7.800
14863WAT      O44830   2.544   7.194   8.695
14863WAT     H144831   2.591   7.219   8.780
14863WAT     H244832   2.475   7.263   8.674
14864WAT      O44833   7.556   3.705   6.282
14864WAT     H144834   7.649   3.736   6.261
14864WAT     H244835   7.549   3.682   6.379
14865WAT      O44836   3.207   5.328   5.694
14865WAT     H144837   3.256   5.242   5.687
14865WAT     H244838   3.109   5.311   5.692
14866WAT      O44839   9.068   3.896   3.252
14866WAT     H144840   9.101   3.807   3.221
14866WAT     H244841   8.980   3.885   3.298
14867WAT      O44842   7.438   1.668   1.586
14867WAT     H144843   7.360   1.723   1.616
14867WAT     H244844   7.433   1.655   1.487
14868WAT      O44845   8.127   7.386   6.286
14868WAT     H144846   8.152   7.428   6.198
14868WAT     H244847   8.035   7.348   6.279
14869WAT      O44848   4.517   9.270   5.362
14869WAT     H144849   4.591   9.335   5.380
14869WAT     H244850   4.485   9.281   5.268
14870WAT      O44851   9.684   4.228   3.335
14870WAT     H144852   9.752   4.253   3.404
14870WAT     H244853   9.617   4.165   3.375
14871WAT      O44854   0.935   9.708   4.442
14871WAT     H144855   1.003   9.781   4.453
14871WAT     H244856   0.951   9.637   4.510
14872WAT      O44857   2.307   1.762   1.068
14872WAT     H144858   2.397   1.737   1.105
14872WAT     H244859   2.305   1.740   0.970
14873WAT      O44860   2.009   6.729   1.999
14873WAT     H144861   2.098   6.693   2.028
14873WAT     H244862   2.001   6.825   2.028
14874WAT      O44863   9.488   6.577   4.274
14874WAT     H144864   9.529   6.603   4.186
14874WAT     H244865   9.403   6.527   4.257
14875WAT      O44866   1.087   5.497   4.953
14875WAT     H144867   1.110   5.584   4.997
14875WAT     H244868   1.162   5.433   4.966
14876WAT      O44869   3.864   4.958   2.124
14876WAT     H144870   3.865   5.051   2.162
14876WAT     H244871   3.920   4.898   2.181
14877WAT      O44872   0.889   0.953   6.245
14877WAT     H144873   0.804   0.902   6.253
14877WAT     H244874   0.966   0.890   6.239
14878WAT      O44875   5.478   1.376   0.519
14878WAT     H144876   5.391   1.422   0.536
14878WAT     H244877   5.515   1.342   0.605
14879WAT      O44878   7.184   5.154   4.091
14879WAT     H144879   7.113   5.084   4.100
14879WAT     H244880   7.258   5.135   4.155
14880WAT      O44881   9.387   1.429   1.126
14880WAT     H144882   9.448   1.351   1.111
14880WAT     H244883   9.439   1.507   1.158
14881WAT      O44884   0.504   1.879   2.874
14881WAT     H144885   0.527   1.950   2.941
14881WAT     H244886   0.406   1.859   2.880
14882WAT      O44887   9.706   8.768   0.877
14882WAT     H144888   9.746   8.679   0.898
14882WAT     H244889   9.771   8.822   0.823
14883WAT      O44890   5.004   8.082   8.629
14883WAT     H144891   4.983   8.175   8.659
14883WAT     H244892   4.956   8.063   8.543
14884WAT      O44893   5.380   5.436   8.057
14884WAT     H144894   5.294   5.485   8.068
14884WAT     H244895   5.405   5.393   8.143
14885WAT      O44896   1.572   5.934   0.527
14885WAT     H144897   1.540   5.944   0.433
14885WAT     H244898   1.611   6.021   0.558
14886WAT      O44899   7.194   2.313   1.693
14886WAT     H144900   7.119   2.370   1.659
14886WAT     H244901   7.157   2.234   1.741
14887WAT      O44902   4.096   0.937   1.097
14887WAT     H144903   4.146   0.853   1.119
14887WAT     H244904   4.018   0.916   1.038
14888WAT      O44905   5.562   3.434   4.617
14888WAT     H144906   5.621   3.497   4.566
14888WAT     H244907   5.550   3.468   4.710
14889WAT      O44908   7.170   6.895   0.513
14889WAT     H144909   7.222   6.961   0.568
14889WAT     H244910   7.093   6.860   0.566
14890WAT      O44911   0.105   4.342   8.405
14890WAT     H144912   0.053   4.313   8.486
14890WAT     H244913   0.123   4.262   8.347
14891WAT      O44914   6.803   7.232   6.488
14891WAT     H144915   6.841   7.246   6.397
14891WAT     H244916   6.744   7.150   6.488
14892WAT      O44917   2.056   2.770   6.510
14892WAT     H144918   1.979   2.832   6.501
14892WAT     H244919   2.041   2.689   6.453
14893WAT      O44920   7.769   2.785   5.561
14893WAT     H144921   7.845   2.837   5.600
14893WAT     H244922   7.731   2.725   5.631
14894WAT      O44923   9.238   7.421   0.070
14894WAT     H144924   9.220   7.434   0.167
14894WAT     H244925   9.336   7.428   0.053
14895WAT      O44926   2.419   9.402   2.008
14895WAT     H144927   2.364   9.352   1.941
14895WAT     H244928   2.443   9.341   2.084
14896WAT      O44929   9.419   1.156   4.727
14896WAT     H144930   9.343   1.180   4.788
14896WAT     H244931   9.486   1.231   4.726
14897WAT      O44932   1.047   2.888   0.346
14897WAT     H144933   0.947   2.897   0.343
14897WAT     H244934   1.074   2.854   0.436
14898WAT      O44935   6.020   7.061   8.943
14898WAT     H144936   6.006   7.013   8.857
14898WAT     H244937   6.097   7.020   8.992
14899WAT      O44938   8.219   2.647   5.182
14899WAT     H144939   8.132   2.612   5.147
14899WAT     H244940   8.289   2.638   5.111
14900WAT      O44941   4.965   9.370   0.525
14900WAT     H144942   4.967   9.363   0.625
14900WAT     H244943   5.054   9.401   0.492
14901WAT      O44944   0.202   2.659   8.858
14901WAT     H144945   0.210   2.559   8.855
14901WAT     H244946   0.293   2.699   8.872
14902WAT      O44947   8.248   5.416   4.428
14902WAT     H144948   8.257   5.509   4.465
14902WAT     H244949   8.184   5.363   4.484
14903WAT      O44950   0.003   9.727   7.683
14903WAT     H144951  -0.025   9.748   7.589
14903WAT     H244952   0.079   9.662   7.681
14904WAT      O44953   0.457   3.594   5.993
14904WAT     H144954   0.541   3.543   6.012
14904WAT     H244955   0.385   3.562   6.054
14905WAT      O44956   4.656   9.574   1.725
14905WAT     H144957   4.690   9.629   1.649
14905WAT     H244958   4.572   9.616   1.761
14906WAT      O44959   7.646   4.419   3.628
14906WAT     H144960   7.665   4.496   3.568
14906WAT     H244961   7.732   4.380   3.660
14907WAT      O44962   6.338   4.195   1.581
14907WAT     H144963   6.268   4.262   1.556
14907WAT     H244964   6.417   4.206   1.521
14908WAT      O44965   0.398   0.915   7.331
14908WAT     H144966   0.378   0.977   7.256
14908WAT     H244967   0.352   0.828   7.316
14909WAT      O44968   6.468   8.767   4.891
14909WAT     H144969   6.406   8.763   4.812
14909WAT     H244970   6.426   8.819   4.965
14910WAT      O44971   1.868   1.388   6.512
14910WAT     H144972   1.791   1.345   6.465
14910WAT     H244973   1.920   1.319   6.561
14911WAT      O44974   8.372   4.419   8.393
14911WAT     H144975   8.348   4.366   8.312
14911WAT     H244976   8.297   4.483   8.414
14912WAT      O44977   4.153   6.606   8.012
14912WAT     H144978   4.070   6.552   8.022
14912WAT     H244979   4.163   6.667   8.091
14913WAT      O44980   2.629   6.952   2.189
14913WAT     H144981   2.717   6.991   2.161
14913WAT     H244982   2.563   7.026   2.201
14914WAT      O44983   8.933   4.895   2.754
14914WAT     H144984   8.974   4.859   2.670
14914WAT     H244985   8.902   4.819   2.811
14915WAT      O44986   2.509   2.898   7.004
14915WAT     H144987   2.521   2.909   7.103
14915WAT     H244988   2.439   2.829   6.987
14916WAT      O44989   7.804   2.635   7.320
14916WAT     H144990   7.836   2.624   7.226
14916WAT     H244991   7.801   2.545   7.365
14917WAT      O44992   6.404   7.029   3.485
14917WAT     H144993   6.367   7.070   3.402
14917WAT     H244994   6.477   7.086   3.521
14918WAT      O44995   4.220   5.900   2.476
14918WAT     H144996   4.261   5.946   2.554
14918WAT     H244997   4.149   5.837   2.507
14919WAT      O44998   0.676   9.600   0.215
14919WAT     H144999   0.773   9.584   0.234
14919WAT     H245000   0.648   9.687   0.256
14920WAT      O45001   9.446   1.222   9.788
14920WAT     H145002   9.508   1.197   9.714
14920WAT     H245003   9.429   1.320   9.786
14921WAT      O45004   6.985   6.106   6.839
14921WAT     H145005   7.030   6.156   6.913
14921WAT     H245006   6.886   6.111   6.850
14922WAT      O45007   5.271   7.881   7.970
14922WAT     H145008   5.335   7.958   7.968
14922WAT     H245009   5.281   7.827   7.886
14923WAT      O45010   0.684   6.399   6.893
14923WAT     H145011   0.756   6.394   6.962
14923WAT     H245012   0.669   6.308   6.855
14924WAT      O45013   7.016   2.119   8.073
14924WAT     H145014   7.116   2.114   8.079
14924WAT     H245015   6.980   2.028   8.049
14925WAT      O45016   5.091   4.204   4.275
14925WAT     H145017   5.145   4.121   4.257
14925WAT     H245018   5.018   4.211   4.207
14926WAT      O45019   4.287   4.730   5.572
14926WAT     H145020   4.322   4.645   5.533
14926WAT     H245021   4.311   4.734   5.669
14927WAT      O45022   3.758   0.683   0.381
14927WAT     H145023   3.703   0.763   0.360
14927WAT     H245024   3.839   0.681   0.322
14928WAT      O45025   0.912   6.053   7.467
14928WAT     H145026   0.931   5.994   7.389
14928WAT     H245027   0.957   6.142   7.454
14929WAT      O45028   2.046   6.748   6.620
14929WAT     H145029   2.045   6.680   6.694
14929WAT     H245030   2.012   6.705   6.536
14930WAT      O45031   8.305   8.282   6.161
14930WAT     H145032   8.367   8.272   6.083
14930WAT     H245033   8.337   8.357   6.219
14931WAT      O45034   9.736   4.834   2.348
14931WAT     H145035   9.637   4.828   2.330
14931WAT     H245036   9.766   4.928   2.337
14932WAT      O45037   7.540   8.596   4.077
14932WAT     H145038   7.609   8.528   4.051
14932WAT     H245039   7.551   8.619   4.174
14933WAT      O45040   2.987   5.419   2.101
14933WAT     H145041   2.909   5.456   2.152
14933WAT     H245042   2.954   5.349   2.037
14934WAT      O45043   2.680   3.458   4.423
14934WAT     H145044   2.668   3.466   4.522
14934WAT     H245045   2.649   3.368   4.392
14935WAT      O45046   7.746   6.551   0.169
14935WAT     H145047   7.787   6.630   0.215
14935WAT     H245048   7.797   6.531   0.085
14936WAT      O45049   9.100   3.439   7.566
14936WAT     H145050   9.014   3.459   7.519
14936WAT     H245051   9.107   3.496   7.648
14937WAT      O45052   8.915   8.111   6.611
14937WAT     H145053   8.939   8.091   6.706
14937WAT     H245054   8.821   8.083   6.593
14938WAT      O45055   2.288   7.685   1.544
14938WAT     H145056   2.294   7.784   1.556
14938WAT     H245057   2.376   7.644   1.566
14939WAT      O45058   7.186   5.076   6.695
14939WAT     H145059   7.130   5.136   6.639
14939WAT     H245060   7.224   5.128   6.772
14940WAT      O45061   0.724   8.840   8.752
14940WAT     H145062   0.693   8.901   8.825
14940WAT     H245063   0.741   8.892   8.669
14941WAT      O45064   7.661   4.059   3.592
14941WAT     H145065   7.597   4.105   3.531
14941WAT     H245066   7.614   4.029   3.675
14942WAT      O45067   8.392   3.906   6.325
14942WAT     H145068   8.304   3.905   6.372
14942WAT     H245069   8.406   3.819   6.277
14943WAT      O45070   3.264   5.638   7.373
14943WAT     H145071   3.204   5.576   7.424
14943WAT     H245072   3.249   5.627   7.275
14944WAT      O45073   0.437   8.253   0.451
14944WAT     H145074   0.469   8.167   0.491
14944WAT     H245075   0.473   8.262   0.358
14945WAT      O45076   0.814   1.492   7.519
14945WAT     H145077   0.782   1.403   7.552
14945WAT     H245078   0.801   1.498   7.421
14946WAT      O45079   4.376   4.218   1.446
14946WAT     H145080   4.391   4.309   1.409
14946WAT     H245081   4.366   4.223   1.545
14947WAT      O45082   0.942   1.183   1.021
14947WAT     H145083   0.854   1.230   1.012
14947WAT     H245084   1.011   1.234   0.970
14948WAT      O45085   3.764   7.189   8.530
14948WAT     H145086   3.825   7.259   8.494
14948WAT     H245087   3.717   7.143   8.455
14949WAT      O45088   8.337   4.311   2.350
14949WAT     H145089   8.306   4.285   2.442
14949WAT     H245090   8.394   4.239   2.312
14950WAT      O45091   3.303   5.313   7.293
14950WAT     H145092   3.270   5.407   7.298
14950WAT     H245093   3.390   5.306   7.342
14951WAT      O45094   8.924   2.201   8.070
14951WAT     H145095   8.980   2.181   7.990
14951WAT     H245096   8.844   2.254   8.042
14952WAT      O45097   7.043   3.108   0.934
14952WAT     H145098   7.134   3.078   0.906
14952WAT     H245099   7.051   3.189   0.992
14953WAT      O45100   4.221   4.916   1.358
14953WAT     H145101   4.245   4.821   1.376
14953WAT     H245102   4.185   4.958   1.441
14954WAT      O45103   9.479   0.387   9.613
14954WAT     H145104   9.556   0.328   9.635
14954WAT     H245105   9.398   0.356   9.663
14955WAT      O45106   9.721   1.218   2.483
14955WAT     H145107   9.654   1.145   2.470
14955WAT     H245108   9.802   1.200   2.428
14956WAT      O45109   6.354   0.389   1.283
14956WAT     H145110   6.385   0.358   1.373
14956WAT     H245111   6.278   0.453   1.293
14957WAT      O45112   3.359   2.793   8.341
14957WAT     H145113   3.425   2.806   8.267
14957WAT     H245114   3.296   2.719   8.318
14958WAT      O45115   1.991   3.154   5.854
14958WAT     H145116   2.016   3.114   5.942
14958WAT     H245117   1.900   3.122   5.827
14959WAT      O45118   7.112   5.929   4.576
14959WAT     H145119   7.087   6.025   4.566
14959WAT     H245120   7.131   5.890   4.486
14960WAT      O45121   1.533   4.968   9.645
14960WAT     H145122   1.560   5.036   9.713
14960WAT     H245123   1.502   4.885   9.691
14961WAT      O45124   6.333   5.031   4.560
14961WAT     H145125   6.243   5.008   4.523
14961WAT     H245126   6.396   5.052   4.486
14962WAT      O45127   6.498   8.033   6.933
14962WAT     H145128   6.565   8.060   7.003
14962WAT     H245129   6.546   8.012   6.848
14963WAT      O45130   5.977   3.951   1.471
14963WAT     H145131   6.074   3.928   1.459
14963WAT     H245132   5.926   3.923   1.391
14964WAT      O45133   7.115   7.332   4.206
14964WAT     H145134   7.075   7.395   4.273
14964WAT     H245135   7.103   7.368   4.114
14965WAT      O45136   1.438   7.621   4.518
14965WAT     H145137   1.405   7.550   4.456
14965WAT     H245138   1.448   7.582   4.610
14966WAT      O45139   7.154   1.265   6.039
14966WAT     H145140   7.198   1.246   5.951
14966WAT     H245141   7.056   1.248   6.031
14967WAT      O45142   8.388   7.119   2.943
14967WAT     H145143   8.326   7.077   3.008
14967WAT     H245144   8.481   7.116   2.978
14968WAT      O45145   1.955   6.586   0.283
14968WAT     H145146   1.957   6.684   0.303
14968WAT     H245147   1.870   6.546   0.315
14969WAT      O45148   1.477   1.406   3.745
14969WAT     H145149   1.567   1.364   3.731
14969WAT     H245150   1.407   1.352   3.699
14970WAT      O45151   2.816   9.332   3.195
14970WAT     H145152   2.901   9.379   3.173
14970WAT     H245153   2.770   9.304   3.111
14971WAT      O45154   5.179   0.271   2.404
14971WAT     H145155   5.175   0.173   2.384
14971WAT     H245156   5.236   0.317   2.336
14972WAT      O45157   7.047   0.462   7.784
14972WAT     H145158   7.122   0.426   7.728
14972WAT     H245159   7.067   0.556   7.812
14973WAT      O45160   5.112   8.128   8.151
14973WAT     H145161   5.162   8.159   8.070
14973WAT     H245162   5.041   8.063   8.124
14974WAT      O45163   2.338   4.425   6.870
14974WAT     H145164   2.374   4.371   6.795
14974WAT     H245165   2.282   4.367   6.929
14975WAT      O45166   7.362   3.778   3.818
14975WAT     H145167   7.263   3.764   3.829
14975WAT     H245168   7.406   3.689   3.802
14976WAT      O45169   5.149   9.327   8.603
14976WAT     H145170   5.205   9.269   8.661
14976WAT     H245171   5.209   9.384   8.546
14977WAT      O45172   3.717   9.631   8.567
14977WAT     H145173   3.676   9.542   8.551
14977WAT     H245174   3.796   9.622   8.627
14978WAT      O45175   2.199   7.358   1.359
14978WAT     H145176   2.223   7.311   1.444
14978WAT     H245177   2.258   7.323   1.285
14979WAT      O45178   1.487   5.210   1.910
14979WAT     H145179   1.428   5.144   1.865
14979WAT     H245180   1.442   5.299   1.913
14980WAT      O45181   4.754   8.123   4.538
14980WAT     H145182   4.852   8.128   4.522
14980WAT     H245183   4.705   8.157   4.457
14981WAT      O45184   0.231   6.157   7.240
14981WAT     H145185   0.306   6.115   7.291
14981WAT     H245186   0.230   6.255   7.258
14982WAT      O45187   3.071   1.264   2.979
14982WAT     H145188   3.139   1.221   2.919
14982WAT     H245189   3.081   1.364   2.974
14983WAT      O45190   2.785   2.145   1.436
14983WAT     H145191   2.794   2.241   1.412
14983WAT     H245192   2.816   2.132   1.530
14984WAT      O45193   5.678   4.071   0.314
14984WAT     H145194   5.650   4.002   0.247
14984WAT     H245195   5.737   4.139   0.270
14985WAT      O45196   2.917   4.267   1.450
14985WAT     H145197   2.990   4.287   1.514
14985WAT     H245198   2.890   4.351   1.403
14986WAT      O45199   3.846   1.511   1.029
14986WAT     H145200   3.886   1.597   1.063
14986WAT     H245201   3.824   1.521   0.932
14987WAT      O45202   6.211   5.575   0.718
14987WAT     H145203   6.208   5.486   0.674
14987WAT     H245204   6.306   5.599   0.740
14988WAT      O45205   5.373   9.448   5.697
14988WAT     H145206   5.357   9.490   5.786
14988WAT     H245207   5.409   9.517   5.633
14989WAT      O45208   1.420   6.856   9.290
14989WAT     H145209   1.438   6.953   9.305
14989WAT     H245210   1.356   6.846   9.213
14990WAT      O45211   6.972   0.284   5.842
14990WAT     H145212   6.945   0.212   5.906
14990WAT     H245213   7.009   0.362   5.893
14991WAT      O45214   8.472   6.496   2.745
14991WAT     H145215   8.506   6.526   2.656
14991WAT     H245216   8.448   6.576   2.800
14992WAT      O45217   5.702   2.492   6.526
14992WAT     H145218   5.670   2.587   6.530
14992WAT     H245219   5.785   2.483   6.580
14993WAT      O45220   9.814   2.009   0.860
14993WAT     H145221   9.886   2.075   0.839
14993WAT     H245222   9.755   2.047   0.931
14994WAT      O45223   6.105   2.292   8.903
14994WAT     H145224   6.026   2.273   8.962
14994WAT     H245225   6.185   2.311   8.961
14995WAT      O45226   0.801   3.408   7.992
14995WAT     H145227   0.766   3.497   8.020
14995WAT     H245228   0.747   3.336   8.035
14996WAT      O45229   3.439   5.528   1.959
14996WAT     H145230   3.469   5.434   1.948
14996WAT     H245231   3.463   5.581   1.877
14997WAT      O45232   1.945   3.189   0.422
14997WAT     H145233   1.972   3.282   0.396
14997WAT     H245234   1.957   3.177   0.520
14998WAT      O45235   4.559   6.781   8.760
14998WAT     H145236   4.526   6.785   8.666
14998WAT     H245237   4.655   6.807   8.763
14999WAT      O45238   8.565   4.234   6.533
14999WAT     H145239   8.586   4.148   6.486
14999WAT     H245240   8.466   4.249   6.531
15000WAT      O45241   7.679   0.649   4.217
15000WAT     H145242   7.667   0.682   4.311
15000WAT     H245243   7.660   0.551   4.214
15001WAT      O45244   8.824   8.393   1.457
15001WAT     H145245   8.794   8.429   1.546
15001WAT     H245246   8.749   8.400   1.392
15002WAT      O45247   3.776   7.318   3.736
15002WAT     H145248   3.865   7.304   3.781
15002WAT     H245249   3.704   7.312   3.805
15003WAT      O45250   0.948   6.249   5.775
15003WAT     H145251   1.023   6.268   5.838
15003WAT     H245252   0.862   6.284   5.812
15004WAT      O45253   4.456   9.372   7.377
15004WAT     H145254   4.399   9.291   7.382
15004WAT     H245255   4.429   9.437   7.448
15005WAT      O45256   2.656   3.130   3.753
15005WAT     H145257   2.608   3.217   3.743
15005WAT     H245258   2.621   3.080   3.832
15006WAT      O45259   4.033   0.935   8.306
15006WAT     H145260   4.089   0.978   8.235
15006WAT     H245261   3.938   0.964   8.295
15007WAT      O45262   5.275   4.336   2.535
15007WAT     H145263   5.241   4.243   2.549
15007WAT     H245264   5.215   4.401   2.582
15008WAT      O45265   8.708   5.982   7.640
15008WAT     H145266   8.681   5.898   7.594
15008WAT     H245267   8.789   5.965   7.697
15009WAT      O45268   9.067   8.088   6.367
15009WAT     H145269   8.998   8.111   6.435
15009WAT     H245270   9.023   8.061   6.282
15010WAT      O45271   9.619   6.598   5.743
15010WAT     H145272   9.596   6.503   5.722
15010WAT     H245273   9.551   6.659   5.703
15011WAT      O45274   7.808   1.789   2.143
15011WAT     H145275   7.812   1.735   2.059
15011WAT     H245276   7.889   1.770   2.199
15012WAT      O45277   4.971   5.346   5.304
15012WAT     H145278   5.007   5.375   5.215
15012WAT     H245279   4.879   5.384   5.316
15013WAT      O45280   9.658   2.974   6.528
15013WAT     H145281   9.606   3.048   6.572
15013WAT     H245282   9.660   2.989   6.429
15014WAT      O45283   1.407   2.989   1.056
15014WAT     H145284   1.476   2.917   1.065
15014WAT     H245285   1.318   2.954   1.084
15015WAT      O45286   4.583   9.025   7.362
15015WAT     H145287   4.670   8.987   7.393
15015WAT     H245288   4.594   9.068   7.273
15016WAT      O45289   0.551   0.822   5.220
15016WAT     H145290   0.626   0.818   5.286
15016WAT     H245291   0.580   0.873   5.139
15017WAT      O45292   6.572   2.345   6.438
15017WAT     H145293   6.473   2.330   6.443
15017WAT     H245294   6.606   2.372   6.528
15018WAT      O45295   9.377   9.188   6.882
15018WAT     H145296   9.393   9.280   6.847
15018WAT     H245297   9.376   9.123   6.806
15019WAT      O45298   3.034   8.671   0.902
15019WAT     H145299   2.958   8.644   0.961
15019WAT     H245300   3.023   8.628   0.812
15020WAT      O45301   3.092   9.650   7.576
15020WAT     H145302   3.031   9.570   7.574
15020WAT     H245303   3.160   9.643   7.504
15021WAT      O45304   6.801   9.332   8.583
15021WAT     H145305   6.806   9.427   8.613
15021WAT     H245306   6.728   9.322   8.515
15022WAT      O45307   6.274   9.011   1.189
15022WAT     H145308   6.239   9.069   1.115
15022WAT     H245309   6.197   8.972   1.240
15023WAT      O45310   7.021   6.134   2.030
15023WAT     H145311   6.938   6.185   2.054
15023WAT     H245312   7.033   6.058   2.094
15024WAT      O45313   1.353   8.484   4.688
15024WAT     H145314   1.340   8.489   4.589
15024WAT     H245315   1.402   8.565   4.719
15025WAT      O45316   0.371   4.573   0.287
15025WAT     H145317   0.367   4.475   0.266
15025WAT     H245318   0.395   4.586   0.383
15026WAT      O45319   2.067   4.602   5.938
15026WAT     H145320   2.134   4.658   5.986
15026WAT     H245321   2.010   4.553   6.004
15027WAT      O45322   7.233   0.793   6.258
15027WAT     H145323   7.138   0.774   6.285
15027WAT     H245324   7.240   0.888   6.229
15028WAT      O45325   2.407   5.648   9.019
15028WAT     H145326   2.428   5.601   9.105
15028WAT     H245327   2.323   5.701   9.030
15029WAT      O45328   5.902   8.265   2.992
15029WAT     H145329   5.878   8.186   2.936
15029WAT     H245330   5.826   8.331   2.990
15030WAT      O45331   5.335   6.066   0.837
15030WAT     H145332   5.279   6.131   0.784
15030WAT     H245333   5.278   5.988   0.864
15031WAT      O45334   9.559   7.124   4.019
15031WAT     H145335   9.613   7.208   4.016
15031WAT     H245336   9.503   7.123   4.102
15032WAT      O45337   7.418   7.603   4.619
15032WAT     H145338   7.407   7.698   4.648
15032WAT     H245339   7.506   7.569   4.652
15033WAT      O45340   9.785   5.132   5.485
15033WAT     H145341   9.747   5.208   5.431
15033WAT     H245342   9.751   5.045   5.450
15034WAT      O45343   0.456   1.498   8.047
15034WAT     H145344   0.465   1.411   7.998
15034WAT     H245345   0.547   1.536   8.063
15035WAT      O45346   4.783   5.624   8.686
15035WAT     H145347   4.869   5.576   8.702
15035WAT     H245348   4.802   5.715   8.650
15036WAT      O45349   0.168   0.449   6.515
15036WAT     H145350   0.088   0.465   6.573
15036WAT     H245351   0.181   0.351   6.503
15037WAT      O45352   6.312   7.728   0.656
15037WAT     H145353   6.388   7.700   0.714
15037WAT     H245354   6.225   7.708   0.702
15038WAT      O45355   9.698   6.948   4.783
15038WAT     H145356   9.618   7.001   4.756
15038WAT     H245357   9.668   6.864   4.829
15039WAT      O45358   1.219   3.892   9.190
15039WAT     H145359   1.201   3.822   9.121
15039WAT     H245360   1.161   3.876   9.270
15040WAT      O45361   5.450   3.527   7.244
15040WAT     H145362   5.515   3.451   7.249
15040WAT     H245363   5.408   3.540   7.334
15041WAT      O45364   5.751   6.250   9.192
15041WAT     H145365   5.696   6.271   9.111
15041WAT     H245366   5.831   6.196   9.164
15042WAT      O45367   6.460   6.388   9.162
15042WAT     H145368   6.427   6.481   9.179
15042WAT     H245369   6.402   6.345   9.093
15043WAT      O45370   6.469   4.558   0.398
15043WAT     H145371   6.454   4.634   0.461
15043WAT     H245372   6.541   4.582   0.333
15044WAT      O45373   5.361   7.380   7.387
15044WAT     H145374   5.386   7.448   7.318
15044WAT     H245375   5.267   7.350   7.373
15045WAT      O45376   4.233   9.495   5.574
15045WAT     H145377   4.231   9.520   5.477
15045WAT     H245378   4.152   9.440   5.596
15046WAT      O45379   9.142   3.090   6.749
15046WAT     H145380   9.136   3.149   6.669
15046WAT     H245381   9.197   3.009   6.727
15047WAT      O45382   0.281   7.517   7.072
15047WAT     H145383   0.274   7.542   6.975
15047WAT     H245384   0.328   7.590   7.122
15048WAT      O45385   4.671   6.945   7.571
15048WAT     H145386   4.667   6.852   7.606
15048WAT     H245387   4.579   6.976   7.548
15049WAT      O45388   3.447   1.891   8.266
15049WAT     H145389   3.424   1.824   8.195
15049WAT     H245390   3.521   1.855   8.322
15050WAT      O45391   6.206   3.067   3.330
15050WAT     H145392   6.203   2.980   3.378
15050WAT     H245393   6.117   3.112   3.337
15051WAT      O45394   8.674   7.166   4.209
15051WAT     H145395   8.584   7.207   4.223
15051WAT     H245396   8.711   7.136   4.297
15052WAT      O45397   7.682   0.253   7.019
15052WAT     H145398   7.709   0.160   7.043
15052WAT     H245399   7.735   0.283   6.939
15053WAT      O45400   8.830   7.215   2.188
15053WAT     H145401   8.814   7.281   2.114
15053WAT     H245402   8.742   7.179   2.220
15054WAT      O45403   8.066   4.242   4.083
15054WAT     H145404   8.098   4.151   4.109
15054WAT     H245405   8.000   4.234   4.009
15055WAT      O45406   9.251   4.568   1.845
15055WAT     H145407   9.266   4.639   1.775
15055WAT     H245408   9.306   4.487   1.822
15056WAT      O45409   9.748   5.663   6.928
15056WAT     H145410   9.839   5.702   6.943
15056WAT     H245411   9.750   5.565   6.947
15057WAT      O45412   8.296   0.981   0.133
15057WAT     H145413   8.252   0.909   0.186
15057WAT     H245414   8.392   0.988   0.158
15058WAT      O45415   5.036   5.671   6.856
15058WAT     H145416   5.022   5.735   6.780
15058WAT     H245417   5.008   5.580   6.827
15059WAT      O45418   5.088   5.711   2.633
15059WAT     H145419   4.998   5.668   2.634
15059WAT     H245420   5.078   5.808   2.608
15060WAT      O45421   9.724   4.863   5.437
15060WAT     H145422   9.660   4.810   5.493
15060WAT     H245423   9.788   4.801   5.393
15061WAT      O45424   4.682   1.904   8.011
15061WAT     H145425   4.751   1.973   7.989
15061WAT     H245426   4.727   1.814   8.018
15062WAT      O45427   4.691   5.480   4.484
15062WAT     H145428   4.766   5.546   4.489
15062WAT     H245429   4.671   5.460   4.388
15063WAT      O45430   5.149   7.063   7.060
15063WAT     H145431   5.087   7.051   7.138
15063WAT     H245432   5.240   7.089   7.094
15064WAT      O45433   4.530   5.155   5.424
15064WAT     H145434   4.457   5.088   5.420
15064WAT     H245435   4.617   5.111   5.403
15065WAT      O45436   0.724   1.732   0.202
15065WAT     H145437   0.681   1.675   0.272
15065WAT     H245438   0.813   1.765   0.235
15066WAT      O45439   9.550   9.412   5.912
15066WAT     H145440   9.531   9.456   5.824
15066WAT     H245441   9.471   9.359   5.942
15067WAT      O45442   0.784   7.398   4.099
15067WAT     H145443   0.803   7.489   4.062
15067WAT     H245444   0.752   7.338   4.025
15068WAT      O45445   9.628   5.231   9.840
15068WAT     H145446   9.702   5.289   9.876
15068WAT     H245447   9.554   5.289   9.807
15069WAT      O45448   4.368   5.367   6.894
15069WAT     H145449   4.398   5.277   6.863
15069WAT     H245450   4.423   5.396   6.972
15070WAT      O45451   7.825   3.255   2.561
15070WAT     H145452   7.825   3.315   2.481
15070WAT     H245453   7.918   3.223   2.579
15071WAT      O45454   1.692   4.909   8.438
15071WAT     H145455   1.713   4.814   8.416
15071WAT     H245456   1.630   4.946   8.369
15072WAT      O45457   2.379   8.851   7.279
15072WAT     H145458   2.427   8.784   7.223
15072WAT     H245459   2.361   8.811   7.369
15073WAT      O45460   6.867   8.095   9.120
15073WAT     H145461   6.913   8.095   9.031
15073WAT     H245462   6.931   8.066   9.191
15074WAT      O45463   8.958   4.726   8.453
15074WAT     H145464   8.903   4.703   8.533
15074WAT     H245465   8.908   4.790   8.395
15075WAT      O45466   0.900   5.860   2.685
15075WAT     H145467   0.994   5.890   2.703
15075WAT     H245468   0.869   5.802   2.760
15076WAT      O45469   0.601   3.097   3.987
15076WAT     H145470   0.579   3.128   3.895
15076WAT     H245471   0.662   3.018   3.983
15077WAT      O45472   7.743   1.198   0.197
15077WAT     H145473   7.816   1.135   0.170
15077WAT     H245474   7.782   1.272   0.251
15078WAT      O45475   0.906   5.123   2.191
15078WAT     H145476   0.918   5.089   2.284
15078WAT     H245477   0.938   5.218   2.186
15079WAT      O45478   2.463   3.887   2.430
15079WAT     H145479   2.374   3.932   2.434
15079WAT     H245480   2.536   3.955   2.444
15080WAT      O45481   2.087   8.087   7.409
15080WAT     H145482   2.134   8.054   7.327
15080WAT     H245483   2.063   8.009   7.467
15081WAT      O45484   5.928   3.608   6.513
15081WAT     H145485   5.935   3.582   6.609
15081WAT     H245486   5.975   3.541   6.456
15082WAT      O45487   4.738   1.106   5.818
15082WAT     H145488   4.726   1.205   5.808
15082WAT     H245489   4.692   1.059   5.743
15083WAT      O45490   8.777   1.077   4.522
15083WAT     H145491   8.714   1.034   4.587
15083WAT     H245492   8.838   1.139   4.571
15084WAT      O45493   3.650   3.812   6.649
15084WAT     H145494   3.629   3.910   6.656
15084WAT     H245495   3.569   3.762   6.619
15085WAT      O45496   0.470   9.181   3.977
15085WAT     H145497   0.384   9.145   3.941
15085WAT     H245498   0.519   9.230   3.906
15086WAT      O45499   6.299   5.748   2.758
15086WAT     H145500   6.223   5.686   2.776
15086WAT     H245501   6.368   5.701   2.702
15087WAT      O45502   5.177   9.503   3.135
15087WAT     H145503   5.165   9.593   3.177
15087WAT     H245504   5.183   9.514   3.036
15088WAT      O45505   2.072   8.775   5.256
15088WAT     H145506   1.997   8.839   5.238
15088WAT     H245507   2.072   8.750   5.353
15089WAT      O45508   5.550   7.556   5.968
15089WAT     H145509   5.608   7.620   5.917
15089WAT     H245510   5.464   7.543   5.919
15090WAT      O45511   9.524   6.808   3.698
15090WAT     H145512   9.624   6.800   3.701
15090WAT     H245513   9.487   6.795   3.790
15091WAT      O45514   3.617   7.953   1.450
15091WAT     H145515   3.595   7.970   1.354
15091WAT     H245516   3.534   7.968   1.505
15092WAT      O45517   6.510   0.953   3.728
15092WAT     H145518   6.570   0.938   3.650
15092WAT     H245519   6.416   0.964   3.696
15093WAT      O45520   5.179   9.807   8.968
15093WAT     H145521   5.124   9.747   9.027
15093WAT     H245522   5.276   9.796   8.991
15094WAT      O45523   7.092   7.949   5.487
15094WAT     H145524   7.000   7.981   5.510
15094WAT     H245525   7.159   8.017   5.513
15095WAT      O45526   6.174   8.789   7.999
15095WAT     H145527   6.256   8.733   7.982
15095WAT     H245528   6.092   8.734   7.982
15096WAT      O45529   7.399   8.686   0.318
15096WAT     H145530   7.371   8.590   0.314
15096WAT     H245531   7.352   8.732   0.393
15097WAT      O45532   2.820   2.606   0.782
15097WAT     H145533   2.855   2.528   0.730
15097WAT     H245534   2.897   2.661   0.814
15098WAT      O45535   8.974   3.744   5.198
15098WAT     H145536   8.910   3.815   5.230
15098WAT     H245537   8.927   3.684   5.133
15099WAT      O45538   9.606   7.085   2.627
15099WAT     H145539   9.622   7.126   2.538
15099WAT     H245540   9.688   7.093   2.684
15100WAT      O45541   5.317   7.760   1.032
15100WAT     H145542   5.319   7.689   0.962
15100WAT     H245543   5.337   7.849   0.990
15101WAT      O45544   3.252   1.531   4.880
15101WAT     H145545   3.175   1.485   4.924
15101WAT     H245546   3.240   1.630   4.887
15102WAT      O45547   2.967   2.611   4.055
15102WAT     H145548   3.066   2.606   4.038
15102WAT     H245549   2.927   2.681   3.995
15103WAT      O45550   4.420   0.773   8.510
15103WAT     H145551   4.511   0.816   8.505
15103WAT     H245552   4.430   0.674   8.501
15104WAT      O45553   0.981   6.740   6.916
15104WAT     H145554   1.000   6.681   6.837
15104WAT     H245555   0.901   6.796   6.897
15105WAT      O45556   2.828   9.585   3.683
15105WAT     H145557   2.747   9.641   3.705
15105WAT     H245558   2.903   9.646   3.656
15106WAT      O45559   1.184   9.587   4.491
15106WAT     H145560   1.184   9.498   4.445
15106WAT     H245561   1.255   9.589   4.561
15107WAT      O45562   2.217   3.369   7.891
15107WAT     H145563   2.290   3.367   7.960
15107WAT     H245564   2.149   3.298   7.913
15108WAT      O45565   3.156   8.813   3.546
15108WAT     H145566   3.181   8.765   3.630
15108WAT     H245567   3.207   8.773   3.469
15109WAT      O45568   4.274   5.185   9.328
15109WAT     H145569   4.246   5.090   9.316
15109WAT     H245570   4.270   5.233   9.241
15110WAT      O45571   3.913   0.165   5.862
15110WAT     H145572   3.852   0.243   5.877
15110WAT     H245573   3.933   0.157   5.765
15111WAT      O45574   6.262   9.656   9.728
15111WAT     H145575   6.332   9.710   9.775
15111WAT     H245576   6.242   9.699   9.639
15112WAT      O45577   8.696   0.233   9.164
15112WAT     H145578   8.744   0.158   9.118
15112WAT     H245579   8.763   0.291   9.211
15113WAT      O45580   0.107   0.895   7.525
15113WAT     H145581   0.190   0.950   7.511
15113WAT     H245582   0.132   0.799   7.533
15114WAT      O45583   6.492   0.701   3.832
15114WAT     H145584   6.541   0.705   3.918
15114WAT     H245585   6.468   0.793   3.802
15115WAT      O45586   2.775   8.691   8.657
15115WAT     H145587   2.843   8.752   8.696
15115WAT     H245588   2.694   8.743   8.628
15116WAT      O45589   3.199   3.480   3.633
15116WAT     H145590   3.156   3.392   3.656
15116WAT     H245591   3.143   3.554   3.670
15117WAT      O45592   7.772   0.309   7.270
15117WAT     H145593   7.866   0.342   7.269
15117WAT     H245594   7.732   0.319   7.179
15118WAT      O45595   1.283   5.854   6.032
15118WAT     H145596   1.303   5.873   6.128
15118WAT     H245597   1.369   5.848   5.981
15119WAT      O45598   6.518   7.135   2.645
15119WAT     H145599   6.498   7.203   2.574
15119WAT     H245600   6.505   7.043   2.607
15120WAT      O45601   4.682   0.857   7.404
15120WAT     H145602   4.597   0.827   7.446
15120WAT     H245603   4.704   0.797   7.326
15121WAT      O45604   9.436   7.064   4.732
15121WAT     H145605   9.399   7.116   4.809
15121WAT     H245606   9.468   7.127   4.662
15122WAT      O45607   2.789   7.965   9.677
15122WAT     H145608   2.773   7.965   9.578
15122WAT     H245609   2.768   7.874   9.713
15123WAT      O45610   2.939   2.520   1.871
15123WAT     H145611   3.006   2.508   1.797
15123WAT     H245612   2.888   2.605   1.856
15124WAT      O45613   6.307   5.675   7.630
15124WAT     H145614   6.360   5.632   7.557
15124WAT     H245615   6.249   5.606   7.674
15125WAT      O45616   6.848   8.713   1.170
15125WAT     H145617   6.924   8.649   1.177
15125WAT     H245618   6.878   8.795   1.121
15126WAT      O45619   7.693   5.450   6.941
15126WAT     H145620   7.654   5.359   6.952
15126WAT     H245621   7.697   5.496   7.029
15127WAT      O45622   7.300   7.566   4.392
15127WAT     H145623   7.210   7.531   4.419
15127WAT     H245624   7.357   7.576   4.473
15128WAT      O45625   4.673   6.689   7.667
15128WAT     H145626   4.750   6.647   7.714
15128WAT     H245627   4.591   6.633   7.680
15129WAT      O45628   2.955   4.808   2.262
15129WAT     H145629   2.950   4.864   2.180
15129WAT     H245630   2.910   4.720   2.245
15130WAT      O45631   0.355   0.862   4.111
15130WAT     H145632   0.274   0.883   4.166
15130WAT     H245633   0.341   0.896   4.018
15131WAT      O45634   8.682   4.956   6.839
15131WAT     H145635   8.649   4.868   6.875
15131WAT     H245636   8.705   4.945   6.743
15132WAT      O45637   9.203   0.684   2.811
15132WAT     H145638   9.132   0.752   2.829
15132WAT     H245639   9.231   0.690   2.715
15133WAT      O45640   5.530   0.571   7.197
15133WAT     H145641   5.627   0.579   7.218
15133WAT     H245642   5.517   0.500   7.127
15134WAT      O45643   4.475   0.052   4.041
15134WAT     H145644   4.467  -0.048   4.033
15134WAT     H245645   4.485   0.076   4.138
15135WAT      O45646   6.182   5.784   9.095
15135WAT     H145647   6.245   5.850   9.136
15135WAT     H245648   6.112   5.834   9.043
15136WAT      O45649   7.702   6.776   3.391
15136WAT     H145650   7.645   6.812   3.316
15136WAT     H245651   7.691   6.677   3.397
15137WAT      O45652   1.197   4.746   4.638
15137WAT     H145653   1.290   4.783   4.631
15137WAT     H245654   1.160   4.766   4.729
15138WAT      O45655   5.253   7.729   1.928
15138WAT     H145656   5.288   7.743   2.021
15138WAT     H245657   5.328   7.712   1.866
15139WAT      O45658   8.365   6.958   0.265
15139WAT     H145659   8.439   6.929   0.326
15139WAT     H245660   8.340   7.053   0.286
15140WAT      O45661   4.509   9.765   7.909
15140WAT     H145662   4.570   9.687   7.919
15140WAT     H245663   4.525   9.829   7.984
15141WAT      O45664   9.217   6.690   9.760
15141WAT     H145665   9.165   6.697   9.845
15141WAT     H245666   9.175   6.621   9.701
15142WAT      O45667   9.380   8.428   1.317
15142WAT     H145668   9.359   8.331   1.329
15142WAT     H245669   9.368   8.475   1.405
15143WAT      O45670   8.235   7.052   6.975
15143WAT     H145671   8.327   7.018   6.993
15143WAT     H245672   8.215   7.129   7.035
15144WAT      O45673   0.760   4.493   2.880
15144WAT     H145674   0.705   4.492   2.963
15144WAT     H245675   0.702   4.469   2.802
15145WAT      O45676   7.020   9.666   1.784
15145WAT     H145677   7.112   9.629   1.797
15145WAT     H245678   7.016   9.717   1.699
15146WAT      O45679   0.442   9.509   7.770
15146WAT     H145680   0.504   9.465   7.705
15146WAT     H245681   0.457   9.470   7.861
15147WAT      O45682   5.467   7.632   6.596
15147WAT     H145683   5.429   7.723   6.579
15147WAT     H245684   5.564   7.641   6.620
15148WAT      O45685   8.193   3.077   3.526
15148WAT     H145686   8.278   3.025   3.517
15148WAT     H245687   8.207   3.153   3.589
15149WAT      O45688   0.007   5.923   0.410
15149WAT     H145689  -0.071   5.966   0.456
15149WAT     H245690  -0.009   5.825   0.400
15150WAT      O45691   8.186   3.921   4.831
15150WAT     H145692   8.102   3.898   4.881
15150WAT     H245693   8.196   3.859   4.754
15151WAT      O45694   9.724   1.604   6.573
15151WAT     H145695   9.778   1.587   6.491
15151WAT     H245696   9.639   1.551   6.569
15152WAT      O45697   0.394   8.456   8.337
15152WAT     H145698   0.418   8.485   8.245
15152WAT     H245699   0.295   8.465   8.350
15153WAT      O45700   1.174   5.117   8.495
15153WAT     H145701   1.232   5.035   8.500
15153WAT     H245702   1.228   5.197   8.521
15154WAT      O45703   3.987   7.552   5.269
15154WAT     H145704   3.954   7.542   5.363
15154WAT     H245705   4.086   7.541   5.267
15155WAT      O45706   8.133   6.497   1.399
15155WAT     H145707   8.115   6.593   1.376
15155WAT     H245708   8.084   6.473   1.483
15156WAT      O45709   8.077   6.443   8.468
15156WAT     H145710   8.070   6.413   8.373
15156WAT     H245711   8.015   6.520   8.483
15157WAT      O45712   6.745   5.486   0.953
15157WAT     H145713   6.753   5.394   0.990
15157WAT     H245714   6.750   5.483   0.853
15158WAT      O45715   9.525   0.907   4.709
15158WAT     H145716   9.622   0.901   4.683
15158WAT     H245717   9.499   1.003   4.719
15159WAT      O45718   6.081   4.955   4.450
15159WAT     H145719   6.073   5.050   4.422
15159WAT     H245720   6.084   4.896   4.369
15160WAT      O45721   6.244   4.877   1.733
15160WAT     H145722   6.213   4.840   1.820
15160WAT     H245723   6.286   4.805   1.678
15161WAT      O45724   1.807   8.757   0.434
15161WAT     H145725   1.733   8.771   0.499
15161WAT     H245726   1.772   8.711   0.352
15162WAT      O45727   0.074   0.208   5.979
15162WAT     H145728  -0.023   0.204   5.954
15162WAT     H245729   0.091   0.149   6.058
15163WAT      O45730   0.348   9.219   6.726
15163WAT     H145731   0.411   9.296   6.719
15163WAT     H245732   0.293   9.212   6.643
15164WAT      O45733   5.774   3.849   2.169
15164WAT     H145734   5.677   3.847   2.195
15164WAT     H245735   5.823   3.774   2.215
15165WAT      O45736   7.115   6.369   3.265
15165WAT     H145737   7.101   6.428   3.345
15165WAT     H245738   7.213   6.361   3.246
15166WAT      O45739   0.132   6.203   5.491
15166WAT     H145740   0.200   6.165   5.554
15166WAT     H245741   0.078   6.272   5.539
15167WAT      O45742   4.200   9.449   4.615
15167WAT     H145743   4.250   9.495   4.542
15167WAT     H245744   4.263   9.393   4.668
15168WAT      O45745   6.143   1.376   5.840
15168WAT     H145746   6.233   1.348   5.874
15168WAT     H245747   6.109   1.452   5.896
15169WAT      O45748   6.409   7.868   9.068
15169WAT     H145749   6.386   7.891   9.162
15169WAT     H245750   6.505   7.840   9.063
15170WAT      O45751   3.597   3.113   7.945
15170WAT     H145752   3.511   3.158   7.967
15170WAT     H245753   3.590   3.071   7.854
15171WAT      O45754   5.347   4.186   6.191
15171WAT     H145755   5.301   4.198   6.279
15171WAT     H245756   5.336   4.092   6.159
15172WAT      O45757   6.343   7.424   6.998
15172WAT     H145758   6.412   7.369   6.951
15172WAT     H245759   6.288   7.474   6.931
15173WAT      O45760   5.713   9.422   6.391
15173WAT     H145761   5.783   9.372   6.442
15173WAT     H245762   5.675   9.364   6.319
15174WAT      O45763   5.030   4.762   2.878
15174WAT     H145764   5.068   4.735   2.966
15174WAT     H245765   4.934   4.735   2.874
15175WAT      O45766   7.636   8.117   0.171
15175WAT     H145767   7.637   8.029   0.124
15175WAT     H245768   7.557   8.170   0.142
15176WAT      O45769   3.118   5.254   5.324
15176WAT     H145770   3.203   5.235   5.372
15176WAT     H245771   3.117   5.204   5.237
15177WAT      O45772   8.341   0.772   3.897
15177WAT     H145773   8.353   0.867   3.923
15177WAT     H245774   8.246   0.757   3.869
15178WAT      O45775   7.835   1.292   7.972
15178WAT     H145776   7.800   1.206   7.933
15178WAT     H245777   7.840   1.283   8.072
15179WAT      O45778   4.071   9.338   8.239
15179WAT     H145779   3.989   9.392   8.256
15179WAT     H245780   4.068   9.255   8.293
15180WAT      O45781   7.509   7.645   8.421
15180WAT     H145782   7.454   7.681   8.345
15180WAT     H245783   7.585   7.592   8.384
15181WAT      O45784   2.057   5.934   7.533
15181WAT     H145785   2.117   6.006   7.497
15181WAT     H245786   2.016   5.964   7.619
15182WAT      O45787   5.750   5.935   7.964
15182WAT     H145788   5.671   5.893   8.008
15182WAT     H245789   5.778   5.880   7.885
15183WAT      O45790   5.873   0.786   6.254
15183WAT     H145791   5.799   0.833   6.302
15183WAT     H245792   5.906   0.845   6.180
15184WAT      O45793   5.635   6.901   9.665
15184WAT     H145794   5.626   6.853   9.578
15184WAT     H245795   5.660   6.996   9.649
15185WAT      O45796   6.602   8.714   1.260
15185WAT     H145797   6.700   8.710   1.240
15185WAT     H245798   6.554   8.654   1.197
15186WAT      O45799   3.997   5.434   3.905
15186WAT     H145800   3.953   5.349   3.875
15186WAT     H245801   3.980   5.505   3.837
15187WAT      O45802   6.388   0.684   1.217
15187WAT     H145803   6.435   0.769   1.240
15187WAT     H245804   6.365   0.635   1.301
15188WAT      O45805   2.904   6.195   0.843
15188WAT     H145806   2.973   6.124   0.862
15188WAT     H245807   2.821   6.176   0.895
15189WAT      O45808   4.064   2.345   8.486
15189WAT     H145809   4.143   2.390   8.528
15189WAT     H245810   4.086   2.321   8.391
15190WAT      O45811   3.432   0.426   0.258
15190WAT     H145812   3.391   0.492   0.321
15190WAT     H245813   3.495   0.474   0.197
15191WAT      O45814   7.061   2.221   8.562
15191WAT     H145815   7.018   2.258   8.480
15191WAT     H245816   7.052   2.122   8.564
15192WAT      O45817   0.199   1.438   0.269
15192WAT     H145818   0.232   1.346   0.247
15192WAT     H245819   0.225   1.461   0.363
15193WAT      O45820   3.068   0.969   7.364
15193WAT     H145821   3.120   1.026   7.300
15193WAT     H245822   3.128   0.899   7.403
15194WAT      O45823   1.202   9.416   6.194
15194WAT     H145824   1.124   9.431   6.256
15194WAT     H245825   1.184   9.462   6.107
15195WAT      O45826   4.744   8.868   2.886
15195WAT     H145827   4.662   8.904   2.932
15195WAT     H245828   4.718   8.830   2.797
15196WAT      O45829   2.864   9.774   1.979
15196WAT     H145830   2.880   9.739   1.887
15196WAT     H245831   2.769   9.806   1.986
15197WAT      O45832   0.550   6.347   7.238
15197WAT     H145833   0.508   6.344   7.147
15197WAT     H245834   0.548   6.256   7.279
15198WAT      O45835   6.034   5.704   4.193
15198WAT     H145836   6.127   5.724   4.224
15198WAT     H245837   5.977   5.678   4.271
15199WAT      O45838   5.588   1.390   6.767
15199WAT     H145839   5.640   1.453   6.825
15199WAT     H245840   5.647   1.358   6.693
15200WAT      O45841   5.489   6.089   4.976
15200WAT     H145842   5.504   6.151   5.053
15200WAT     H245843   5.561   6.102   4.908
15201WAT      O45844   2.011   0.209   6.992
15201WAT     H145845   1.949   0.145   7.037
15201WAT     H245846   2.008   0.193   6.893
15202WAT      O45847   1.350   6.187   5.669
15202WAT     H145848   1.347   6.088   5.655
15202WAT     H245849   1.313   6.209   5.760
15203WAT      O45850   8.353   2.694   3.781
15203WAT     H145851   8.389   2.610   3.822
15203WAT     H245852   8.353   2.685   3.682
15204WAT      O45853   7.209   6.290   0.458
15204WAT     H145854   7.291   6.278   0.515
15204WAT     H245855   7.136   6.331   0.513
15205WAT      O45856   2.878   7.083   2.090
15205WAT     H145857   2.880   7.156   2.158
15205WAT     H245858   2.955   7.095   2.026
15206WAT      O45859   0.339   7.039   3.786
15206WAT     H145860   0.383   7.061   3.873
15206WAT     H245861   0.407   7.036   3.713
15207WAT      O45862   4.636   0.020   6.830
15207WAT     H145863   4.658  -0.047   6.759
15207WAT     H245864   4.541   0.049   6.820
15208WAT      O45865   8.822   7.311   1.904
15208WAT     H145866   8.797   7.407   1.892
15208WAT     H245867   8.907   7.292   1.856
15209WAT      O45868   7.322   0.505   5.463
15209WAT     H145869   7.271   0.561   5.398
15209WAT     H245870   7.274   0.419   5.478
15210WAT      O45871   0.971   1.815   0.286
15210WAT     H145872   1.030   1.739   0.313
15210WAT     H245873   0.945   1.867   0.367
15211WAT      O45874   0.812   4.044   5.062
15211WAT     H145875   0.764   4.125   5.096
15211WAT     H245876   0.832   3.983   5.138
15212WAT      O45877   5.577   3.579   4.076
15212WAT     H145878   5.628   3.579   3.990
15212WAT     H245879   5.623   3.521   4.143
15213WAT      O45880   8.587   5.533   1.755
15213WAT     H145881   8.551   5.603   1.816
15213WAT     H245882   8.679   5.559   1.725
15214WAT      O45883   0.661   6.672   6.463
15214WAT     H145884   0.760   6.670   6.446
15214WAT     H245885   0.632   6.767   6.477
15215WAT      O45886   4.374   9.561   7.605
15215WAT     H145887   4.367   9.541   7.703
15215WAT     H245888   4.284   9.590   7.571
15216WAT      O45889   7.581   7.809   5.403
15216WAT     H145890   7.656   7.836   5.343
15216WAT     H245891   7.583   7.710   5.416
15217WAT      O45892   5.937   0.464   3.647
15217WAT     H145893   5.839   0.444   3.642
15217WAT     H245894   5.980   0.402   3.712
15218WAT      O45895   9.053   2.101   0.488
15218WAT     H145896   9.121   2.080   0.418
15218WAT     H245897   9.087   2.174   0.547
15219WAT      O45898   0.619   2.921   9.119
15219WAT     H145899   0.547   2.879   9.174
15219WAT     H245900   0.581   2.998   9.068
15220WAT      O45901   6.440   5.694   0.819
15220WAT     H145902   6.473   5.785   0.793
15220WAT     H245903   6.497   5.624   0.775
15221WAT      O45904   3.941   2.523   2.232
15221WAT     H145905   4.016   2.537   2.167
15221WAT     H245906   3.858   2.500   2.181
15222WAT      O45907   7.826   7.096   1.792
15222WAT     H145908   7.899   7.130   1.731
15222WAT     H245909   7.867   7.043   1.866
15223WAT      O45910   1.207   8.613   1.513
15223WAT     H145911   1.144   8.552   1.561
15223WAT     H245912   1.276   8.647   1.576
15224WAT      O45913   0.339   0.527   5.393
15224WAT     H145914   0.277   0.472   5.338
15224WAT     H245915   0.322   0.510   5.490
15225WAT      O45916   6.842   0.260   3.633
15225WAT     H145917   6.906   0.184   3.628
15225WAT     H245918   6.835   0.303   3.543
15226WAT      O45919   8.504   7.145   5.376
15226WAT     H145920   8.410   7.112   5.374
15226WAT     H245921   8.525   7.192   5.291
15227WAT      O45922   4.569   9.737   1.456
15227WAT     H145923   4.483   9.745   1.506
15227WAT     H245924   4.606   9.828   1.437
15228WAT      O45925   8.156   8.228   2.772
15228WAT     H145926   8.134   8.209   2.677
15228WAT     H245927   8.236   8.175   2.799
15229WAT      O45928   4.598   9.404   0.892
15229WAT     H145929   4.533   9.437   0.961
15229WAT     H245930   4.561   9.419   0.801
15230WAT      O45931   0.602   5.397   6.363
15230WAT     H145932   0.668   5.333   6.403
15230WAT     H245933   0.513   5.386   6.408
15231WAT      O45934   1.396   8.991   9.168
15231WAT     H145935   1.303   9.029   9.164
15231WAT     H245936   1.392   8.893   9.147
15232WAT      O45937   0.819   4.700   7.310
15232WAT     H145938   0.824   4.638   7.389
15232WAT     H245939   0.726   4.699   7.273
15233WAT      O45940   7.114   5.992   9.819
15233WAT     H145941   7.046   6.065   9.826
15233WAT     H245942   7.070   5.904   9.835
15234WAT      O45943   1.541   0.621   6.020
15234WAT     H145944   1.475   0.695   6.030
15234WAT     H245945   1.496   0.542   5.977
15235WAT      O45946   9.754   1.765   1.718
15235WAT     H145947   9.784   1.758   1.623
15235WAT     H245948   9.826   1.808   1.773
15236WAT      O45949   6.976   2.794   8.738
15236WAT     H145950   6.876   2.801   8.738
15236WAT     H245951   7.015   2.868   8.793
15237WAT      O45952   7.248   9.720   6.341
15237WAT     H145953   7.303   9.650   6.387
15237WAT     H245954   7.299   9.806   6.340
15238WAT      O45955   7.039   0.493   1.180
15238WAT     H145956   7.108   0.494   1.108
15238WAT     H245957   7.060   0.563   1.248
15239WAT      O45958   2.907   3.534   4.310
15239WAT     H145959   2.960   3.577   4.383
15239WAT     H245960   2.818   3.506   4.345
15240WAT      O45961   1.170   3.167   4.342
15240WAT     H145962   1.177   3.086   4.401
15240WAT     H245963   1.074   3.188   4.324
15241WAT      O45964   6.898   9.594   7.121
15241WAT     H145965   6.913   9.606   7.219
15241WAT     H245966   6.873   9.499   7.103
15242WAT      O45967   8.884   4.511   3.232
15242WAT     H145968   8.799   4.522   3.180
15242WAT     H245969   8.894   4.588   3.295
15243WAT      O45970   4.147   8.055   5.297
15243WAT     H145971   4.114   7.968   5.261
15243WAT     H245972   4.236   8.077   5.255
15244WAT      O45973   2.599   1.145   3.422
15244WAT     H145974   2.634   1.196   3.502
15244WAT     H245975   2.535   1.203   3.371
15245WAT      O45976   5.260   9.605   4.282
15245WAT     H145977   5.351   9.564   4.280
15245WAT     H245978   5.253   9.675   4.210
15246WAT      O45979   2.136   6.378   6.816
15246WAT     H145980   2.131   6.289   6.861
15246WAT     H245981   2.229   6.415   6.824
15247WAT      O45982   4.146   2.543   2.083
15247WAT     H145983   4.216   2.517   2.150
15247WAT     H245984   4.184   2.534   1.991
15248WAT      O45985   8.534   9.337   9.589
15248WAT     H145986   8.440   9.318   9.563
15248WAT     H245987   8.553   9.435   9.577
15249WAT      O45988   0.151   9.833   2.574
15249WAT     H145989   0.202   9.860   2.656
15249WAT     H245990   0.159   9.904   2.504
15250WAT      O45991   0.014   9.358   5.364
15250WAT     H145992  -0.050   9.433   5.347
15250WAT     H245993   0.053   9.327   5.278
15251WAT      O45994   7.344   4.389   3.419
15251WAT     H145995   7.396   4.305   3.431
15251WAT     H245996   7.405   4.468   3.423
15252WAT      O45997   8.581   9.381   3.452
15252WAT     H145998   8.495   9.356   3.497
15252WAT     H245999   8.564   9.402   3.356
15253WAT      O46000   0.649   9.337   5.189
15253WAT     H146001   0.556   9.331   5.225
15253WAT     H246002   0.700   9.407   5.239
15254WAT      O46003   0.237   7.478   9.027
15254WAT     H146004   0.319   7.451   8.977
15254WAT     H246005   0.227   7.577   9.023
15255WAT      O46006   0.813   0.361   1.952
15255WAT     H146007   0.852   0.441   1.997
15255WAT     H246008   0.776   0.299   2.021
15256WAT      O46009   7.679   9.061   6.539
15256WAT     H146010   7.665   8.988   6.472
15256WAT     H246011   7.654   9.028   6.630
15257WAT      O46012   0.309   8.928   8.154
15257WAT     H146013   0.257   9.014   8.152
15257WAT     H246014   0.253   8.855   8.114
15258WAT      O46015   5.552   2.329   6.722
15258WAT     H146016   5.644   2.354   6.751
15258WAT     H246017   5.486   2.398   6.753
15259WAT      O46018   6.927   2.837   0.600
15259WAT     H146019   7.002   2.798   0.653
15259WAT     H246020   6.907   2.929   0.633
15260WAT      O46021   9.801   1.809   2.626
15260WAT     H146022   9.794   1.713   2.651
15260WAT     H246023   9.764   1.822   2.533
15261WAT      O46024   0.698   4.993   2.099
15261WAT     H146025   0.718   4.989   2.001
15261WAT     H246026   0.771   5.043   2.146
15262WAT      O46027   1.802   6.975   5.298
15262WAT     H146028   1.738   7.051   5.284
15262WAT     H246029   1.891   7.011   5.326
15263WAT      O46030   7.269   3.453   4.782
15263WAT     H146031   7.250   3.486   4.689
15263WAT     H246032   7.220   3.368   4.798
15264WAT      O46033   6.561   3.863   4.304
15264WAT     H146034   6.586   3.778   4.349
15264WAT     H246035   6.545   3.934   4.374
15265WAT      O46036   5.192   4.156   7.880
15265WAT     H146037   5.239   4.106   7.807
15265WAT     H246038   5.258   4.182   7.950
15266WAT      O46039   1.599   4.679   0.011
15266WAT     H146040   1.604   4.660   0.109
15266WAT     H246041   1.684   4.721  -0.020
15267WAT      O46042   1.354   8.335   7.681
15267WAT     H146043   1.443   8.338   7.726
15267WAT     H246044   1.282   8.327   7.749
15268WAT      O46045   1.417   0.791   3.837
15268WAT     H146046   1.341   0.806   3.900
15268WAT     H246047   1.409   0.700   3.797
15269WAT      O46048   0.883   4.014   9.283
15269WAT     H146049   0.884   3.959   9.199
15269WAT     H246050   0.928   4.102   9.265
15270WAT      O46051   4.892   7.271   2.641
15270WAT     H146052   4.845   7.186   2.617
15270WAT     H246053   4.890   7.333   2.563
15271WAT      O46054   2.537   4.174   1.275
15271WAT     H146055   2.478   4.100   1.308
15271WAT     H246056   2.629   4.161   1.310
15272WAT      O46057   5.590   6.253   2.480
15272WAT     H146058   5.522   6.232   2.410
15272WAT     H246059   5.665   6.304   2.438
15273WAT      O46060   5.183   8.010   0.209
15273WAT     H146061   5.250   7.982   0.277
15273WAT     H246062   5.174   7.939   0.140
15274WAT      O46063   7.678   2.491   3.970
15274WAT     H146064   7.774   2.477   3.944
15274WAT     H246065   7.632   2.544   3.899
15275WAT      O46066   3.446   8.880   8.316
15275WAT     H146067   3.455   8.893   8.217
15275WAT     H246068   3.531   8.843   8.352
15276WAT      O46069   1.633   8.163   5.304
15276WAT     H146070   1.713   8.111   5.335
15276WAT     H246071   1.566   8.168   5.378
15277WAT      O46072   3.669   8.547   2.445
15277WAT     H146073   3.632   8.531   2.354
15277WAT     H246074   3.761   8.509   2.451
15278WAT      O46075   8.328   0.257   4.932
15278WAT     H146076   8.413   0.255   4.880
15278WAT     H246077   8.250   0.253   4.869
15279WAT      O46078   9.889   1.707   4.900
15279WAT     H146079   9.828   1.690   4.823
15279WAT     H246080   9.839   1.698   4.986
15280WAT      O46081   9.394   1.689   8.819
15280WAT     H146082   9.382   1.616   8.886
15280WAT     H246083   9.488   1.723   8.823
15281WAT      O46084   5.160   4.416   9.253
15281WAT     H146085   5.197   4.350   9.187
15281WAT     H246086   5.218   4.418   9.334
15282WAT      O46087   6.002   6.470   2.658
15282WAT     H146088   5.996   6.428   2.567
15282WAT     H246089   6.047   6.407   2.721
15283WAT      O46090   4.497   1.097   2.262
15283WAT     H146091   4.565   1.085   2.191
15283WAT     H246092   4.454   1.008   2.282
15284WAT      O46093   8.467   4.444   5.222
15284WAT     H146094   8.500   4.519   5.165
15284WAT     H246095   8.372   4.424   5.198
15285WAT      O46096   1.198   9.177   1.176
15285WAT     H146097   1.186   9.078   1.187
15285WAT     H246098   1.283   9.205   1.221
15286WAT      O46099   9.843   8.274   7.144
15286WAT     H146100   9.817   8.318   7.230
15286WAT     H246101   9.858   8.176   7.159
15287WAT      O46102   5.519   3.920   6.294
15287WAT     H146103   5.599   3.910   6.235
15287WAT     H246104   5.438   3.883   6.248
15288WAT      O46105   5.241   8.818   2.742
15288WAT     H146106   5.314   8.875   2.704
15288WAT     H246107   5.224   8.844   2.837
15289WAT      O46108   3.310   4.469   6.450
15289WAT     H146109   3.250   4.460   6.529
15289WAT     H246110   3.347   4.562   6.447
15290WAT      O46111   1.209   4.829   6.843
15290WAT     H146112   1.171   4.817   6.752
15290WAT     H246113   1.307   4.850   6.836
15291WAT      O46114   1.108   7.174   3.291
15291WAT     H146115   1.150   7.088   3.262
15291WAT     H246116   1.138   7.247   3.230
15292WAT      O46117   9.727   8.052   8.782
15292WAT     H146118   9.741   8.070   8.879
15292WAT     H246119   9.669   8.123   8.742
15293WAT      O46120   7.807   0.913   1.959
15293WAT     H146121   7.770   1.002   1.985
15293WAT     H246122   7.733   0.854   1.927
15294WAT      O46123   6.129   6.287   3.085
15294WAT     H146124   6.148   6.381   3.114
15294WAT     H246125   6.095   6.234   3.162
15295WAT      O46126   0.708   7.701   1.235
15295WAT     H146127   0.762   7.785   1.224
15295WAT     H246128   0.712   7.648   1.151
15296WAT      O46129   1.575   5.920   0.223
15296WAT     H146130   1.650   5.854   0.231
15296WAT     H246131   1.611   6.012   0.237
15297WAT      O46132   2.030   0.864   3.693
15297WAT     H146133   2.039   0.765   3.679
15297WAT     H246134   2.027   0.883   3.791
15298WAT      O46135   6.965   0.832   3.923
15298WAT     H146136   7.036   0.763   3.909
15298WAT     H246137   6.986   0.885   4.006
15299WAT      O46138   7.970   8.954   2.386
15299WAT     H146139   7.972   8.870   2.441
15299WAT     H246140   7.964   8.929   2.289
15300WAT      O46141   4.655   7.230   3.141
15300WAT     H146142   4.566   7.204   3.179
15300WAT     H246143   4.699   7.295   3.203
15301WAT      O46144   2.697   1.150   1.047
15301WAT     H146145   2.731   1.057   1.061
15301WAT     H246146   2.749   1.213   1.106
15302WAT      O46147   1.653   3.111   2.560
15302WAT     H146148   1.647   3.069   2.469
15302WAT     H246149   1.717   3.060   2.616
15303WAT      O46150   2.250   4.855   7.976
15303WAT     H146151   2.193   4.807   7.908
15303WAT     H246152   2.193   4.921   8.025
15304WAT      O46153   6.061   1.882   2.733
15304WAT     H146154   6.122   1.805   2.752
15304WAT     H246155   6.016   1.868   2.645
15305WAT      O46156   3.011   8.816   2.533
15305WAT     H146157   2.915   8.812   2.559
15305WAT     H246158   3.046   8.723   2.520
15306WAT      O46159   2.983   4.421   7.155
15306WAT     H146160   2.988   4.519   7.132
15306WAT     H246161   2.933   4.373   7.083
15307WAT      O46162   6.016   1.997   5.623
15307WAT     H146163   6.078   2.056   5.572
15307WAT     H246164   6.033   2.007   5.721
15308WAT      O46165   6.500   0.464   4.465
15308WAT     H146166   6.571   0.493   4.402
15308WAT     H246167   6.462   0.544   4.511
15309WAT      O46168   5.440   9.177   2.892
15309WAT     H146169   5.487   9.089   2.894
15309WAT     H246170   5.459   9.223   2.805
15310WAT      O46171   2.502   0.589   8.279
15310WAT     H146172   2.547   0.532   8.211
15310WAT     H246173   2.474   0.532   8.356
15311WAT      O46174   5.157   3.724   5.129
15311WAT     H146175   5.153   3.790   5.054
15311WAT     H246176   5.244   3.733   5.177
15312WAT      O46177   9.369   7.027   0.126
15312WAT     H146178   9.283   7.045   0.079
15312WAT     H246179   9.414   6.948   0.084
15313WAT      O46180   3.401   7.523   2.137
15313WAT     H146181   3.479   7.490   2.084
15313WAT     H246182   3.377   7.454   2.206
15314WAT      O46183   4.164   5.337   9.518
15314WAT     H146184   4.170   5.268   9.446
15314WAT     H246185   4.111   5.301   9.595
15315WAT      O46186   6.422   7.533   8.665
15315WAT     H146187   6.481   7.467   8.713
15315WAT     H246188   6.343   7.485   8.627
15316WAT      O46189   9.716   2.543   6.947
15316WAT     H146190   9.756   2.458   6.914
15316WAT     H246191   9.788   2.600   6.988
15317WAT      O46192   6.362   5.961   9.221
15317WAT     H146193   6.448   5.911   9.207
15317WAT     H246194   6.361   6.042   9.163
15318WAT      O46195   3.822   3.206   3.112
15318WAT     H146196   3.799   3.178   3.205
15318WAT     H246197   3.858   3.300   3.114
15319WAT      O46198   3.349   7.489   1.458
15319WAT     H146199   3.384   7.428   1.387
15319WAT     H246200   3.418   7.559   1.478
15320WAT      O46201   3.268   6.257   6.682
15320WAT     H146202   3.266   6.204   6.766
15320WAT     H246203   3.187   6.316   6.677
15321WAT      O46204   3.926   6.016   9.706
15321WAT     H146205   3.854   6.085   9.705
15321WAT     H246206   3.927   5.969   9.794
15322WAT      O46207   6.458   3.550   8.069
15322WAT     H146208   6.436   3.472   8.128
15322WAT     H246209   6.373   3.593   8.039
15323WAT      O46210   9.277   8.899   2.962
15323WAT     H146211   9.200   8.836   2.960
15323WAT     H246212   9.353   8.860   2.909
15324WAT      O46213   5.844   7.878   1.451
15324WAT     H146214   5.788   7.820   1.392
15324WAT     H246215   5.794   7.963   1.472
15325WAT      O46216   5.477   4.903   6.279
15325WAT     H146217   5.436   4.993   6.270
15325WAT     H246218   5.576   4.912   6.293
15326WAT      O46219   1.631   4.372   2.668
15326WAT     H146220   1.668   4.431   2.740
15326WAT     H246221   1.573   4.301   2.709
15327WAT      O46222   0.289   4.363   8.742
15327WAT     H146223   0.216   4.359   8.811
15327WAT     H246224   0.273   4.441   8.682
15328WAT      O46225   7.441   2.093   5.348
15328WAT     H146226   7.402   2.005   5.320
15328WAT     H246227   7.500   2.127   5.275
15329WAT      O46228   1.526   8.264   8.633
15329WAT     H146229   1.497   8.357   8.654
15329WAT     H246230   1.516   8.207   8.715
15330WAT      O46231   4.274   3.758   2.325
15330WAT     H146232   4.325   3.800   2.250
15330WAT     H246233   4.226   3.677   2.292
15331WAT      O46234   3.979   2.484   4.905
15331WAT     H146235   4.048   2.430   4.855
15331WAT     H246236   3.927   2.424   4.964
15332WAT      O46237   4.267   1.802   0.153
15332WAT     H146238   4.316   1.860   0.087
15332WAT     H246239   4.206   1.859   0.207
15333WAT      O46240   1.159   4.031   4.537
15333WAT     H146241   1.127   4.110   4.589
15333WAT     H246242   1.102   4.020   4.456
15334WAT      O46243   5.758   6.031   8.636
15334WAT     H146244   5.684   6.050   8.573
15334WAT     H246245   5.734   5.954   8.695
15335WAT      O46246   4.322   2.685   6.143
15335WAT     H146247   4.244   2.729   6.098
15335WAT     H246248   4.387   2.755   6.173
15336WAT      O46249   0.735   9.485   3.981
15336WAT     H146250   0.639   9.504   4.001
15336WAT     H246251   0.747   9.478   3.882
15337WAT      O46252   3.039   0.389   6.102
15337WAT     H146253   3.027   0.378   6.200
15337WAT     H246254   3.072   0.304   6.062
15338WAT      O46255   1.178   1.686   6.283
15338WAT     H146256   1.138   1.740   6.209
15338WAT     H246257   1.219   1.603   6.246
15339WAT      O46258   9.295   1.703   6.921
15339WAT     H146259   9.372   1.720   6.860
15339WAT     H246260   9.229   1.643   6.876
15340WAT      O46261   8.433   4.989   7.684
15340WAT     H146262   8.474   4.955   7.769
15340WAT     H246263   8.361   4.927   7.655
15341WAT      O46264   8.534   0.632   3.188
15341WAT     H146265   8.563   0.537   3.202
15341WAT     H246266   8.538   0.681   3.275
15342WAT      O46267   0.708   1.657   4.913
15342WAT     H146268   0.757   1.744   4.905
15342WAT     H246269   0.728   1.601   4.832
15343WAT      O46270   3.247   4.009   8.808
15343WAT     H146271   3.310   4.074   8.766
15343WAT     H246272   3.208   4.049   8.891
15344WAT      O46273   8.008   3.987   0.699
15344WAT     H146274   7.925   3.932   0.713
15344WAT     H246275   7.982   4.082   0.682
15345WAT      O46276   9.274   6.367   0.752
15345WAT     H146277   9.277   6.453   0.702
15345WAT     H246278   9.365   6.325   0.751
15346WAT      O46279   5.810   6.802   8.282
15346WAT     H146280   5.787   6.894   8.314
15346WAT     H246281   5.858   6.809   8.195
15347WAT      O46282   5.847   5.105   7.630
15347WAT     H146283   5.809   5.021   7.670
15347WAT     H246284   5.906   5.149   7.697
15348WAT      O46285   0.271   1.146   7.971
15348WAT     H146286   0.188   1.165   7.919
15348WAT     H246287   0.257   1.171   8.066
15349WAT      O46288   3.279   6.576   5.710
15349WAT     H146289   3.218   6.502   5.738
15349WAT     H246290   3.244   6.663   5.744
15350WAT      O46291   9.763   6.246   2.240
15350WAT     H146292   9.786   6.219   2.146
15350WAT     H246293   9.730   6.166   2.290
15351WAT      O46294   8.115   2.937   0.166
15351WAT     H146295   8.087   3.017   0.219
15351WAT     H246296   8.133   2.861   0.227
15352WAT      O46297   4.729   4.292   5.323
15352WAT     H146298   4.699   4.357   5.253
15352WAT     H246299   4.782   4.219   5.281
15353WAT      O46300   5.783   6.852   4.174
15353WAT     H146301   5.853   6.882   4.238
15353WAT     H246302   5.807   6.883   4.082
15354WAT      O46303   4.327   7.059   6.385
15354WAT     H146304   4.353   7.036   6.291
15354WAT     H246305   4.345   7.156   6.402
15355WAT      O46306   7.496   3.956   9.682
15355WAT     H146307   7.465   3.894   9.754
15355WAT     H246308   7.591   3.983   9.700
15356WAT      O46309   5.100   9.612   1.243
15356WAT     H146310   5.174   9.647   1.186
15356WAT     H246311   5.106   9.513   1.249
15357WAT      O46312   1.094   9.425   9.093
15357WAT     H146313   1.061   9.503   9.040
15357WAT     H246314   1.179   9.449   9.139
15358WAT      O46315   7.307   6.716   7.448
15358WAT     H146316   7.318   6.743   7.544
15358WAT     H246317   7.247   6.781   7.402
15359WAT      O46318   8.310   2.660   0.884
15359WAT     H146319   8.244   2.631   0.953
15359WAT     H246320   8.312   2.593   0.810
15360WAT      O46321   9.193   4.325   5.182
15360WAT     H146322   9.219   4.332   5.085
15360WAT     H246323   9.207   4.413   5.227
15361WAT      O46324   4.080   2.931   9.766
15361WAT     H146325   4.134   3.015   9.765
15361WAT     H246326   3.984   2.954   9.752
15362WAT      O46327   4.856   6.617   2.568
15362WAT     H146328   4.878   6.703   2.521
15362WAT     H246329   4.907   6.613   2.654
15363WAT      O46330   7.537   7.378   9.564
15363WAT     H146331   7.593   7.300   9.537
15363WAT     H246332   7.487   7.355   9.648
15364WAT      O46333   1.673   7.014   6.498
15364WAT     H146334   1.768   7.004   6.527
15364WAT     H246335   1.646   6.932   6.447
15365WAT      O46336   2.324   5.175   0.666
15365WAT     H146337   2.412   5.203   0.628
15365WAT     H246338   2.299   5.237   0.741
15366WAT      O46339   8.673   8.135   9.401
15366WAT     H146340   8.686   8.133   9.302
15366WAT     H246341   8.752   8.179   9.444
15367WAT      O46342   4.178   5.298   6.009
15367WAT     H146343   4.267   5.325   6.044
15367WAT     H246344   4.118   5.378   6.005
15368WAT      O46345   0.719   8.846   6.230
15368WAT     H146346   0.740   8.888   6.318
15368WAT     H246347   0.740   8.748   6.234
15369WAT      O46348   7.100   0.211   3.830
15369WAT     H146349   7.161   0.189   3.907
15369WAT     H246350   7.087   0.130   3.773
15370WAT      O46351   2.848   5.355   7.860
15370WAT     H146352   2.873   5.336   7.954
15370WAT     H246353   2.931   5.366   7.805
15371WAT      O46354   7.762   3.064   4.232
15371WAT     H146355   7.733   3.131   4.301
15371WAT     H246356   7.740   3.099   4.141
15372WAT      O46357   3.731   6.281   0.164
15372WAT     H146358   3.820   6.240   0.144
15372WAT     H246359   3.662   6.209   0.172
15373WAT      O46360   8.376   2.266   5.616
15373WAT     H146361   8.320   2.349   5.614
15373WAT     H246362   8.339   2.199   5.551
15374WAT      O46363   3.085   5.070   9.563
15374WAT     H146364   3.135   5.144   9.607
15374WAT     H246365   2.998   5.106   9.529
15375WAT      O46366   4.298   2.065   9.656
15375WAT     H146367   4.323   1.985   9.602
15375WAT     H246368   4.199   2.064   9.672
15376WAT      O46369   7.166   6.934   5.834
15376WAT     H146370   7.131   6.887   5.915
15376WAT     H246371   7.159   7.033   5.847
15377WAT      O46372   4.012   1.131   0.765
15377WAT     H146373   4.105   1.094   0.764
15377WAT     H246374   3.992   1.174   0.678
15378WAT      O46375   8.567   4.551   6.100
15378WAT     H146376   8.527   4.498   6.175
15378WAT     H246377   8.533   4.517   6.013
15379WAT      O46378   2.609   3.981   0.013
15379WAT     H146379   2.570   3.928  -0.062
15379WAT     H246380   2.553   3.969   0.096
15380WAT      O46381   6.019   4.227   3.447
15380WAT     H146382   6.114   4.201   3.457
15380WAT     H246383   6.012   4.300   3.378
15381WAT      O46384   5.401   9.245   7.217
15381WAT     H146385   5.371   9.151   7.202
15381WAT     H246386   5.378   9.274   7.310
15382WAT      O46387   9.361   3.057   3.068
15382WAT     H146388   9.294   3.127   3.092
15382WAT     H246389   9.435   3.057   3.135
15383WAT      O46390   0.023   0.456   8.632
15383WAT     H146391  -0.058   0.399   8.613
15383WAT     H246392   0.028   0.530   8.566
15384WAT      O46393   8.414   2.832   8.505
15384WAT     H146394   8.345   2.791   8.447
15384WAT     H246395   8.377   2.916   8.546
15385WAT      O46396   6.133   8.591   0.419
15385WAT     H146397   6.124   8.603   0.320
15385WAT     H246398   6.048   8.618   0.464
15386WAT      O46399   0.129   5.271   7.442
15386WAT     H146400   0.031   5.291   7.444
15386WAT     H246401   0.177   5.331   7.506
15387WAT      O46402   4.079   1.973   0.246
15387WAT     H146403   4.006   1.928   0.297
15387WAT     H246404   4.048   2.064   0.218
15388WAT      O46405   2.326   1.146   3.803
15388WAT     H146406   2.292   1.088   3.730
15388WAT     H246407   2.426   1.137   3.809
15389WAT      O46408   7.860   7.864   6.605
15389WAT     H146409   7.922   7.798   6.648
15389WAT     H246410   7.790   7.892   6.670
15390WAT      O46411   5.133   6.206   5.227
15390WAT     H146412   5.120   6.181   5.131
15390WAT     H246413   5.094   6.135   5.286
15391WAT      O46414   7.776   5.830   7.258
15391WAT     H146415   7.788   5.916   7.309
15391WAT     H246416   7.679   5.811   7.247
15392WAT      O46417   7.271   2.553   6.470
15392WAT     H146418   7.171   2.542   6.475
15392WAT     H246419   7.308   2.491   6.401
15393WAT      O46420   2.222   8.017   8.567
15393WAT     H146421   2.171   8.086   8.617
15393WAT     H246422   2.310   8.055   8.538
15394WAT      O46423   9.597   3.784   0.568
15394WAT     H146424   9.636   3.865   0.612
15394WAT     H246425   9.503   3.771   0.600
15395WAT      O46426   8.814   5.784   5.725
15395WAT     H146427   8.792   5.839   5.806
15395WAT     H246428   8.819   5.844   5.645
15396WAT      O46429   7.925   9.129   5.972
15396WAT     H146430   7.921   9.131   6.072
15396WAT     H246431   7.878   9.210   5.935
15397WAT      O46432   5.360   5.516   2.855
15397WAT     H146433   5.271   5.471   2.849
15397WAT     H246434   5.417   5.468   2.922
15398WAT      O46435   3.442   9.071   2.266
15398WAT     H146436   3.426   8.980   2.304
15398WAT     H246437   3.407   9.140   2.330
15399WAT      O46438   1.952   8.547   0.731
15399WAT     H146439   2.008   8.580   0.656
15399WAT     H246440   1.944   8.618   0.801
15400WAT      O46441   4.990   2.633   8.647
15400WAT     H146442   5.036   2.549   8.675
15400WAT     H246443   4.948   2.619   8.557
15401WAT      O46444   5.314   8.559   9.883
15401WAT     H146445   5.380   8.589   9.813
15401WAT     H246446   5.363   8.527   9.963
15402WAT      O46447   2.269   5.860   9.563
15402WAT     H146448   2.203   5.790   9.535
15402WAT     H246449   2.224   5.925   9.625
15403WAT      O46450   0.695   6.237   0.883
15403WAT     H146451   0.778   6.283   0.851
15403WAT     H246452   0.639   6.211   0.804
15404WAT      O46453   7.944   5.408   3.046
15404WAT     H146454   7.881   5.438   3.117
15404WAT     H246455   7.921   5.453   2.960
15405WAT      O46456   1.991   3.702   1.714
15405WAT     H146457   2.029   3.615   1.743
15405WAT     H246458   2.016   3.773   1.779
15406WAT      O46459   9.361   9.432   2.681
15406WAT     H146460   9.394   9.479   2.762
15406WAT     H246461   9.397   9.339   2.679
15407WAT      O46462   7.766   6.474   8.885
15407WAT     H146463   7.745   6.398   8.947
15407WAT     H246464   7.713   6.555   8.913
15408WAT      O46465   3.027   1.558   0.076
15408WAT     H146466   2.959   1.540   0.005
15408WAT     H246467   3.096   1.621   0.040
15409WAT      O46468   7.053   9.676   3.047
15409WAT     H146469   7.103   9.732   2.981
15409WAT     H246470   6.960   9.711   3.057
15410WAT      O46471   0.454   2.600   5.438
15410WAT     H146472   0.385   2.588   5.366
15410WAT     H246473   0.433   2.682   5.491
15411WAT      O46474   9.775   0.786   6.977
15411WAT     H146475   9.787   0.689   6.957
15411WAT     H246476   9.862   0.824   7.009
15412WAT      O46477   0.918   2.733   5.407
15412WAT     H146478   0.911   2.773   5.498
15412WAT     H246479   0.940   2.805   5.340
15413WAT      O46480   0.759   6.270   8.801
15413WAT     H146481   0.792   6.266   8.896
15413WAT     H246482   0.666   6.233   8.797
15414WAT      O46483   9.019   1.466   0.782
15414WAT     H146484   8.957   1.515   0.721
15414WAT     H246485   9.094   1.526   0.809
15415WAT      O46486   7.805   5.699   9.208
15415WAT     H146487   7.782   5.638   9.132
15415WAT     H246488   7.891   5.670   9.249
15416WAT      O46489   1.671   9.339   5.664
15416WAT     H146490   1.733   9.266   5.693
15416WAT     H246491   1.720   9.426   5.663
15417WAT      O46492   5.690   9.716   9.271
15417WAT     H146493   5.629   9.637   9.279
15417WAT     H246494   5.761   9.711   9.342
15418WAT      O46495   4.366   2.988   3.145
15418WAT     H146496   4.394   2.930   3.221
15418WAT     H246497   4.395   3.082   3.162
15419WAT      O46498   6.677   0.168   8.828
15419WAT     H146499   6.641   0.075   8.830
15419WAT     H246500   6.766   0.171   8.873
15420WAT      O46501   4.685   3.714   5.039
15420WAT     H146502   4.634   3.648   4.984
15420WAT     H246503   4.705   3.675   5.129
15421WAT      O46504   0.510   1.916   4.887
15421WAT     H146505   0.462   1.836   4.923
15421WAT     H246506   0.530   1.902   4.790
15422WAT      O46507   1.169   7.435   4.090
15422WAT     H146508   1.190   7.507   4.025
15422WAT     H246509   1.210   7.457   4.179
15423WAT      O46510   7.264   8.051   0.428
15423WAT     H146511   7.358   8.082   0.445
15423WAT     H246512   7.232   8.088   0.341
15424WAT      O46513   8.251   2.735   9.534
15424WAT     H146514   8.220   2.674   9.607
15424WAT     H246515   8.341   2.705   9.502
15425WAT      O46516   8.312   4.293   8.165
15425WAT     H146517   8.250   4.358   8.121
15425WAT     H246518   8.380   4.262   8.099
15426WAT      O46519   3.317   7.922   7.030
15426WAT     H146520   3.342   7.850   7.095
15426WAT     H246521   3.395   7.942   6.971
15427WAT      O46522   1.279   3.893   3.269
15427WAT     H146523   1.322   3.881   3.180
15427WAT     H246524   1.181   3.877   3.262
15428WAT      O46525   8.216   0.789   5.052
15428WAT     H146526   8.220   0.701   5.004
15428WAT     H246527   8.152   0.850   5.005
15429WAT      O46528   9.541   4.627   8.755
15429WAT     H146529   9.574   4.534   8.740
15429WAT     H246530   9.579   4.661   8.841
15430WAT      O46531   3.869   6.622   7.706
15430WAT     H146532   3.771   6.615   7.726
15430WAT     H246533   3.891   6.714   7.676
15431WAT      O46534   3.326   2.774   2.454
15431WAT     H146535   3.409   2.824   2.476
15431WAT     H246536   3.246   2.825   2.485
15432WAT      O46537   9.243   2.900   5.159
15432WAT     H146538   9.204   2.924   5.071
15432WAT     H246539   9.236   2.801   5.173
15433WAT      O46540   9.386   2.434   8.780
15433WAT     H146541   9.331   2.353   8.802
15433WAT     H246542   9.409   2.433   8.682
15434WAT      O46543   2.632   9.292   2.220
15434WAT     H146544   2.650   9.380   2.263
15434WAT     H246545   2.711   9.264   2.165
15435WAT      O46546   2.909   9.372   6.456
15435WAT     H146547   2.995   9.362   6.406
15435WAT     H246548   2.918   9.330   6.546
15436WAT      O46549   2.129   7.093   8.355
15436WAT     H146550   2.039   7.050   8.363
15436WAT     H246551   2.118   7.188   8.326
15437WAT      O46552   0.002   6.252   9.548
15437WAT     H146553   0.036   6.197   9.472
15437WAT     H246554   0.065   6.328   9.566
15438WAT      O46555   7.929   8.125   6.240
15438WAT     H146556   7.919   8.099   6.336
15438WAT     H246557   7.984   8.209   6.233
15439WAT      O46558   4.960   0.678   0.694
15439WAT     H146559   4.988   0.592   0.738
15439WAT     H246560   4.972   0.670   0.595
15440WAT      O46561   0.592   0.026   1.978
15440WAT     H146562   0.622  -0.004   2.068
15440WAT     H246563   0.541   0.112   1.986
15441WAT      O46564   4.029   7.945   1.633
15441WAT     H146565   4.006   7.888   1.555
15441WAT     H246566   3.958   8.013   1.648
15442WAT      O46567   4.752   8.426   4.325
15442WAT     H146568   4.837   8.397   4.368
15442WAT     H246569   4.710   8.498   4.380
15443WAT      O46570   8.723   1.771   0.387
15443WAT     H146571   8.634   1.759   0.431
15443WAT     H246572   8.771   1.683   0.383
15444WAT      O46573   6.901   5.527   2.624
15444WAT     H146574   6.911   5.581   2.540
15444WAT     H246575   6.839   5.451   2.608
15445WAT      O46576   8.428   3.995   3.498
15445WAT     H146577   8.415   4.024   3.403
15445WAT     H246578   8.426   4.076   3.557
15446WAT      O46579   8.030   3.494   5.414
15446WAT     H146580   8.084   3.411   5.426
15446WAT     H246581   8.090   3.571   5.393
15447WAT      O46582   2.748   8.594   5.096
15447WAT     H146583   2.800   8.680   5.106
15447WAT     H246584   2.811   8.517   5.103
15448WAT      O46585   2.093   8.695   1.511
15448WAT     H146586   2.104   8.596   1.522
15448WAT     H246587   2.183   8.737   1.501
15449WAT      O46588   2.206   4.134   2.135
15449WAT     H146589   2.112   4.157   2.113
15449WAT     H246590   2.208   4.052   2.193
15450WAT      O46591   2.581   8.819   1.212
15450WAT     H146592   2.510   8.862   1.155
15450WAT     H246593   2.572   8.720   1.206
15451WAT      O46594   1.491   5.821   5.856
15451WAT     H146595   1.567   5.882   5.881
15451WAT     H246596   1.526   5.728   5.843
15452WAT      O46597   9.330   1.066   4.237
15452WAT     H146598   9.371   1.089   4.149
15452WAT     H246599   9.231   1.069   4.230
15453WAT      O46600   8.914   0.229   7.533
15453WAT     H146601   8.981   0.280   7.479
15453WAT     H246602   8.951   0.138   7.554
15454WAT      O46603   3.464   8.792   6.892
15454WAT     H146604   3.519   8.762   6.970
15454WAT     H246605   3.398   8.720   6.868
15455WAT      O46606   2.403   8.795   5.785
15455WAT     H146607   2.386   8.726   5.714
15455WAT     H246608   2.499   8.823   5.782
15456WAT      O46609   7.071   7.530   2.815
15456WAT     H146610   6.976   7.500   2.805
15456WAT     H246611   7.131   7.451   2.815
15457WAT      O46612   9.350   5.560   5.774
15457WAT     H146613   9.445   5.591   5.771
15457WAT     H246614   9.292   5.625   5.725
15458WAT      O46615   3.699   4.774   6.722
15458WAT     H146616   3.645   4.814   6.796
15458WAT     H246617   3.700   4.674   6.732
15459WAT      O46618   7.232   9.718   1.324
15459WAT     H146619   7.306   9.713   1.391
15459WAT     H246620   7.221   9.629   1.279
15460WAT      O46621   5.670   5.290   1.901
15460WAT     H146622   5.695   5.211   1.845
15460WAT     H246623   5.573   5.310   1.888
15461WAT      O46624   6.736   9.629   1.180
15461WAT     H146625   6.802   9.555   1.166
15461WAT     H246626   6.766   9.687   1.255
15462WAT      O46627   0.070   8.084   4.395
15462WAT     H146628   0.003   8.055   4.464
15462WAT     H246629   0.026   8.144   4.328
15463WAT      O46630   9.764   2.852   0.559
15463WAT     H146631   9.837   2.910   0.524
15463WAT     H246632   9.796   2.757   0.561
15464WAT      O46633   7.755   0.277   6.228
15464WAT     H146634   7.829   0.234   6.280
15464WAT     H246635   7.667   0.242   6.259
15465WAT      O46636   4.605   9.329   8.058
15465WAT     H146637   4.634   9.404   7.998
15465WAT     H246638   4.506   9.335   8.073
15466WAT      O46639   8.195   4.198   2.567
15466WAT     H146640   8.198   4.201   2.667
15466WAT     H246641   8.226   4.108   2.536
15467WAT      O46642   3.485   3.900   9.808
15467WAT     H146643   3.430   3.826   9.848
15467WAT     H246644   3.578   3.895   9.843
15468WAT      O46645   9.351   2.593   6.031
15468WAT     H146646   9.430   2.626   6.083
15468WAT     H246647   9.302   2.525   6.084
15469WAT      O46648   5.937   5.439   0.292
15469WAT     H146649   5.923   5.378   0.215
15469WAT     H246650   5.860   5.431   0.356
15470WAT      O46651   5.928   0.257   1.725
15470WAT     H146652   5.954   0.314   1.646
15470WAT     H246653   5.869   0.310   1.785
15471WAT      O46654   4.446   6.889   9.543
15471WAT     H146655   4.382   6.963   9.522
15471WAT     H246656   4.440   6.819   9.473
15472WAT      O46657   1.010   0.986   2.271
15472WAT     H146658   0.993   1.021   2.363
15472WAT     H246659   1.013   1.062   2.206
15473WAT      O46660   5.891   7.971   2.261
15473WAT     H146661   5.904   8.066   2.289
15473WAT     H246662   5.977   7.921   2.273
15474WAT      O46663   4.313   2.302   0.803
15474WAT     H146664   4.221   2.309   0.842
15474WAT     H246665   4.307   2.270   0.708
15475WAT      O46666   9.418   5.836   9.222
15475WAT     H146667   9.436   5.739   9.209
15475WAT     H246668   9.505   5.886   9.231
15476WAT      O46669   2.537   9.682   7.422
15476WAT     H146670   2.508   9.589   7.396
15476WAT     H246671   2.531   9.742   7.342
15477WAT      O46672   9.211   7.925   4.321
15477WAT     H146673   9.115   7.913   4.298
15477WAT     H246674   9.260   7.964   4.243
15478WAT      O46675   8.829   4.449   0.688
15478WAT     H146676   8.889   4.371   0.675
15478WAT     H246677   8.803   4.487   0.599
15479WAT      O46678   4.240   3.931   5.678
15479WAT     H146679   4.232   3.831   5.676
15479WAT     H246680   4.153   3.972   5.651
15480WAT      O46681   1.616   0.430   3.063
15480WAT     H146682   1.576   0.475   2.984
15480WAT     H246683   1.713   0.411   3.046
15481WAT      O46684   6.177   3.909   1.131
15481WAT     H146685   6.267   3.945   1.154
15481WAT     H246686   6.136   3.964   1.058
15482WAT      O46687   9.227   6.608   5.526
15482WAT     H146688   9.216   6.707   5.535
15482WAT     H246689   9.272   6.571   5.608
15483WAT      O46690   4.872   0.109   2.625
15483WAT     H146691   4.873   0.170   2.546
15483WAT     H246692   4.914   0.156   2.703
15484WAT      O46693   7.318   8.325   9.056
15484WAT     H146694   7.345   8.313   8.961
15484WAT     H246695   7.221   8.350   9.061
15485WAT      O46696   9.009   2.180   5.813
15485WAT     H146697   9.085   2.244   5.805
15485WAT     H246698   8.941   2.200   5.743
15486WAT      O46699   4.284   7.962   9.323
15486WAT     H146700   4.250   7.916   9.241
15486WAT     H246701   4.384   7.966   9.319
15487WAT      O46702   5.113   0.325   1.631
15487WAT     H146703   5.162   0.252   1.679
15487WAT     H246704   5.097   0.298   1.536
15488WAT      O46705   1.066   5.731   5.112
15488WAT     H146706   1.082   5.661   5.182
15488WAT     H246707   1.109   5.816   5.139
15489WAT      O46708   7.857   0.627   1.753
15489WAT     H146709   7.886   0.621   1.848
15489WAT     H246710   7.919   0.572   1.696
15490WAT      O46711   6.055   7.171   4.607
15490WAT     H146712   6.013   7.257   4.577
15490WAT     H246713   6.041   7.101   4.538
15491WAT      O46714   1.144   2.889   1.081
15491WAT     H146715   1.108   2.803   1.046
15491WAT     H246716   1.107   2.906   1.173
15492WAT      O46717   1.250   7.658   1.296
15492WAT     H146718   1.329   7.630   1.242
15492WAT     H246719   1.258   7.755   1.319
15493WAT      O46720   0.630   0.993   4.267
15493WAT     H146721   0.610   0.920   4.333
15493WAT     H246722   0.655   0.953   4.179
15494WAT      O46723   1.512   7.733   6.018
15494WAT     H146724   1.473   7.763   6.105
15494WAT     H246725   1.559   7.810   5.975
15495WAT      O46726   5.910   4.075   9.110
15495WAT     H146727   5.825   4.054   9.158
15495WAT     H246728   5.927   4.006   9.040
15496WAT      O46729   4.833   3.087   4.573
15496WAT     H146730   4.759   3.021   4.559
15496WAT     H246731   4.808   3.174   4.532
15497WAT      O46732   1.553   9.303   1.757
15497WAT     H146733   1.541   9.207   1.784
15497WAT     H246734   1.615   9.348   1.821
15498WAT      O46735   0.228   1.703   9.183
15498WAT     H146736   0.269   1.772   9.124
15498WAT     H246737   0.222   1.738   9.276
15499WAT      O46738   8.967   1.283   1.180
15499WAT     H146739   8.939   1.214   1.247
15499WAT     H246740   8.891   1.303   1.119
15500WAT      O46741   6.962   3.242   3.298
15500WAT     H146742   7.028   3.282   3.362
15500WAT     H246743   6.987   3.146   3.281
15501WAT      O46744   1.404   2.877   3.785
15501WAT     H146745   1.403   2.827   3.699
15501WAT     H246746   1.346   2.830   3.852
15502WAT      O46747   0.594   5.488   3.091
15502WAT     H146748   0.532   5.409   3.097
15502WAT     H246749   0.540   5.572   3.085
15503WAT      O46750   8.137   8.894   8.066
15503WAT     H146751   8.127   8.986   8.105
15503WAT     H246752   8.177   8.901   7.974
15504WAT      O46753   5.148   6.698   6.561
15504WAT     H146754   5.230   6.755   6.560
15504WAT     H246755   5.083   6.734   6.627
15505WAT      O46756   5.099   8.092   9.073
15505WAT     H146757   5.077   8.136   9.161
15505WAT     H246758   5.170   8.145   9.026
15506WAT      O46759   0.270   7.787   1.301
15506WAT     H146760   0.350   7.740   1.336
15506WAT     H246761   0.237   7.742   1.218
15507WAT      O46762   1.070   6.930   0.324
15507WAT     H146763   1.056   6.989   0.404
15507WAT     H246764   1.095   6.986   0.245
15508WAT      O46765   2.111   1.935   9.388
15508WAT     H146766   2.051   1.855   9.383
15508WAT     H246767   2.114   1.980   9.299
15509WAT      O46768   6.248   9.356   1.761
15509WAT     H146769   6.315   9.429   1.746
15509WAT     H246770   6.276   9.274   1.713
15510WAT      O46771   8.956   7.945   0.441
15510WAT     H146772   8.990   7.984   0.526
15510WAT     H246773   9.034   7.924   0.381
15511WAT      O46774   0.273   6.972   5.587
15511WAT     H146775   0.368   6.943   5.600
15511WAT     H246776   0.250   6.965   5.490
15512WAT      O46777   7.610   2.387   8.783
15512WAT     H146778   7.559   2.308   8.820
15512WAT     H246779   7.708   2.370   8.792
15513WAT      O46780   3.654   2.114   1.491
15513WAT     H146781   3.563   2.157   1.488
15513WAT     H246782   3.671   2.079   1.583
15514WAT      O46783   9.422   2.140   3.174
15514WAT     H146784   9.407   2.219   3.115
15514WAT     H246785   9.447   2.061   3.118
15515WAT      O46786   1.064   1.359   0.581
15515WAT     H146787   0.967   1.346   0.562
15515WAT     H246788   1.094   1.292   0.650
15516WAT      O46789   7.945   2.848   1.481
15516WAT     H146790   8.015   2.812   1.543
15516WAT     H246791   7.988   2.874   1.394
15517WAT      O46792   4.561   6.470   4.952
15517WAT     H146793   4.616   6.386   4.955
15517WAT     H246794   4.536   6.497   5.044
15518WAT      O46795   4.906   1.714   4.112
15518WAT     H146796   4.888   1.616   4.104
15518WAT     H246797   4.986   1.738   4.057
15519WAT      O46798   4.010   4.919   4.510
15519WAT     H146799   4.050   4.953   4.425
15519WAT     H246800   3.937   4.854   4.489
15520WAT      O46801   6.897   7.873   5.830
15520WAT     H146802   6.934   7.877   5.922
15520WAT     H246803   6.930   7.790   5.784
15521WAT      O46804   7.638   2.891   8.323
15521WAT     H146805   7.666   2.820   8.387
15521WAT     H246806   7.689   2.881   8.238
15522WAT      O46807   5.259   3.648   7.096
15522WAT     H146808   5.324   3.601   7.156
15522WAT     H246809   5.310   3.704   7.030
15523WAT      O46810   1.030   7.127   0.511
15523WAT     H146811   1.098   7.149   0.581
15523WAT     H246812   0.990   7.212   0.476
15524WAT      O46813   1.274   5.487   3.240
15524WAT     H146814   1.338   5.444   3.303
15524WAT     H246815   1.300   5.466   3.145
15525WAT      O46816   7.544   0.106   8.389
15525WAT     H146817   7.509   0.019   8.355
15525WAT     H246818   7.481   0.180   8.366
15526WAT      O46819   7.452   5.061   1.110
15526WAT     H146820   7.525   5.030   1.049
15526WAT     H246821   7.492   5.110   1.187
15527WAT      O46822   4.675   3.141   5.642
15527WAT     H146823   4.628   3.053   5.649
15527WAT     H246824   4.677   3.170   5.547
15528WAT      O46825   1.683   2.196   2.486
15528WAT     H146826   1.710   2.244   2.570
15528WAT     H246827   1.585   2.179   2.487
15529WAT      O46828   7.847   4.464   0.806
15529WAT     H146829   7.810   4.520   0.732
15529WAT     H246830   7.869   4.523   0.884
15530WAT      O46831   5.670   3.118   4.389
15530WAT     H146832   5.684   3.020   4.404
15530WAT     H246833   5.723   3.170   4.456
15531WAT      O46834   7.307   3.821   8.102
15531WAT     H146835   7.229   3.769   8.137
15531WAT     H246836   7.333   3.787   8.012
15532WAT      O46837   8.749   1.245   2.248
15532WAT     H146838   8.690   1.224   2.326
15532WAT     H246839   8.711   1.322   2.197
15533WAT      O46840   0.101   0.335   9.050
15533WAT     H146841   0.043   0.257   9.074
15533WAT     H246842   0.059   0.419   9.083
15534WAT      O46843   9.029   8.850   7.760
15534WAT     H146844   9.117   8.824   7.720
15534WAT     H246845   9.043   8.923   7.827
15535WAT      O46846   6.284   1.358   0.708
15535WAT     H146847   6.378   1.385   0.724
15535WAT     H246848   6.282   1.276   0.650
15536WAT      O46849   5.372   7.960   4.173
15536WAT     H146850   5.385   7.947   4.272
15536WAT     H246851   5.365   8.057   4.153
15537WAT      O46852   4.145   5.109   5.517
15537WAT     H146853   4.219   5.159   5.563
15537WAT     H246854   4.160   5.108   5.419
15538WAT      O46855   7.816   8.934   9.658
15538WAT     H146856   7.910   8.942   9.691
15538WAT     H246857   7.755   8.923   9.736
15539WAT      O46858   9.465   8.086   4.705
15539WAT     H146859   9.497   8.162   4.763
15539WAT     H246860   9.384   8.115   4.654
15540WAT      O46861   9.483   5.963   8.074
15540WAT     H146862   9.478   5.866   8.047
15540WAT     H246863   9.563   5.977   8.132
15541WAT      O46864   0.787   3.458   4.773
15541WAT     H146865   0.713   3.521   4.796
15541WAT     H246866   0.853   3.456   4.849
15542WAT      O46867   2.954   2.994   7.476
15542WAT     H146868   2.912   3.073   7.430
15542WAT     H246869   2.921   2.990   7.570
15543WAT      O46870   6.229   5.607   4.409
15543WAT     H146871   6.276   5.538   4.354
15543WAT     H246872   6.143   5.569   4.443
15544WAT      O46873   3.039   3.801   1.004
15544WAT     H146874   2.993   3.799   1.093
15544WAT     H246875   3.020   3.889   0.959
15545WAT      O46876   4.701   2.522   5.551
15545WAT     H146877   4.749   2.459   5.491
15545WAT     H246878   4.728   2.616   5.529
15546WAT      O46879   5.441   6.498   1.043
15546WAT     H146880   5.344   6.506   1.064
15546WAT     H246881   5.483   6.432   1.107
15547WAT      O46882   9.497   3.198   1.534
15547WAT     H146883   9.573   3.134   1.522
15547WAT     H246884   9.458   3.221   1.445
15548WAT      O46885   0.981   4.551   1.715
15548WAT     H146886   1.032   4.587   1.636
15548WAT     H246887   1.039   4.487   1.765
15549WAT      O46888   1.181   7.738   8.484
15549WAT     H146889   1.097   7.738   8.539
15549WAT     H246890   1.237   7.659   8.509
15550WAT      O46891   2.021   8.719   5.593
15550WAT     H146892   2.006   8.792   5.660
15550WAT     H246893   1.932   8.683   5.563
15551WAT      O46894   6.742   1.310   0.209
15551WAT     H146895   6.660   1.304   0.265
15551WAT     H246896   6.724   1.368   0.129
15552WAT      O46897   1.730   6.894   0.889
15552WAT     H146898   1.808   6.873   0.947
15552WAT     H246899   1.698   6.811   0.844
15553WAT      O46900   8.819   8.708   4.497
15553WAT     H146901   8.785   8.674   4.585
15553WAT     H246902   8.747   8.699   4.428
15554WAT      O46903   5.412   9.748   0.434
15554WAT     H146904   5.482   9.686   0.400
15554WAT     H246905   5.372   9.798   0.358
15555WAT      O46906   6.756   4.846   2.428
15555WAT     H146907   6.776   4.757   2.470
15555WAT     H246908   6.795   4.848   2.336
15556WAT      O46909   8.308   0.725   3.130
15556WAT     H146910   8.279   0.747   3.223
15556WAT     H246911   8.390   0.668   3.133
15557WAT      O46912   7.466   3.332   8.913
15557WAT     H146913   7.431   3.401   8.976
15557WAT     H246914   7.559   3.306   8.940
15558WAT      O46915   1.459   8.697   6.330
15558WAT     H146916   1.402   8.658   6.402
15558WAT     H246917   1.411   8.774   6.287
15559WAT      O46918   2.686   8.493   2.255
15559WAT     H146919   2.662   8.494   2.158
15559WAT     H246920   2.785   8.480   2.264
15560WAT      O46921   5.451   8.175   2.901
15560WAT     H146922   5.404   8.130   2.825
15560WAT     H246923   5.489   8.262   2.869
15561WAT      O46924   1.910   2.413   6.187
15561WAT     H146925   1.971   2.492   6.177
15561WAT     H246926   1.933   2.345   6.118
15562WAT      O46927   0.064   2.700   0.816
15562WAT     H146928   0.035   2.621   0.871
15562WAT     H246929   0.153   2.680   0.774
15563WAT      O46930   4.068   2.266   8.218
15563WAT     H146931   4.137   2.214   8.166
15563WAT     H246932   3.994   2.205   8.245
15564WAT      O46933   7.040   5.246   4.673
15564WAT     H146934   7.062   5.303   4.752
15564WAT     H246935   7.087   5.158   4.682
15565WAT      O46936   6.590   7.195   0.654
15565WAT     H146937   6.555   7.170   0.563
15565WAT     H246938   6.646   7.277   0.646
15566WAT      O46939   0.780   0.647   8.412
15566WAT     H146940   0.852   0.660   8.480
15566WAT     H246941   0.734   0.559   8.429
15567WAT      O46942   5.991   1.674   0.847
15567WAT     H146943   6.057   1.661   0.921
15567WAT     H246944   6.004   1.603   0.778
15568WAT      O46945   0.720   3.824   0.599
15568WAT     H146946   0.695   3.788   0.688
15568WAT     H246947   0.718   3.751   0.531
15569WAT      O46948   9.242   9.432   3.710
15569WAT     H146949   9.212   9.416   3.804
15569WAT     H246950   9.291   9.519   3.705
15570WAT      O46951   4.230   9.382   0.472
15570WAT     H146952   4.209   9.390   0.569
15570WAT     H246953   4.329   9.392   0.459
15571WAT      O46954   3.760   6.534   0.723
15571WAT     H146955   3.854   6.531   0.689
15571WAT     H246956   3.760   6.538   0.823
15572WAT      O46957   5.459   8.630   2.370
15572WAT     H146958   5.509   8.577   2.440
15572WAT     H246959   5.361   8.626   2.389
15573WAT      O46960   5.341   3.732   0.732
15573WAT     H146961   5.310   3.762   0.823
15573WAT     H246962   5.364   3.634   0.736
15574WAT      O46963   6.647   2.314   4.468
15574WAT     H146964   6.696   2.366   4.398
15574WAT     H246965   6.671   2.217   4.459
15575WAT      O46966   5.570   8.800   5.087
15575WAT     H146967   5.570   8.721   5.147
15575WAT     H246968   5.625   8.873   5.127
15576WAT      O46969   2.102   7.366   9.817
15576WAT     H146970   2.149   7.387   9.903
15576WAT     H246971   2.151   7.294   9.768
15577WAT      O46972   0.054   8.005   7.178
15577WAT     H146973   0.049   7.963   7.268
15577WAT     H246974   0.113   7.949   7.119
15578WAT      O46975   8.475   5.741   2.240
15578WAT     H146976   8.392   5.691   2.214
15578WAT     H246977   8.466   5.837   2.214
15579WAT      O46978   4.722   4.658   8.049
15579WAT     H146979   4.656   4.733   8.057
15579WAT     H246980   4.673   4.571   8.047
15580WAT      O46981   1.426   4.369   6.532
15580WAT     H146982   1.341   4.327   6.499
15580WAT     H246983   1.404   4.433   6.607
15581WAT      O46984   2.530   8.698   7.929
15581WAT     H146985   2.578   8.773   7.885
15581WAT     H246986   2.588   8.658   8.000
15582WAT      O46987   8.622   6.237   0.123
15582WAT     H146988   8.626   6.196   0.214
15582WAT     H246989   8.529   6.269   0.105
15583WAT      O46990   0.022   5.524   7.239
15583WAT     H146991  -0.025   5.494   7.321
15583WAT     H246992  -0.035   5.506   7.159
15584WAT      O46993   4.525   3.460   2.132
15584WAT     H146994   4.535   3.538   2.193
15584WAT     H246995   4.534   3.375   2.185
15585WAT      O46996   6.838   4.941   1.876
15585WAT     H146997   6.761   4.986   1.922
15585WAT     H246998   6.872   4.867   1.933
15586WAT      O46999   4.337   8.167   6.364
15586WAT     H147000   4.353   8.082   6.313
15586WAT     H247001   4.251   8.208   6.335
15587WAT      O47002   1.453   1.346   3.406
15587WAT     H147003   1.385   1.338   3.479
15587WAT     H247004   1.498   1.258   3.392
15588WAT      O47005   3.051   5.086   0.714
15588WAT     H147006   2.984   5.129   0.773
15588WAT     H247007   3.068   4.992   0.744
15589WAT      O47008   5.723   1.352   7.744
15589WAT     H147009   5.749   1.279   7.680
15589WAT     H247010   5.792   1.359   7.817
15590WAT      O47011   3.220   7.422   7.879
15590WAT     H147012   3.122   7.411   7.896
15590WAT     H247013   3.235   7.506   7.826
15591WAT      O47014   3.304   6.997   2.942
15591WAT     H147015   3.367   7.032   2.871
15591WAT     H247016   3.210   7.001   2.907
15592WAT      O47017   7.360   1.202   9.061
15592WAT     H147018   7.276   1.153   9.084
15592WAT     H247019   7.338   1.286   9.013
15593WAT      O47020   0.785   7.624   3.009
15593WAT     H147021   0.731   7.563   3.067
15593WAT     H247022   0.798   7.712   3.055
15594WAT      O47023   1.888   1.934   1.872
15594WAT     H147024   1.802   1.922   1.823
15594WAT     H247025   1.870   1.971   1.963
15595WAT      O47026   7.723   8.468   5.778
15595WAT     H147027   7.747   8.484   5.682
15595WAT     H247028   7.795   8.416   5.823
15596WAT      O47029   0.348   6.656   3.111
15596WAT     H147030   0.380   6.561   3.111
15596WAT     H247031   0.256   6.661   3.150
15597WAT      O47032   9.578   6.139   7.516
15597WAT     H147033   9.568   6.189   7.601
15597WAT     H247034   9.673   6.144   7.485
15598WAT      O47035   3.612   2.507   6.165
15598WAT     H147036   3.693   2.525   6.221
15598WAT     H247037   3.589   2.410   6.170
15599WAT      O47038   6.450   1.924   9.207
15599WAT     H147039   6.460   1.918   9.307
15599WAT     H247040   6.538   1.903   9.164
15600WAT      O47041   8.664   7.993   6.418
15600WAT     H147042   8.630   7.903   6.446
15600WAT     H247043   8.613   8.064   6.466
15601WAT      O47044   5.355   2.338   4.647
15601WAT     H147045   5.281   2.279   4.678
15601WAT     H247046   5.415   2.287   4.585
15602WAT      O47047   9.136   8.811   5.671
15602WAT     H147048   9.232   8.803   5.694
15602WAT     H247049   9.111   8.740   5.605
15603WAT      O47050   0.755   7.857   5.544
15603WAT     H147051   0.760   7.781   5.609
15603WAT     H247052   0.730   7.821   5.454
15604WAT      O47053   2.669   3.863   2.212
15604WAT     H147054   2.665   3.858   2.312
15604WAT     H247055   2.586   3.906   2.177
15605WAT      O47056   1.527   6.470   2.458
15605WAT     H147057   1.490   6.440   2.370
15605WAT     H247058   1.511   6.568   2.469
15606WAT      O47059   4.130   3.339   1.441
15606WAT     H147060   4.057   3.324   1.508
15606WAT     H247061   4.130   3.435   1.413
15607WAT      O47062   4.124   1.895   2.227
15607WAT     H147063   4.150   1.927   2.136
15607WAT     H247064   4.126   1.795   2.229
15608WAT      O47065   0.534   9.605   7.344
15608WAT     H147066   0.607   9.604   7.412
15608WAT     H247067   0.523   9.697   7.307
15609WAT      O47068   6.329   5.098   4.821
15609WAT     H147069   6.344   5.058   4.730
15609WAT     H247070   6.417   5.110   4.867
15610WAT      O47071   3.369   6.490   7.294
15610WAT     H147072   3.438   6.562   7.280
15610WAT     H247073   3.315   6.511   7.376
15611WAT      O47074   2.692   5.517   8.198
15611WAT     H147075   2.713   5.615   8.196
15611WAT     H247076   2.633   5.498   8.276
15612WAT      O47077   5.855   6.174   0.216
15612WAT     H147078   5.792   6.101   0.244
15612WAT     H247079   5.884   6.158   0.122
15613WAT      O47080   3.422   1.351   3.577
15613WAT     H147081   3.328   1.385   3.584
15613WAT     H247082   3.427   1.260   3.617
15614WAT      O47083   9.557   1.378   1.966
15614WAT     H147084   9.622   1.410   1.898
15614WAT     H247085   9.491   1.316   1.924
15615WAT      O47086   6.345   5.219   3.374
15615WAT     H147087   6.269   5.237   3.436
15615WAT     H247088   6.371   5.304   3.327
15616WAT      O47089   4.923   0.751   4.771
15616WAT     H147090   5.020   0.756   4.746
15616WAT     H247091   4.894   0.840   4.806
15617WAT      O47092   6.516   6.306   1.028
15617WAT     H147093   6.586   6.237   1.008
15617WAT     H247094   6.426   6.263   1.028
15618WAT      O47095   3.743   6.400   2.498
15618WAT     H147096   3.746   6.304   2.470
15618WAT     H247097   3.648   6.429   2.509
15619WAT      O47098   4.229   6.767   6.114
15619WAT     H147099   4.132   6.793   6.118
15619WAT     H247100   4.250   6.733   6.023
15620WAT      O47101   6.399   3.958   0.737
15620WAT     H147102   6.344   4.007   0.804
15620WAT     H247103   6.415   4.016   0.657
15621WAT      O47104   8.171   9.453   5.391
15621WAT     H147105   8.255   9.446   5.445
15621WAT     H247106   8.128   9.363   5.385
15622WAT      O47107   5.137   1.311   1.840
15622WAT     H147108   5.146   1.399   1.887
15622WAT     H247109   5.155   1.237   1.903
15623WAT      O47110   0.591   1.752   8.705
15623WAT     H147111   0.666   1.790   8.650
15623WAT     H247112   0.505   1.792   8.675
15624WAT      O47113   1.227   1.817   4.427
15624WAT     H147114   1.324   1.794   4.419
15624WAT     H247115   1.176   1.773   4.352
15625WAT      O47116   0.013   5.891   7.695
15625WAT     H147117   0.025   5.896   7.596
15625WAT     H247118  -0.060   5.954   7.723
15626WAT      O47119   3.559   5.540   4.923
15626WAT     H147120   3.633   5.495   4.972
15626WAT     H247121   3.589   5.631   4.893
15627WAT      O47122   8.135   3.809   1.672
15627WAT     H147123   8.039   3.838   1.676
15627WAT     H247124   8.169   3.820   1.579
15628WAT      O47125   7.550   4.213   6.898
15628WAT     H147126   7.502   4.143   6.844
15628WAT     H247127   7.637   4.235   6.854
15629WAT      O47128   7.822   6.900   9.181
15629WAT     H147129   7.784   6.823   9.232
15629WAT     H247130   7.889   6.867   9.114
15630WAT      O47131   0.190   4.747   9.221
15630WAT     H147132   0.237   4.699   9.147
15630WAT     H247133   0.191   4.846   9.203
15631WAT      O47134   3.700   0.362   1.571
15631WAT     H147135   3.728   0.458   1.580
15631WAT     H247136   3.613   0.357   1.523
15632WAT      O47137   9.864   8.243   6.501
15632WAT     H147138   9.824   8.179   6.436
15632WAT     H247139   9.799   8.317   6.520
15633WAT      O47140   2.137   6.416   1.818
15633WAT     H147141   2.074   6.362   1.762
15633WAT     H247142   2.199   6.355   1.867
15634WAT      O47143   2.030   1.289   7.016
15634WAT     H147144   2.032   1.376   7.065
15634WAT     H247145   2.037   1.214   7.082
15635WAT      O47146   3.170   2.927   8.054
15635WAT     H147147   3.123   3.014   8.040
15635WAT     H247148   3.264   2.934   8.021
15636WAT      O47149   3.555   3.311   2.551
15636WAT     H147150   3.496   3.294   2.630
15636WAT     H247151   3.544   3.238   2.484
15637WAT      O47152   6.092   0.531   3.987
15637WAT     H147153   6.026   0.605   3.994
15637WAT     H247154   6.179   0.559   4.027
15638WAT      O47155   3.835   8.479   7.653
15638WAT     H147156   3.899   8.543   7.610
15638WAT     H247157   3.877   8.441   7.735
15639WAT      O47158   0.855   2.303   1.897
15639WAT     H147159   0.755   2.298   1.896
15639WAT     H247160   0.885   2.348   1.981
15640WAT      O47161   3.857   8.096   0.730
15640WAT     H147162   3.846   8.186   0.687
15640WAT     H247163   3.835   8.025   0.664
15641WAT      O47164   3.266   5.537   5.518
15641WAT     H147165   3.188   5.596   5.541
15641WAT     H247166   3.259   5.451   5.568
15642WAT      O47167   6.072   9.195   6.095
15642WAT     H147168   6.086   9.244   6.008
15642WAT     H247169   6.009   9.248   6.152
15643WAT      O47170   1.633   9.112   5.470
15643WAT     H147171   1.621   9.185   5.538
15643WAT     H247172   1.649   9.153   5.380
15644WAT      O47173   5.813   1.244   9.264
15644WAT     H147174   5.815   1.334   9.308
15644WAT     H247175   5.906   1.208   9.258
15645WAT      O47176   5.327   1.261   4.037
15645WAT     H147177   5.416   1.225   4.007
15645WAT     H247178   5.270   1.279   3.957
15646WAT      O47179   0.614   4.866   7.729
15646WAT     H147180   0.546   4.865   7.802
15646WAT     H247181   0.662   4.779   7.726
15647WAT      O47182   3.784   9.820   3.606
15647WAT     H147183   3.765   9.817   3.704
15647WAT     H247184   3.716   9.764   3.558
15648WAT      O47185   3.161   0.665   7.909
15648WAT     H147186   3.239   0.619   7.949
15648WAT     H247187   3.077   0.616   7.933
15649WAT      O47188   5.274   8.581   1.669
15649WAT     H147189   5.280   8.680   1.659
15649WAT     H247190   5.362   8.545   1.700
15650WAT      O47191   3.262   0.787   7.428
15650WAT     H147192   3.258   0.741   7.516
15650WAT     H247193   3.336   0.747   7.373
15651WAT      O47194   4.341   4.143   3.766
15651WAT     H147195   4.267   4.123   3.702
15651WAT     H247196   4.302   4.186   3.848
15652WAT      O47197   1.696   7.206   6.962
15652WAT     H147198   1.750   7.287   6.980
15652WAT     H247199   1.600   7.231   6.951
15653WAT      O47200   9.463   9.589   2.349
15653WAT     H147201   9.426   9.651   2.418
15653WAT     H247202   9.561   9.578   2.364
15654WAT      O47203   4.418   2.874   2.867
15654WAT     H147204   4.409   2.907   2.961
15654WAT     H247205   4.440   2.951   2.807
15655WAT      O47206   8.719   9.365   5.204
15655WAT     H147207   8.746   9.456   5.236
15655WAT     H247208   8.799   9.305   5.200
15656WAT      O47209   9.866   7.958   4.723
15656WAT     H147210   9.958   7.993   4.739
15656WAT     H247211   9.817   7.952   4.810
15657WAT      O47212   9.477   2.971   9.349
15657WAT     H147213   9.401   2.973   9.414
15657WAT     H247214   9.462   3.040   9.278
15658WAT      O47215   8.575   7.651   6.069
15658WAT     H147216   8.553   7.663   6.166
15658WAT     H247217   8.516   7.709   6.014
15659WAT      O47218   1.966   2.469   9.365
15659WAT     H147219   2.037   2.518   9.314
15659WAT     H247220   2.009   2.413   9.435
15660WAT      O47221   6.703   2.868   8.415
15660WAT     H147222   6.760   2.950   8.419
15660WAT     H247223   6.762   2.788   8.405
15661WAT      O47224   4.112   6.531   9.012
15661WAT     H147225   4.206   6.537   8.979
15661WAT     H247226   4.060   6.610   8.979
15662WAT      O47227   8.528   8.881   6.033
15662WAT     H147228   8.612   8.882   5.978
15662WAT     H247229   8.510   8.789   6.066
15663WAT      O47230   3.759   5.680   6.987
15663WAT     H147231   3.789   5.737   7.062
15663WAT     H247232   3.817   5.696   6.907
15664WAT      O47233   2.834   1.009   7.158
15664WAT     H147234   2.875   1.100   7.160
15664WAT     H247235   2.735   1.017   7.152
15665WAT      O47236   9.469   7.662   4.701
15665WAT     H147237   9.439   7.708   4.617
15665WAT     H247238   9.390   7.623   4.748
15666WAT      O47239   2.243   2.501   3.733
15666WAT     H147240   2.188   2.464   3.808
15666WAT     H247241   2.189   2.501   3.649
15667WAT      O47242   7.330   2.729   8.242
15667WAT     H147243   7.259   2.775   8.296
15667WAT     H247244   7.390   2.676   8.302
15668WAT      O47245   2.506   1.770   5.419
15668WAT     H147246   2.475   1.859   5.451
15668WAT     H247247   2.598   1.752   5.455
15669WAT      O47248   8.510   2.467   6.800
15669WAT     H147249   8.459   2.391   6.840
15669WAT     H247250   8.512   2.457   6.700
15670WAT      O47251   6.350   3.707   2.983
15670WAT     H147252   6.357   3.612   3.014
15670WAT     H247253   6.285   3.713   2.908
15671WAT      O47254   2.407   3.022   7.822
15671WAT     H147255   2.473   2.948   7.839
15671WAT     H247256   2.434   3.071   7.739
15672WAT      O47257   9.247   3.335   8.874
15672WAT     H147258   9.235   3.329   8.973
15672WAT     H247259   9.297   3.254   8.842
15673WAT      O47260   7.698   6.009   0.301
15673WAT     H147261   7.661   6.065   0.226
15673WAT     H247262   7.639   6.017   0.381
15674WAT      O47263   3.782   2.137   2.442
15674WAT     H147264   3.706   2.089   2.486
15674WAT     H247265   3.811   2.214   2.499
15675WAT      O47266   9.469   2.663   0.562
15675WAT     H147267   9.427   2.699   0.479
15675WAT     H247268   9.501   2.570   0.545
15676WAT      O47269   1.846   9.341   8.434
15676WAT     H147270   1.873   9.341   8.530
15676WAT     H247271   1.821   9.433   8.406
15677WAT      O47272   7.474   0.322   0.615
15677WAT     H147273   7.504   0.391   0.549
15677WAT     H247274   7.544   0.251   0.624
15678WAT      O47275   1.899   6.096   0.166
15678WAT     H147276   1.964   6.172   0.165
15678WAT     H247277   1.811   6.128   0.202
15679WAT      O47278   3.179   4.255   9.530
15679WAT     H147279   3.212   4.346   9.556
15679WAT     H247280   3.256   4.199   9.501
15680WAT      O47281   1.869   6.586   7.848
15680WAT     H147282   1.831   6.539   7.927
15680WAT     H247283   1.967   6.569   7.843
15681WAT      O47284   2.820   3.518   3.681
15681WAT     H147285   2.761   3.584   3.728
15681WAT     H247286   2.795   3.425   3.709
15682WAT      O47287   3.779   7.044   7.761
15682WAT     H147288   3.818   7.023   7.850
15682WAT     H247289   3.839   7.009   7.689
15683WAT      O47290   7.754   6.067   7.394
15683WAT     H147291   7.804   6.148   7.364
15683WAT     H247292   7.665   6.093   7.431
15684WAT      O47293   0.580   2.363   2.819
15684WAT     H147294   0.644   2.288   2.805
15684WAT     H247295   0.623   2.449   2.787
15685WAT      O47296   3.921   1.170   1.445
15685WAT     H147297   3.944   1.106   1.371
15685WAT     H247298   3.881   1.252   1.406
15686WAT      O47299   2.959   3.356   1.162
15686WAT     H147300   3.019   3.298   1.216
15686WAT     H247301   3.012   3.399   1.088
15687WAT      O47302   7.644   1.112   7.570
15687WAT     H147303   7.697   1.073   7.495
15687WAT     H247304   7.613   1.204   7.545
15688WAT      O47305   0.140   0.961   5.254
15688WAT     H147306   0.183   1.019   5.185
15688WAT     H247307   0.195   0.878   5.266
15689WAT      O47308   1.507   5.960   7.477
15689WAT     H147309   1.539   6.050   7.448
15689WAT     H247310   1.532   5.892   7.408
15690WAT      O47311   9.582   6.784   8.381
15690WAT     H147312   9.545   6.876   8.373
15690WAT     H247313   9.678   6.784   8.353
15691WAT      O47314   8.445   1.649   5.383
15691WAT     H147315   8.522   1.650   5.319
15691WAT     H247316   8.375   1.586   5.351
15692WAT      O47317   8.993   9.411   1.711
15692WAT     H147318   8.899   9.392   1.683
15692WAT     H247319   9.055   9.401   1.633
15693WAT      O47320   7.638   5.700   7.654
15693WAT     H147321   7.538   5.700   7.668
15693WAT     H247322   7.659   5.676   7.560
15694WAT      O47323   2.807   9.596   4.297
15694WAT     H147324   2.863   9.676   4.273
15694WAT     H247325   2.866   9.516   4.310
15695WAT      O47326   6.819   9.650   1.974
15695WAT     H147327   6.845   9.571   2.029
15695WAT     H247328   6.898   9.681   1.921
15696WAT      O47329   3.369   3.563   7.493
15696WAT     H147330   3.417   3.589   7.409
15696WAT     H247331   3.344   3.466   7.489
15697WAT      O47332   9.809   2.155   1.808
15697WAT     H147333   9.836   2.089   1.878
15697WAT     H247334   9.711   2.174   1.815
15698WAT      O47335   1.586   1.879   6.101
15698WAT     H147336   1.537   1.950   6.152
15698WAT     H247337   1.662   1.921   6.052
15699WAT      O47338   7.995   2.283   5.950
15699WAT     H147339   7.916   2.233   5.916
15699WAT     H247340   8.079   2.244   5.911
15700WAT      O47341   8.545   1.882   3.917
15700WAT     H147342   8.554   1.841   3.827
15700WAT     H247343   8.472   1.950   3.916
15701WAT      O47344   2.475   8.193   1.098
15701WAT     H147345   2.574   8.203   1.097
15701WAT     H247346   2.446   8.142   1.016
15702WAT      O47347   9.679   5.178   8.732
15702WAT     H147348   9.642   5.151   8.820
15702WAT     H247349   9.680   5.278   8.725
15703WAT      O47350   5.053   8.478   1.767
15703WAT     H147351   5.122   8.507   1.702
15703WAT     H247352   5.010   8.394   1.736
15704WAT      O47353   4.400   6.567   6.911
15704WAT     H147354   4.427   6.514   6.830
15704WAT     H247355   4.326   6.520   6.958
15705WAT      O47356   8.735   3.393   4.427
15705WAT     H147357   8.650   3.360   4.387
15705WAT     H247358   8.756   3.341   4.509
15706WAT      O47359   8.291   2.689   0.288
15706WAT     H147360   8.386   2.665   0.307
15706WAT     H247361   8.274   2.681   0.189
15707WAT      O47362   4.999   2.006   5.153
15707WAT     H147363   4.940   1.926   5.164
15707WAT     H247364   4.947   2.080   5.112
15708WAT      O47365   1.420   8.954   3.256
15708WAT     H147366   1.489   9.020   3.226
15708WAT     H247367   1.329   8.995   3.248
15709WAT      O47368   7.564   8.458   3.283
15709WAT     H147369   7.546   8.556   3.293
15709WAT     H247370   7.614   8.443   3.198
15710WAT      O47371   9.419   1.995   6.692
15710WAT     H147372   9.435   2.038   6.603
15710WAT     H247373   9.500   2.008   6.750
15711WAT      O47374   3.931   5.468   5.924
15711WAT     H147375   3.966   5.425   5.841
15711WAT     H247376   3.854   5.527   5.900
15712WAT      O47377   3.781   0.579   3.694
15712WAT     H147378   3.799   0.677   3.707
15712WAT     H247379   3.723   0.545   3.768
15713WAT      O47380   8.315   7.581   8.264
15713WAT     H147381   8.240   7.563   8.328
15713WAT     H247382   8.278   7.598   8.173
15714WAT      O47383   7.407   6.463   8.231
15714WAT     H147384   7.398   6.485   8.329
15714WAT     H247385   7.366   6.374   8.213
15715WAT      O47386   0.307   7.291   0.133
15715WAT     H147387   0.328   7.193   0.127
15715WAT     H247388   0.323   7.333   0.044
15716WAT      O47389   0.335   1.040   3.832
15716WAT     H147390   0.375   1.131   3.821
15716WAT     H247391   0.306   1.005   3.743
15717WAT      O47392   4.279   3.977   8.070
15717WAT     H147393   4.234   4.043   8.010
15717WAT     H247394   4.376   3.969   8.044
15718WAT      O47395   7.171   8.974   8.116
15718WAT     H147396   7.238   8.901   8.130
15718WAT     H247397   7.186   9.017   8.027
15719WAT      O47398   1.128   1.477   6.659
15719WAT     H147399   1.090   1.433   6.739
15719WAT     H247400   1.228   1.483   6.669
15720WAT      O47401   7.998   0.453   0.076
15720WAT     H147402   7.943   0.369   0.082
15720WAT     H247403   7.952   0.527   0.125
15721WAT      O47404   3.237   7.372   6.059
15721WAT     H147405   3.172   7.299   6.081
15721WAT     H247406   3.213   7.412   5.971
15722WAT      O47407   9.642   2.296   2.934
15722WAT     H147408   9.674   2.297   2.839
15722WAT     H247409   9.713   2.257   2.992
15723WAT      O47410   2.589   3.283   4.966
15723WAT     H147411   2.668   3.341   4.986
15723WAT     H247412   2.541   3.262   5.050
15724WAT      O47413   5.012   9.684   0.699
15724WAT     H147414   5.085   9.633   0.745
15724WAT     H247415   4.927   9.673   0.750
15725WAT      O47416   5.532   7.750   9.820
15725WAT     H147417   5.526   7.833   9.764
15725WAT     H247418   5.471   7.680   9.783
15726WAT      O47419   6.707   3.015   5.257
15726WAT     H147420   6.685   2.959   5.177
15726WAT     H247421   6.691   2.963   5.340
15727WAT      O47422   7.280   7.259   9.317
15727WAT     H147423   7.338   7.324   9.269
15727WAT     H247424   7.337   7.184   9.353
15728WAT      O47425   8.013   8.140   1.130
15728WAT     H147426   7.936   8.101   1.080
15728WAT     H247427   8.095   8.135   1.073
15729WAT      O47428   2.734   1.460   8.036
15729WAT     H147429   2.814   1.445   8.094
15729WAT     H247430   2.756   1.433   7.942
15730WAT      O47431   5.787   4.496   0.989
15730WAT     H147432   5.784   4.552   1.071
15730WAT     H247433   5.694   4.490   0.950
15731WAT      O47434   8.764   2.397   8.655
15731WAT     H147435   8.671   2.429   8.638
15731WAT     H247436   8.823   2.476   8.675
15732WAT      O47437   4.328   5.149   7.619
15732WAT     H147438   4.259   5.136   7.548
15732WAT     H247439   4.419   5.153   7.578
15733WAT      O47440   9.620   1.703   8.498
15733WAT     H147441   9.707   1.749   8.482
15733WAT     H247442   9.629   1.606   8.477
15734WAT      O47443   8.545   5.013   4.203
15734WAT     H147444   8.608   5.019   4.125
15734WAT     H247445   8.477   5.086   4.197
15735WAT      O47446   2.601   7.249   0.804
15735WAT     H147447   2.656   7.307   0.864
15735WAT     H247448   2.661   7.186   0.754
15736WAT      O47449   9.434   5.378   5.576
15736WAT     H147450   9.515   5.339   5.620
15736WAT     H247451   9.387   5.439   5.640
15737WAT      O47452   3.247   7.774   8.597
15737WAT     H147453   3.241   7.674   8.602
15737WAT     H247454   3.156   7.812   8.585
15738WAT      O47455   0.718   2.383   9.337
15738WAT     H147456   0.736   2.388   9.435
15738WAT     H247457   0.630   2.337   9.321
15739WAT      O47458   4.357   7.122   3.917
15739WAT     H147459   4.455   7.117   3.932
15739WAT     H247460   4.323   7.212   3.946
15740WAT      O47461   0.824   7.323   2.716
15740WAT     H147462   0.843   7.296   2.810
15740WAT     H247463   0.738   7.281   2.686
15741WAT      O47464   4.113   1.371   1.529
15741WAT     H147465   4.059   1.287   1.516
15741WAT     H247466   4.110   1.425   1.445
15742WAT      O47467   4.044   3.356   0.194
15742WAT     H147468   4.061   3.378   0.098
15742WAT     H247469   4.062   3.259   0.210
15743WAT      O47470   4.019   9.191   8.893
15743WAT     H147471   3.961   9.270   8.909
15743WAT     H247472   3.975   9.129   8.829
15744WAT      O47473   3.733   7.522   2.455
15744WAT     H147474   3.795   7.499   2.530
15744WAT     H247475   3.733   7.447   2.388
15745WAT      O47476   7.852   6.181   3.442
15745WAT     H147477   7.947   6.202   3.464
15745WAT     H247478   7.809   6.135   3.520
15746WAT      O47479   6.263   6.018   0.574
15746WAT     H147480   6.250   5.982   0.666
15746WAT     H247481   6.355   5.996   0.542
15747WAT      O47482   4.013   3.141   7.339
15747WAT     H147483   4.009   3.240   7.356
15747WAT     H247484   4.092   3.120   7.281
15748WAT      O47485   0.105   7.844   3.467
15748WAT     H147486   0.010   7.875   3.463
15748WAT     H247487   0.145   7.872   3.555
15749WAT      O47488   1.065   1.077   5.223
15749WAT     H147489   1.097   1.002   5.281
15749WAT     H247490   1.120   1.158   5.241
15750WAT      O47491   2.936   8.054   7.161
15750WAT     H147492   2.917   7.968   7.115
15750WAT     H247493   2.963   8.123   7.094
15751WAT      O47494   3.296   7.304   0.512
15751WAT     H147495   3.350   7.220   0.500
15751WAT     H247496   3.213   7.283   0.563
15752WAT      O47497   0.257   3.134   5.899
15752WAT     H147498   0.305   3.203   5.954
15752WAT     H247499   0.160   3.133   5.925
15753WAT      O47500   1.205   9.458   8.365
15753WAT     H147501   1.121   9.511   8.360
15753WAT     H247502   1.203   9.400   8.447
15754WAT      O47503   4.207   6.517   4.840
15754WAT     H147504   4.276   6.449   4.866
15754WAT     H247505   4.132   6.472   4.791
15755WAT      O47506   7.877   2.064   2.089
15755WAT     H147507   7.972   2.061   2.117
15755WAT     H247508   7.835   1.974   2.105
15756WAT      O47509   1.423   9.144   4.817
15756WAT     H147510   1.520   9.129   4.796
15756WAT     H247511   1.366   9.105   4.745
15757WAT      O47512   9.028   1.209   5.102
15757WAT     H147513   8.955   1.270   5.134
15757WAT     H247514   9.116   1.247   5.129
15758WAT      O47515   4.984   6.113   9.355
15758WAT     H147516   5.032   6.100   9.268
15758WAT     H247517   4.941   6.203   9.355
15759WAT      O47518   3.691   2.467   7.712
15759WAT     H147519   3.602   2.510   7.728
15759WAT     H247520   3.679   2.372   7.684
15760WAT      O47521   5.278   2.156   3.975
15760WAT     H147522   5.181   2.152   3.999
15760WAT     H247523   5.301   2.076   3.920
15761WAT      O47524   7.874   9.173   9.012
15761WAT     H147525   7.937   9.107   9.051
15761WAT     H247526   7.782   9.133   9.009
15762WAT      O47527   5.659   7.880   6.113
15762WAT     H147528   5.580   7.882   6.175
15762WAT     H247529   5.731   7.824   6.153
15763WAT      O47530   0.431   8.602   3.453
15763WAT     H147531   0.524   8.631   3.431
15763WAT     H247532   0.435   8.526   3.519
15764WAT      O47533   0.692   8.575   9.490
15764WAT     H147534   0.616   8.608   9.546
15764WAT     H247535   0.660   8.557   9.397
15765WAT      O47536   9.432   9.571   6.571
15765WAT     H147537   9.357   9.614   6.521
15765WAT     H247538   9.512   9.565   6.513
15766WAT      O47539   6.279   9.812   2.909
15766WAT     H147540   6.286   9.742   2.980
15766WAT     H247541   6.353   9.879   2.921
15767WAT      O47542   0.076   5.899   0.130
15767WAT     H147543   0.069   5.844   0.213
15767WAT     H247544   0.023   5.983   0.142
15768WAT      O47545   2.185   3.774   9.217
15768WAT     H147546   2.252   3.840   9.183
15768WAT     H247547   2.131   3.816   9.290
15769WAT      O47548   6.765   5.248   5.874
15769WAT     H147549   6.776   5.208   5.783
15769WAT     H247550   6.686   5.206   5.919
15770WAT      O47551   7.121   3.762   9.118
15770WAT     H147552   7.185   3.801   9.053
15770WAT     H247553   7.165   3.688   9.169
15771WAT      O47554   3.447   8.002   8.873
15771WAT     H147555   3.350   7.991   8.897
15771WAT     H247556   3.478   8.093   8.901
15772WAT      O47557   9.457   1.412   0.730
15772WAT     H147558   9.414   1.325   0.752
15772WAT     H247559   9.557   1.403   0.734
15773WAT      O47560   4.582   3.146   1.994
15773WAT     H147561   4.559   3.049   2.004
15773WAT     H247562   4.550   3.196   2.074
15774WAT      O47563   0.582   9.103   9.527
15774WAT     H147564   0.642   9.048   9.468
15774WAT     H247565   0.635   9.137   9.605
15775WAT      O47566   2.325   0.074   2.583
15775WAT     H147567   2.399   0.038   2.640
15775WAT     H247568   2.351   0.067   2.487
15776WAT      O47569   3.498   1.439   7.888
15776WAT     H147570   3.592   1.423   7.859
15776WAT     H247571   3.464   1.524   7.847
15777WAT      O47572   0.466   2.729   1.731
15777WAT     H147573   0.443   2.727   1.828
15777WAT     H247574   0.483   2.636   1.699
15778WAT      O47575   4.665   0.582   6.695
15778WAT     H147576   4.594   0.653   6.700
15778WAT     H247577   4.682   0.547   6.787
15779WAT      O47578   2.537   6.928   3.233
15779WAT     H147579   2.471   6.883   3.293
15779WAT     H247580   2.630   6.897   3.256
15780WAT      O47581   7.162   3.335   3.450
15780WAT     H147582   7.257   3.331   3.422
15780WAT     H247583   7.125   3.426   3.431
15781WAT      O47584   1.728   9.825   6.365
15781WAT     H147585   1.753   9.752   6.300
15781WAT     H247586   1.650   9.876   6.329
15782WAT      O47587   0.122   1.125   4.137
15782WAT     H147588   0.077   1.154   4.053
15782WAT     H247589   0.221   1.130   4.127
15783WAT      O47590   0.129   2.096   8.632
15783WAT     H147591   0.129   2.036   8.552
15783WAT     H247592   0.062   2.169   8.618
15784WAT      O47593   3.421   7.967   0.635
15784WAT     H147594   3.458   8.059   0.644
15784WAT     H247595   3.378   7.940   0.721
15785WAT      O47596   3.369   9.302   1.801
15785WAT     H147597   3.309   9.226   1.824
15785WAT     H247598   3.452   9.297   1.857
15786WAT      O47599   7.872   7.531   3.445
15786WAT     H147600   7.962   7.575   3.449
15786WAT     H247601   7.858   7.490   3.355
15787WAT      O47602   3.688   4.608   3.152
15787WAT     H147603   3.600   4.560   3.150
15787WAT     H247604   3.679   4.696   3.107
15788WAT      O47605   7.212   3.979   4.954
15788WAT     H147606   7.239   4.022   4.868
15788WAT     H247607   7.220   3.879   4.945
15789WAT      O47608   8.611   4.757   2.209
15789WAT     H147609   8.518   4.725   2.228
15789WAT     H247610   8.674   4.679   2.211
15790WAT      O47611   9.183   6.662   0.641
15790WAT     H147612   9.214   6.732   0.705
15790WAT     H247613   9.241   6.663   0.560
15791WAT      O47614   7.424   1.932   2.209
15791WAT     H147615   7.401   1.835   2.219
15791WAT     H247616   7.510   1.950   2.258
15792WAT      O47617   9.204   0.050   0.521
15792WAT     H147618   9.121   0.104   0.507
15792WAT     H247619   9.235   0.063   0.616
15793WAT      O47620   1.839   1.866   7.639
15793WAT     H147621   1.905   1.930   7.678
15793WAT     H247622   1.770   1.915   7.586
15794WAT      O47623   9.391   9.476   6.837
15794WAT     H147624   9.411   9.522   6.750
15794WAT     H247625   9.477   9.455   6.883
15795WAT      O47626   6.835   0.319   1.287
15795WAT     H147627   6.749   0.308   1.239
15795WAT     H247628   6.900   0.368   1.229
15796WAT      O47629   6.734   1.289   8.031
15796WAT     H147630   6.805   1.265   8.098
15796WAT     H247631   6.734   1.221   7.958
15797WAT      O47632   9.120   6.767   6.091
15797WAT     H147633   9.139   6.719   6.177
15797WAT     H247634   9.205   6.796   6.049
15798WAT      O47635   1.721   0.711   5.077
15798WAT     H147636   1.795   0.650   5.107
15798WAT     H247637   1.658   0.727   5.153
15799WAT      O47638   2.883   6.863   9.148
15799WAT     H147639   2.925   6.820   9.229
15799WAT     H247640   2.912   6.814   9.066
15800WAT      O47641   2.693   2.388   5.810
15800WAT     H147642   2.708   2.368   5.907
15800WAT     H247643   2.677   2.303   5.760
15801WAT      O47644   1.348   4.530   1.408
15801WAT     H147645   1.419   4.480   1.458
15801WAT     H247646   1.313   4.473   1.334
15802WAT      O47647   5.136   9.820   2.119
15802WAT     H147648   5.169   9.836   2.212
15802WAT     H247649   5.191   9.748   2.076
15803WAT      O47650   8.217   1.143   6.728
15803WAT     H147651   8.275   1.195   6.790
15803WAT     H247652   8.158   1.082   6.781
15804WAT      O47653   0.002   0.464   1.790
15804WAT     H147654   0.009   0.551   1.838
15804WAT     H247655  -0.011   0.480   1.692
15805WAT      O47656   9.826   8.526   2.839
15805WAT     H147657   9.819   8.528   2.939
15805WAT     H247658   9.860   8.614   2.807
15806WAT      O47659   6.569   5.924   0.782
15806WAT     H147660   6.651   5.909   0.727
15806WAT     H247661   6.584   5.998   0.847
15807WAT      O47662   1.562   7.598   2.265
15807WAT     H147663   1.571   7.524   2.199
15807WAT     H247664   1.503   7.568   2.340
15808WAT      O47665   0.348   3.532   7.248
15808WAT     H147666   0.268   3.581   7.212
15808WAT     H247667   0.376   3.573   7.335
15809WAT      O47668   2.711   0.773   1.438
15809WAT     H147669   2.659   0.793   1.521
15809WAT     H247670   2.726   0.674   1.431
15810WAT      O47671   4.082   4.912   3.953
15810WAT     H147672   3.999   4.964   3.933
15810WAT     H247673   4.155   4.974   3.978
15811WAT      O47674   4.713   1.409   7.789
15811WAT     H147675   4.782   1.474   7.755
15811WAT     H247676   4.663   1.451   7.865
15812WAT      O47677   9.550   1.370   9.064
15812WAT     H147678   9.598   1.299   9.116
15812WAT     H247679   9.594   1.458   9.079
15813WAT      O47680   1.693   8.377   2.546
15813WAT     H147681   1.710   8.321   2.465
15813WAT     H247682   1.769   8.368   2.610
15814WAT      O47683   9.669   8.416   1.373
15814WAT     H147684   9.590   8.435   1.432
15814WAT     H247685   9.698   8.500   1.328
15815WAT      O47686   1.492   8.783   8.157
15815WAT     H147687   1.434   8.812   8.233
15815WAT     H247688   1.563   8.721   8.192
15816WAT      O47689   8.294   3.368   4.591
15816WAT     H147690   8.205   3.412   4.585
15816WAT     H247691   8.284   3.278   4.632
15817WAT      O47692   5.612   6.372   6.007
15817WAT     H147693   5.659   6.293   5.968
15817WAT     H247694   5.532   6.394   5.951
15818WAT      O47695   7.603   0.694   4.896
15818WAT     H147696   7.524   0.649   4.854
15818WAT     H247697   7.584   0.792   4.907
15819WAT      O47698   8.056   5.924   7.545
15819WAT     H147699   8.009   5.966   7.622
15819WAT     H247700   8.154   5.941   7.552
15820WAT      O47701   5.167   4.701   0.242
15820WAT     H147702   5.251   4.677   0.291
15820WAT     H247703   5.130   4.786   0.280
15821WAT      O47704   4.159   4.926   1.096
15821WAT     H147705   4.240   4.972   1.061
15821WAT     H247706   4.163   4.924   1.196
15822WAT      O47707   2.559   0.416   7.864
15822WAT     H147708   2.494   0.354   7.908
15822WAT     H247709   2.599   0.372   7.784
15823WAT      O47710   3.941   0.806   5.069
15823WAT     H147711   3.913   0.714   5.042
15823WAT     H247712   3.994   0.848   4.995
15824WAT      O47713   8.830   3.378   3.283
15824WAT     H147714   8.761   3.439   3.244
15824WAT     H247715   8.785   3.301   3.328
15825WAT      O47716   2.473   2.721   5.293
15825WAT     H147717   2.454   2.681   5.204
15825WAT     H247718   2.460   2.820   5.288
15826WAT      O47719   6.423   4.254   8.267
15826WAT     H147720   6.495   4.219   8.327
15826WAT     H247721   6.458   4.331   8.214
15827WAT      O47722   4.826   1.071   7.038
15827WAT     H147723   4.758   1.136   7.004
15827WAT     H247724   4.917   1.100   7.011
15828WAT      O47725   8.886   6.985   9.366
15828WAT     H147726   8.907   7.080   9.390
15828WAT     H247727   8.951   6.924   9.411
15829WAT      O47728   3.445   7.391   6.964
15829WAT     H147729   3.359   7.421   6.922
15829WAT     H247730   3.493   7.470   7.002
15830WAT      O47731   9.392   0.939   5.881
15830WAT     H147732   9.308   0.993   5.876
15830WAT     H247733   9.464   0.992   5.925
15831WAT      O47734   9.135   7.715   9.046
15831WAT     H147735   9.037   7.696   9.051
15831WAT     H247736   9.176   7.705   9.136
15832WAT      O47737   1.543   8.659   8.532
15832WAT     H147738   1.534   8.604   8.615
15832WAT     H247739   1.619   8.723   8.543
15833WAT      O47740   3.178   5.655   7.757
15833WAT     H147741   3.173   5.750   7.724
15833WAT     H247742   3.132   5.649   7.846
15834WAT      O47743   3.199   3.780   0.179
15834WAT     H147744   3.293   3.793   0.210
15834WAT     H247745   3.147   3.728   0.247
15835WAT      O47746   5.854   6.433   1.635
15835WAT     H147747   5.838   6.341   1.669
15835WAT     H247748   5.897   6.488   1.707
15836WAT      O47749   6.874   4.348   2.419
15836WAT     H147750   6.853   4.363   2.322
15836WAT     H247751   6.826   4.267   2.451
15837WAT      O47752   6.330   1.946   2.133
15837WAT     H147753   6.300   1.935   2.038
15837WAT     H247754   6.428   1.928   2.139
15838WAT      O47755   1.922   2.673   0.414
15838WAT     H147756   1.987   2.618   0.362
15838WAT     H247757   1.829   2.649   0.386
15839WAT      O47758   3.841   7.161   1.913
15839WAT     H147759   3.874   7.157   1.819
15839WAT     H247760   3.809   7.070   1.941
15840WAT      O47761   3.898   9.102   2.519
15840WAT     H147762   3.873   9.146   2.433
15840WAT     H247763   3.878   9.163   2.595
15841WAT      O47764   7.255   3.626   7.148
15841WAT     H147765   7.296   3.671   7.227
15841WAT     H247766   7.326   3.608   7.080
15842WAT      O47767   1.872   1.954   0.227
15842WAT     H147768   1.832   1.862   0.224
15842WAT     H247769   1.943   1.957   0.298
15843WAT      O47770   7.015   7.920   6.565
15843WAT     H147771   7.053   7.983   6.497
15843WAT     H247772   7.058   7.937   6.653
15844WAT      O47773   0.545   5.227   7.517
15844WAT     H147774   0.595   5.253   7.600
15844WAT     H247775   0.457   5.188   7.543
15845WAT      O47776   1.487   2.625   5.989
15845WAT     H147777   1.572   2.677   6.000
15845WAT     H247778   1.500   2.532   6.023
15846WAT      O47779   7.950   6.723   7.986
15846WAT     H147780   7.897   6.773   7.918
15846WAT     H247781   8.016   6.663   7.940
15847WAT      O47782   6.175   0.610   0.027
15847WAT     H147783   6.265   0.570   0.044
15847WAT     H247784   6.110   0.577   0.096
15848WAT      O47785   4.944   8.660   6.295
15848WAT     H147786   4.979   8.618   6.211
15848WAT     H247787   4.978   8.753   6.302
15849WAT      O47788   4.039   7.811   0.483
15849WAT     H147789   3.950   7.857   0.481
15849WAT     H247790   4.088   7.829   0.398
15850WAT      O47791   0.666   8.919   0.077
15850WAT     H147792   0.735   8.905   0.006
15850WAT     H247793   0.603   8.992   0.049
15851WAT      O47794   9.188   7.058   1.783
15851WAT     H147795   9.139   6.977   1.815
15851WAT     H247796   9.284   7.036   1.769
15852WAT      O47797   4.809   5.242   7.845
15852WAT     H147798   4.806   5.182   7.766
15852WAT     H247799   4.904   5.266   7.866
15853WAT      O47800   7.507   9.257   2.274
15853WAT     H147801   7.441   9.210   2.333
15853WAT     H247802   7.459   9.327   2.220
15854WAT      O47803   9.610   7.799   5.355
15854WAT     H147804   9.689   7.857   5.337
15854WAT     H247805   9.632   7.734   5.428
15855WAT      O47806   6.699   8.105   4.878
15855WAT     H147807   6.615   8.058   4.908
15855WAT     H247808   6.697   8.199   4.910
15856WAT      O47809   0.352   4.046   8.052
15856WAT     H147810   0.315   4.024   7.962
15856WAT     H247811   0.379   3.962   8.099
15857WAT      O47812   1.501   2.053   3.351
15857WAT     H147813   1.554   2.086   3.273
15857WAT     H247814   1.429   1.992   3.319
15858WAT      O47815   6.112   9.675   0.267
15858WAT     H147816   6.140   9.624   0.348
15858WAT     H247817   6.167   9.758   0.259
15859WAT      O47818   0.816   1.496   0.716
15859WAT     H147819   0.795   1.447   0.631
15859WAT     H247820   0.796   1.593   0.705
15860WAT      O47821   0.499   2.913   5.330
15860WAT     H147822   0.566   2.987   5.340
15860WAT     H247823   0.542   2.836   5.284
15861WAT      O47824   4.153   3.094   1.738
15861WAT     H147825   4.105   3.174   1.700
15861WAT     H247826   4.241   3.083   1.693
15862WAT      O47827   5.574   9.348   8.478
15862WAT     H147828   5.535   9.353   8.387
15862WAT     H247829   5.633   9.428   8.493
15863WAT      O47830   6.084   1.584   5.998
15863WAT     H147831   5.998   1.593   5.949
15863WAT     H247832   6.136   1.669   5.990
15864WAT      O47833   6.547   3.547   6.890
15864WAT     H147834   6.519   3.483   6.819
15864WAT     H247835   6.635   3.518   6.928
15865WAT      O47836   5.432   6.625   2.724
15865WAT     H147837   5.435   6.623   2.624
15865WAT     H247838   5.437   6.532   2.760
15866WAT      O47839   9.431   3.761   4.652
15866WAT     H147840   9.448   3.742   4.555
15866WAT     H247841   9.336   3.788   4.665
15867WAT      O47842   4.973   8.882   7.912
15867WAT     H147843   4.988   8.863   7.815
15867WAT     H247844   4.924   8.969   7.922
15868WAT      O47845   7.788   6.141   5.674
15868WAT     H147846   7.758   6.052   5.708
15868WAT     H247847   7.794   6.139   5.574
15869WAT      O47848   3.897   0.114   5.159
15869WAT     H147849   3.935   0.094   5.249
15869WAT     H247850   3.919   0.209   5.134
15870WAT      O47851   0.472   4.018   7.489
15870WAT     H147852   0.407   4.058   7.553
15870WAT     H247853   0.565   4.028   7.526
15871WAT      O47854   7.594   1.706   2.326
15871WAT     H147855   7.684   1.730   2.289
15871WAT     H247856   7.583   1.745   2.417
15872WAT      O47857   3.273   7.921   5.746
15872WAT     H147858   3.259   7.990   5.676
15872WAT     H247859   3.291   7.965   5.834
15873WAT      O47860   2.467   5.037   2.497
15873WAT     H147861   2.492   4.985   2.416
15873WAT     H247862   2.368   5.033   2.510
15874WAT      O47863   8.535   9.601   9.471
15874WAT     H147864   8.606   9.608   9.401
15874WAT     H247865   8.501   9.693   9.493
15875WAT      O47866   3.413   2.470   1.483
15875WAT     H147867   3.335   2.530   1.502
15875WAT     H247868   3.382   2.375   1.478
15876WAT      O47869   5.473   1.381   7.004
15876WAT     H147870   5.463   1.477   7.027
15876WAT     H247871   5.502   1.372   6.909
15877WAT      O47872   6.099   2.916   0.040
15877WAT     H147873   6.057   2.943   0.127
15877WAT     H247874   6.163   2.986   0.010
15878WAT      O47875   1.119   6.190   0.099
15878WAT     H147876   1.053   6.250   0.054
15878WAT     H247877   1.185   6.157   0.033
15879WAT      O47878   1.138   1.233   3.804
15879WAT     H147879   1.133   1.322   3.849
15879WAT     H247880   1.186   1.168   3.863
15880WAT      O47881   4.915   6.284   9.805
15880WAT     H147882   4.936   6.333   9.721
15880WAT     H247883   4.845   6.215   9.787
15881WAT      O47884   8.856   3.953   1.374
15881WAT     H147885   8.923   3.999   1.433
15881WAT     H247886   8.841   4.009   1.292
15882WAT      O47887   1.882   4.104   7.056
15882WAT     H147888   1.860   4.014   7.018
15882WAT     H247889   1.956   4.145   7.003
15883WAT      O47890   8.181   3.980   4.150
15883WAT     H147891   8.267   4.020   4.118
15883WAT     H247892   8.194   3.937   4.239
15884WAT      O47893   6.926   1.926   4.897
15884WAT     H147894   6.853   1.934   4.965
15884WAT     H247895   6.887   1.937   4.805
15885WAT      O47896   7.313   4.223   1.322
15885WAT     H147897   7.341   4.317   1.303
15885WAT     H247898   7.354   4.193   1.409
15886WAT      O47899   1.399   7.589   1.078
15886WAT     H147900   1.449   7.503   1.092
15886WAT     H247901   1.365   7.592   0.984
15887WAT      O47902   2.189   6.692   7.529
15887WAT     H147903   2.203   6.754   7.606
15887WAT     H247904   2.107   6.720   7.479
15888WAT      O47905   6.631   4.387   7.788
15888WAT     H147906   6.649   4.292   7.815
15888WAT     H247907   6.651   4.398   7.690
15889WAT      O47908   6.215   5.762   5.042
15889WAT     H147909   6.117   5.777   5.033
15889WAT     H247910   6.237   5.739   5.137
15890WAT      O47911   4.024   4.465   0.222
15890WAT     H147912   3.929   4.444   0.246
15890WAT     H247913   4.062   4.527   0.290
15891WAT      O47914   7.638   3.106   1.077
15891WAT     H147915   7.726   3.094   1.122
15891WAT     H247916   7.650   3.108   0.978
15892WAT      O47917   1.256   6.712   2.839
15892WAT     H147918   1.348   6.747   2.856
15892WAT     H247919   1.213   6.688   2.926
15893WAT      O47920   7.019   9.390   2.552
15893WAT     H147921   6.942   9.340   2.512
15893WAT     H247922   7.089   9.325   2.581
15894WAT      O47923   0.343   6.544   6.264
15894WAT     H147924   0.283   6.615   6.226
15894WAT     H247925   0.435   6.580   6.276
15895WAT      O47926   0.434   8.502   8.034
15895WAT     H147927   0.381   8.418   8.020
15895WAT     H247928   0.420   8.563   7.956
15896WAT      O47929   1.659   3.578   1.194
15896WAT     H147930   1.640   3.676   1.206
15896WAT     H247931   1.739   3.566   1.136
15897WAT      O47932   2.051   9.269   1.688
15897WAT     H147933   2.024   9.363   1.709
15897WAT     H247934   2.033   9.249   1.592
15898WAT      O47935   1.365   0.225   4.986
15898WAT     H147936   1.447   0.274   5.015
15898WAT     H247937   1.344   0.154   5.053
15899WAT      O47938   6.306   8.249   8.531
15899WAT     H147939   6.280   8.282   8.621
15899WAT     H247940   6.265   8.159   8.515
15900WAT      O47941   9.434   1.031   3.493
15900WAT     H147942   9.516   1.079   3.525
15900WAT     H247943   9.446   1.002   3.398
15901WAT      O47944   2.964   9.805   4.233
15901WAT     H147945   2.987   9.893   4.274
15901WAT     H247946   2.918   9.821   4.145
15902WAT      O47947   2.309   0.304   1.328
15902WAT     H147948   2.279   0.398   1.347
15902WAT     H247949   2.371   0.305   1.250
15903WAT      O47950   0.358   6.163   5.644
15903WAT     H147951   0.443   6.127   5.605
15903WAT     H247952   0.380   6.225   5.719
15904WAT      O47953   5.194   7.318   6.910
15904WAT     H147954   5.287   7.291   6.887
15904WAT     H247955   5.153   7.249   6.969
15905WAT      O47956   5.998   6.070   9.204
15905WAT     H147957   6.067   6.139   9.227
15905WAT     H247958   6.009   6.042   9.109
15906WAT      O47959   8.517   4.380   8.913
15906WAT     H147960   8.469   4.454   8.960
15906WAT     H247961   8.485   4.374   8.818
15907WAT      O47962   5.934   4.801   7.216
15907WAT     H147963   6.022   4.767   7.183
15907WAT     H247964   5.943   4.832   7.311
15908WAT      O47965   9.335   8.616   8.749
15908WAT     H147966   9.274   8.694   8.760
15908WAT     H247967   9.404   8.617   8.822
15909WAT      O47968   7.462   3.172   7.193
15909WAT     H147969   7.454   3.240   7.120
15909WAT     H247970   7.498   3.216   7.275
15910WAT      O47971   8.894   7.489   9.179
15910WAT     H147972   8.902   7.521   9.085
15910WAT     H247973   8.950   7.547   9.239
15911WAT      O47974   7.363   7.212   1.202
15911WAT     H147975   7.373   7.138   1.268
15911WAT     H247976   7.453   7.247   1.177
15912WAT      O47977   9.301   9.001   1.324
15912WAT     H147978   9.233   8.974   1.256
15912WAT     H247979   9.257   9.052   1.397
15913WAT      O47980   5.460   1.699   0.641
15913WAT     H147981   5.527   1.678   0.713
15913WAT     H247982   5.373   1.655   0.662
15914WAT      O47983   7.595   4.275   5.733
15914WAT     H147984   7.690   4.244   5.722
15914WAT     H247985   7.575   4.346   5.665
15915WAT      O47986   0.046   2.780   3.335
15915WAT     H147987   0.085   2.829   3.413
15915WAT     H247988  -0.035   2.729   3.364
15916WAT      O47989   9.613   4.899   5.184
15916WAT     H147990   9.653   4.880   5.274
15916WAT     H247991   9.642   4.990   5.153
15917WAT      O47992   4.229   1.134   7.004
15917WAT     H147993   4.136   1.151   7.037
15917WAT     H247994   4.270   1.061   7.058
15918WAT      O47995   7.926   4.906   2.172
15918WAT     H147996   7.861   4.937   2.241
15918WAT     H247997   7.989   4.839   2.213
15919WAT      O47998   6.408   3.671   7.169
15919WAT     H147999   6.414   3.686   7.071
15919WAT     H248000   6.486   3.713   7.214
15920WAT      O48001   7.368   8.471   7.490
15920WAT     H148002   7.420   8.393   7.455
15920WAT     H248003   7.374   8.546   7.424
15921WAT      O48004   4.115   3.600   9.818
15921WAT     H148005   4.181   3.590   9.744
15921WAT     H248006   4.058   3.518   9.823
15922WAT      O48007   7.219   0.533   0.977
15922WAT     H148008   7.225   0.511   0.880
15922WAT     H248009   7.300   0.584   1.004
15923WAT      O48010   0.102   3.912   9.882
15923WAT     H148011   0.179   3.938   9.823
15923WAT     H248012   0.060   3.994   9.920
15924WAT      O48013   1.238   1.082   3.997
15924WAT     H148014   1.231   1.162   4.056
15924WAT     H248015   1.295   1.013   4.041
15925WAT      O48016   9.753   2.596   3.405
15925WAT     H148017   9.686   2.524   3.383
15925WAT     H248018   9.736   2.629   3.498
15926WAT      O48019   7.297   1.209   7.207
15926WAT     H148020   7.380   1.191   7.155
15926WAT     H248021   7.317   1.271   7.283
15927WAT      O48022   4.767   7.345   0.951
15927WAT     H148023   4.691   7.406   0.974
15927WAT     H248024   4.792   7.292   1.032
15928WAT      O48025   4.196   6.774   8.205
15928WAT     H148026   4.188   6.873   8.217
15928WAT     H248027   4.162   6.728   8.286
15929WAT      O48028   9.355   6.729   8.184
15929WAT     H148029   9.379   6.800   8.251
15929WAT     H248030   9.405   6.645   8.205
15930WAT      O48031   8.678   0.873   2.289
15930WAT     H148032   8.652   0.846   2.196
15930WAT     H248033   8.618   0.946   2.320
15931WAT      O48034   9.070   4.921   0.592
15931WAT     H148035   9.050   4.828   0.621
15931WAT     H248036   9.131   4.965   0.658
15932WAT      O48037   9.328   1.999   0.950
15932WAT     H148038   9.282   1.918   0.985
15932WAT     H248039   9.392   1.972   0.878
15933WAT      O48040   1.735   1.736   5.144
15933WAT     H148041   1.720   1.802   5.071
15933WAT     H248042   1.696   1.772   5.229
15934WAT      O48043   3.849   3.008   2.937
15934WAT     H148044   3.853   3.079   3.008
15934WAT     H248045   3.896   2.926   2.970
15935WAT      O48046   2.996   7.494   2.001
15935WAT     H148047   3.089   7.526   1.980
15935WAT     H248048   2.930   7.562   1.968
15936WAT      O48049   3.593   8.887   6.361
15936WAT     H148050   3.572   8.957   6.429
15936WAT     H248051   3.544   8.803   6.383
15937WAT      O48052   2.246   2.094   0.243
15937WAT     H148053   2.182   2.169   0.258
15937WAT     H248054   2.297   2.109   0.159
15938WAT      O48055   6.436   0.374   9.713
15938WAT     H148056   6.432   0.349   9.616
15938WAT     H248057   6.402   0.467   9.724
15939WAT      O48058   4.527   6.133   1.093
15939WAT     H148059   4.563   6.076   1.166
15939WAT     H248060   4.568   6.106   1.006
15940WAT      O48061   1.586   1.213   1.967
15940WAT     H148062   1.486   1.211   1.959
15940WAT     H248063   1.626   1.146   1.906
15941WAT      O48064   1.103   6.794   6.397
15941WAT     H148065   1.189   6.745   6.411
15941WAT     H248066   1.093   6.864   6.469
15942WAT      O48067   0.138   6.621   6.885
15942WAT     H148068   0.106   6.526   6.892
15942WAT     H248069   0.223   6.631   6.936
15943WAT      O48070   4.056   2.870   3.451
15943WAT     H148071   4.057   2.777   3.414
15943WAT     H248072   4.121   2.877   3.526
15944WAT      O48073   9.758   5.670   2.536
15944WAT     H148074   9.803   5.624   2.460
15944WAT     H248075   9.818   5.741   2.573
15945WAT      O48076   1.093   2.962   9.548
15945WAT     H148077   1.007   2.957   9.497
15945WAT     H248078   1.090   2.896   9.623
15946WAT      O48079   5.680   8.069   3.834
15946WAT     H148080   5.634   7.990   3.792
15946WAT     H248081   5.694   8.051   3.931
15947WAT      O48082   7.220   4.879   2.396
15947WAT     H148083   7.243   4.850   2.303
15947WAT     H248084   7.146   4.945   2.393
15948WAT      O48085   8.686   7.412   7.536
15948WAT     H148086   8.751   7.354   7.584
15948WAT     H248087   8.603   7.423   7.592
15949WAT      O48088   7.544   3.456   2.927
15949WAT     H148089   7.537   3.457   3.026
15949WAT     H248090   7.458   3.422   2.887
15950WAT      O48091   7.899   6.141   9.870
15950WAT     H148092   7.925   6.145   9.966
15950WAT     H248093   7.896   6.046   9.840
15951WAT      O48094   2.167   3.463   0.697
15951WAT     H148095   2.169   3.375   0.651
15951WAT     H248096   2.151   3.450   0.794
15952WAT      O48097   2.526   3.673   3.489
15952WAT     H148098   2.452   3.608   3.510
15952WAT     H248099   2.570   3.702   3.573
15953WAT      O48100   2.418   9.802   5.160
15953WAT     H148101   2.322   9.802   5.188
15953WAT     H248102   2.453   9.708   5.162
15954WAT      O48103   0.649   0.098   4.592
15954WAT     H148104   0.559   0.136   4.572
15954WAT     H248105   0.717   0.139   4.531
15955WAT      O48106   8.562   6.008   1.369
15955WAT     H148107   8.603   5.946   1.437
15955WAT     H248108   8.485   6.056   1.411
15956WAT      O48109   0.484   0.216   2.237
15956WAT     H148110   0.412   0.181   2.176
15956WAT     H248111   0.488   0.315   2.230
15957WAT      O48112   3.137   5.010   3.004
15957WAT     H148113   3.213   4.968   3.052
15957WAT     H248114   3.162   5.027   2.909
15958WAT      O48115   7.124   4.695   9.477
15958WAT     H148116   7.221   4.700   9.500
15958WAT     H248117   7.105   4.755   9.399
15959WAT      O48118   0.685   9.247   0.505
15959WAT     H148119   0.677   9.278   0.599
15959WAT     H248120   0.596   9.215   0.473
15960WAT      O48121   5.780   8.532   4.746
15960WAT     H148122   5.711   8.595   4.781
15960WAT     H248123   5.853   8.584   4.701
15961WAT      O48124   8.618   3.447   0.440
15961WAT     H148125   8.615   3.533   0.390
15961WAT     H248126   8.701   3.442   0.495
15962WAT      O48127   6.047   2.092   7.744
15962WAT     H148128   5.992   2.167   7.707
15962WAT     H248129   6.043   2.094   7.844
15963WAT      O48130   4.453   0.971   0.272
15963WAT     H148131   4.378   1.020   0.229
15963WAT     H248132   4.538   1.024   0.261
15964WAT      O48133   2.400   4.284   2.338
15964WAT     H148134   2.425   4.343   2.262
15964WAT     H248135   2.374   4.194   2.303
15965WAT      O48136   2.543   2.011   5.915
15965WAT     H148137   2.491   1.928   5.932
15965WAT     H248138   2.576   2.048   6.002
15966WAT      O48139   5.370   8.311   2.404
15966WAT     H148140   5.317   8.386   2.364
15966WAT     H248141   5.380   8.238   2.337
15967WAT      O48142   0.502   9.534   4.385
15967WAT     H148143   0.475   9.461   4.448
15967WAT     H248144   0.574   9.589   4.427
15968WAT      O48145   7.699   9.322   9.764
15968WAT     H148146   7.702   9.258   9.687
15968WAT     H248147   7.776   9.385   9.758
15969WAT      O48148   5.235   0.935   4.378
15969WAT     H148149   5.256   0.987   4.296
15969WAT     H248150   5.317   0.885   4.408
15970WAT      O48151   9.062   4.033   9.880
15970WAT     H148152   8.998   4.031   9.803
15970WAT     H248153   9.033   4.103   9.945
15971WAT      O48154   5.377   0.671   4.302
15971WAT     H148155   5.394   0.575   4.322
15971WAT     H248156   5.433   0.728   4.361
15972WAT      O48157   7.622   5.854   9.695
15972WAT     H148158   7.640   5.798   9.615
15972WAT     H248159   7.531   5.895   9.687
15973WAT      O48160   4.267   3.531   2.623
15973WAT     H148161   4.200   3.490   2.685
15973WAT     H248162   4.266   3.480   2.537
15974WAT      O48163   4.995   5.891   8.097
15974WAT     H148164   4.964   5.963   8.035
15974WAT     H248165   5.087   5.862   8.071
15975WAT      O48166   7.825   6.676   2.134
15975WAT     H148167   7.735   6.677   2.092
15975WAT     H248168   7.856   6.581   2.144
15976WAT      O48169   5.007   2.139   1.697
15976WAT     H148170   5.077   2.173   1.759
15976WAT     H248171   4.916   2.156   1.737
15977WAT      O48172   9.289   9.192   4.804
15977WAT     H148173   9.282   9.127   4.728
15977WAT     H248174   9.297   9.285   4.768
15978WAT      O48175   2.522   0.465   0.772
15978WAT     H148176   2.583   0.398   0.814
15978WAT     H248177   2.463   0.418   0.706
15979WAT      O48178   2.372   3.597   9.312
15979WAT     H148179   2.466   3.604   9.279
15979WAT     H248180   2.314   3.662   9.263
15980WAT      O48181   9.324   9.407   8.405
15980WAT     H148182   9.283   9.454   8.483
15980WAT     H248183   9.291   9.449   8.320
15981WAT      O48184   2.585   9.301   1.326
15981WAT     H148185   2.511   9.235   1.331
15981WAT     H248186   2.595   9.349   1.413
15982WAT      O48187   4.501   0.187   2.023
15982WAT     H148188   4.535   0.139   1.942
15982WAT     H248189   4.495   0.285   2.004
15983WAT      O48190   9.680   4.959   0.227
15983WAT     H148191   9.673   4.951   0.327
15983WAT     H248192   9.625   5.036   0.197
15984WAT      O48193   6.366   8.037   7.980
15984WAT     H148194   6.443   8.040   8.045
15984WAT     H248195   6.393   8.083   7.895
15985WAT      O48196   0.170   5.829   6.692
15985WAT     H148197   0.077   5.794   6.684
15985WAT     H248198   0.230   5.758   6.730
15986WAT      O48199   8.972   5.743   5.404
15986WAT     H148200   8.908   5.668   5.419
15986WAT     H248201   8.931   5.829   5.435
15987WAT      O48202   8.139   8.276   5.213
15987WAT     H148203   8.104   8.184   5.195
15987WAT     H248204   8.163   8.285   5.310
15988WAT      O48205   3.489   5.464   5.420
15988WAT     H148206   3.427   5.531   5.463
15988WAT     H248207   3.550   5.426   5.490
15989WAT      O48208   2.852   0.703   5.299
15989WAT     H148209   2.916   0.665   5.366
15989WAT     H248210   2.784   0.633   5.275
15990WAT      O48211   3.821   5.724   1.099
15990WAT     H148212   3.855   5.796   1.038
15990WAT     H248213   3.757   5.763   1.165
15991WAT      O48214   2.185   8.579   3.016
15991WAT     H148215   2.137   8.493   3.000
15991WAT     H248216   2.165   8.612   3.108
15992WAT      O48217   2.079   7.900   9.466
15992WAT     H148218   2.156   7.964   9.460
15992WAT     H248219   2.039   7.905   9.557
15993WAT      O48220   0.469   7.133   5.392
15993WAT     H148221   0.386   7.084   5.367
15993WAT     H248222   0.482   7.211   5.331
15994WAT      O48223   0.855   3.558   3.693
15994WAT     H148224   0.756   3.556   3.711
15994WAT     H248225   0.896   3.473   3.725
15995WAT      O48226   4.892   2.529   7.064
15995WAT     H148227   4.981   2.489   7.042
15995WAT     H248228   4.836   2.533   6.981
15996WAT      O48229   5.834   6.539   6.759
15996WAT     H148230   5.755   6.563   6.702
15996WAT     H248231   5.802   6.506   6.848
15997WAT      O48232   4.131   0.877   2.167
15997WAT     H148233   4.087   0.905   2.252
15997WAT     H248234   4.087   0.794   2.133
15998WAT      O48235   1.798   1.490   5.040
15998WAT     H148236   1.886   1.479   5.086
15998WAT     H248237   1.757   1.577   5.066
15999WAT      O48238   2.891   0.164   6.716
15999WAT     H148239   2.968   0.101   6.705
15999WAT     H248240   2.897   0.209   6.805
16000WAT      O48241   7.526   4.181   3.376
16000WAT     H148242   7.498   4.102   3.321
16000WAT     H248243   7.593   4.235   3.326
16001WAT      O48244   4.347   3.520   9.030
16001WAT     H148245   4.342   3.573   8.946
16001WAT     H248246   4.411   3.444   9.018
16002WAT      O48247   1.204   9.517   4.882
16002WAT     H148248   1.296   9.544   4.852
16002WAT     H248249   1.139   9.586   4.851
16003WAT      O48250   5.198   9.358   6.832
16003WAT     H148251   5.114   9.339   6.882
16003WAT     H248252   5.195   9.312   6.743
16004WAT      O48253   5.198   5.575   8.569
16004WAT     H148254   5.138   5.495   8.569
16004WAT     H248255   5.194   5.620   8.658
16005WAT      O48256   7.328   4.848   7.922
16005WAT     H148257   7.242   4.877   7.880
16005WAT     H248258   7.312   4.768   7.980
16006WAT      O48259   5.271   5.293   1.241
16006WAT     H148260   5.343   5.224   1.248
16006WAT     H248261   5.312   5.384   1.242
16007WAT      O48262   0.100   6.938   1.645
16007WAT     H148263   0.114   6.897   1.555
16007WAT     H248264   0.162   7.015   1.657
16008WAT      O48265   0.099   6.275   0.937
16008WAT     H148266   0.094   6.335   0.857
16008WAT     H248267   0.006   6.255   0.970
16009WAT      O48268   2.319   2.545   8.620
16009WAT     H148269   2.245   2.498   8.667
16009WAT     H248270   2.372   2.599   8.686
16010WAT      O48271   3.895   5.452   1.409
16010WAT     H148272   3.944   5.395   1.475
16010WAT     H248273   3.816   5.401   1.373
16011WAT      O48274   6.166   3.924   7.560
16011WAT     H148275   6.120   3.951   7.476
16011WAT     H248276   6.181   4.004   7.618
16012WAT      O48277   8.659   2.772   2.529
16012WAT     H148278   8.709   2.719   2.598
16012WAT     H248279   8.607   2.710   2.470
16013WAT      O48280   3.114   6.477   7.757
16013WAT     H148281   3.086   6.433   7.843
16013WAT     H248282   3.139   6.572   7.776
16014WAT      O48283   4.710   6.700   5.184
16014WAT     H148284   4.700   6.775   5.118
16014WAT     H248285   4.769   6.730   5.259
16015WAT      O48286   6.776   0.289   0.925
16015WAT     H148287   6.714   0.323   0.996
16015WAT     H248288   6.808   0.197   0.950
16016WAT      O48289   9.503   4.035   8.644
16016WAT     H148290   9.597   4.000   8.641
16016WAT     H248291   9.492   4.094   8.724
16017WAT      O48292   1.518   2.736   9.370
16017WAT     H148293   1.582   2.724   9.446
16017WAT     H248294   1.441   2.792   9.400
16018WAT      O48295   9.663   1.802   2.388
16018WAT     H148296   9.643   1.899   2.394
16018WAT     H248297   9.686   1.779   2.293
16019WAT      O48298   4.888   0.389   6.653
16019WAT     H148299   4.801   0.422   6.689
16019WAT     H248300   4.905   0.432   6.564
16020WAT      O48301   3.595   8.342   5.282
16020WAT     H148302   3.561   8.291   5.203
16020WAT     H248303   3.537   8.422   5.297
16021WAT      O48304   8.272   4.335   1.284
16021WAT     H148305   8.329   4.416   1.298
16021WAT     H248306   8.297   4.265   1.351
16022WAT      O48307   1.921   6.637   8.591
16022WAT     H148308   1.929   6.539   8.609
16022WAT     H248309   1.922   6.652   8.492
16023WAT      O48310   7.946   3.586   5.083
16023WAT     H148311   7.975   3.498   5.121
16023WAT     H248312   7.939   3.654   5.156
16024WAT      O48313   9.799   3.248   7.368
16024WAT     H148314   9.734   3.275   7.438
16024WAT     H248315   9.891   3.240   7.407
16025WAT      O48316   8.462   5.258   5.888
16025WAT     H148317   8.529   5.332   5.900
16025WAT     H248318   8.508   5.178   5.848
16026WAT      O48319   4.665   6.427   9.100
16026WAT     H148320   4.681   6.388   9.191
16026WAT     H248321   4.673   6.527   9.105
16027WAT      O48322   4.234   6.195   3.517
16027WAT     H148323   4.160   6.221   3.454
16027WAT     H248324   4.314   6.251   3.499
16028WAT      O48325   8.652   9.739   5.710
16028WAT     H148326   8.698   9.665   5.760
16028WAT     H248327   8.618   9.806   5.775
16029WAT      O48328   4.179   6.750   7.425
16029WAT     H148329   4.084   6.733   7.402
16029WAT     H248330   4.230   6.663   7.424
16030WAT      O48331   9.274   0.682   5.874
16030WAT     H148332   9.304   0.772   5.905
16030WAT     H248333   9.346   0.640   5.818
16031WAT      O48334   6.612   4.085   7.115
16031WAT     H148335   6.687   4.151   7.123
16031WAT     H248336   6.646   4.003   7.070
16032WAT      O48337   4.592   0.744   5.440
16032WAT     H148338   4.680   0.696   5.449
16032WAT     H248339   4.517   0.681   5.460
16033WAT      O48340   5.098   9.312   5.816
16033WAT     H148341   5.095   9.258   5.900
16033WAT     H248342   5.063   9.258   5.740
16034WAT      O48343   6.505   2.602   4.771
16034WAT     H148344   6.492   2.622   4.674
16034WAT     H248345   6.419   2.569   4.810
16035WAT      O48346   4.899   6.183   6.261
16035WAT     H148347   4.811   6.137   6.250
16035WAT     H248348   4.923   6.230   6.176
16036WAT      O48349   5.220   7.140   2.491
16036WAT     H148350   5.213   7.142   2.591
16036WAT     H248351   5.292   7.075   2.465
16037WAT      O48352   7.169   2.284   3.233
16037WAT     H148353   7.247   2.260   3.292
16037WAT     H248354   7.092   2.311   3.289
16038WAT      O48355   8.885   7.647   5.755
16038WAT     H148356   8.894   7.566   5.812
16038WAT     H248357   8.819   7.629   5.681
16039WAT      O48358   0.925   5.993   5.996
16039WAT     H148359   0.976   5.909   5.977
16039WAT     H248360   0.960   6.068   5.939
16040WAT      O48361   5.379   3.566   9.092
16040WAT     H148362   5.406   3.598   9.001
16040WAT     H248363   5.441   3.494   9.122
16041WAT      O48364   3.708   4.003   8.585
16041WAT     H148365   3.745   3.923   8.537
16041WAT     H248366   3.668   4.067   8.519
16042WAT      O48367   8.782   6.359   5.563
16042WAT     H148368   8.848   6.412   5.508
16042WAT     H248369   8.790   6.262   5.540
16043WAT      O48370   6.241   1.631   3.916
16043WAT     H148371   6.201   1.671   3.998
16043WAT     H248372   6.290   1.547   3.939
16044WAT      O48373   4.358   8.886   5.357
16044WAT     H148374   4.258   8.878   5.350
16044WAT     H248375   4.400   8.850   5.274
16045WAT      O48376   5.451   5.162   2.328
16045WAT     H148377   5.547   5.159   2.301
16045WAT     H248378   5.393   5.142   2.249
16046WAT      O48379   7.947   1.359   2.395
16046WAT     H148380   7.982   1.265   2.400
16046WAT     H248381   8.013   1.418   2.349
16047WAT      O48382   5.792   1.236   3.230
16047WAT     H148383   5.700   1.238   3.190
16047WAT     H248384   5.860   1.247   3.158
16048WAT      O48385   8.860   8.150   0.279
16048WAT     H148386   8.864   8.083   0.353
16048WAT     H248387   8.867   8.104   0.191
16049WAT      O48388   4.703   7.587   6.554
16049WAT     H148389   4.761   7.575   6.473
16049WAT     H248390   4.758   7.577   6.636
16050WAT      O48391   2.488   7.665   3.553
16050WAT     H148392   2.558   7.691   3.487
16050WAT     H248393   2.406   7.635   3.505
16051WAT      O48394   0.526   0.248   1.685
16051WAT     H148395   0.444   0.215   1.639
16051WAT     H248396   0.510   0.251   1.784
16052WAT      O48397   2.000   1.816   3.937
16052WAT     H148398   2.009   1.721   3.966
16052WAT     H248399   2.069   1.871   3.982
16053WAT      O48400   7.658   7.594   5.142
16053WAT     H148401   7.654   7.694   5.148
16053WAT     H248402   7.581   7.561   5.088
16054WAT      O48403   7.729   1.410   8.432
16054WAT     H148404   7.761   1.469   8.506
16054WAT     H248405   7.638   1.375   8.453
16055WAT      O48406   7.525   5.811   4.544
16055WAT     H148407   7.481   5.877   4.606
16055WAT     H248408   7.468   5.799   4.462
16056WAT      O48409   9.238   4.678   8.432
16056WAT     H148410   9.141   4.671   8.457
16056WAT     H248411   9.261   4.607   8.365
16057WAT      O48412   7.209   0.798   4.120
16057WAT     H148413   7.118   0.834   4.136
16057WAT     H248414   7.259   0.792   4.206
16058WAT      O48415   7.137   5.215   4.399
16058WAT     H148416   7.101   5.215   4.492
16058WAT     H248417   7.062   5.225   4.334
16059WAT      O48418   9.237   1.041   3.037
16059WAT     H148419   9.298   1.044   2.957
16059WAT     H248420   9.162   0.977   3.018
16060WAT      O48421   0.116   1.029   2.638
16060WAT     H148422   0.111   0.943   2.588
16060WAT     H248423   0.029   1.047   2.684
16061WAT      O48424   0.021   3.005   0.386
16061WAT     H148425  -0.070   3.046   0.388
16061WAT     H248426   0.087   3.073   0.356
16062WAT      O48427   3.232   6.645   3.155
16062WAT     H148428   3.189   6.579   3.216
16062WAT     H248429   3.298   6.599   3.097
16063WAT      O48430   8.483   5.235   1.971
16063WAT     H148431   8.479   5.322   2.019
16063WAT     H248432   8.546   5.173   2.018
16064WAT      O48433   6.830   3.493   3.266
16064WAT     H148434   6.914   3.440   3.257
16064WAT     H248435   6.840   3.559   3.340
16065WAT      O48436   6.605   3.946   9.379
16065WAT     H148437   6.583   3.989   9.292
16065WAT     H248438   6.519   3.921   9.426
16066WAT      O48439   6.600   7.583   4.617
16066WAT     H148440   6.635   7.675   4.596
16066WAT     H248441   6.676   7.519   4.620
16067WAT      O48442   7.463   7.331   6.439
16067WAT     H148443   7.560   7.350   6.458
16067WAT     H248444   7.411   7.416   6.443
16068WAT      O48445   3.797   1.176   3.788
16068WAT     H148446   3.762   1.264   3.756
16068WAT     H248447   3.896   1.178   3.792
16069WAT      O48448   8.201   7.795   0.530
16069WAT     H148449   8.274   7.749   0.580
16069WAT     H248450   8.237   7.831   0.444
16070WAT      O48451   3.533   5.055   3.141
16070WAT     H148452   3.508   5.140   3.093
16070WAT     H248453   3.454   4.994   3.145
16071WAT      O48454   5.867   0.018   6.017
16071WAT     H148455   5.934  -0.033   5.963
16071WAT     H248456   5.780  -0.030   6.017
16072WAT      O48457   1.628   2.916   0.042
16072WAT     H148458   1.571   2.893   0.121
16072WAT     H248459   1.683   2.837   0.016
16073WAT      O48460   5.501   1.005   2.193
16073WAT     H148461   5.429   1.000   2.124
16073WAT     H248462   5.580   1.054   2.156
16074WAT      O48463   3.102   8.636   8.878
16074WAT     H148464   3.136   8.650   8.971
16074WAT     H248465   3.057   8.719   8.846
16075WAT      O48466   4.871   1.389   6.589
16075WAT     H148467   4.907   1.297   6.602
16075WAT     H248468   4.944   1.456   6.605
16076WAT      O48469   6.283   6.034   8.630
16076WAT     H148470   6.213   6.094   8.667
16076WAT     H248471   6.245   5.944   8.613
16077WAT      O48472   2.522   5.324   9.634
16077WAT     H148473   2.601   5.366   9.589
16077WAT     H248474   2.544   5.229   9.658
16078WAT      O48475   9.779   3.756   4.408
16078WAT     H148476   9.769   3.657   4.422
16078WAT     H248477   9.721   3.805   4.472
16079WAT      O48478   7.890   6.750   1.824
16079WAT     H148479   7.957   6.682   1.853
16079WAT     H248480   7.886   6.824   1.890
16080WAT      O48481   6.066   1.045   6.483
16080WAT     H148482   6.042   0.948   6.476
16080WAT     H248483   6.044   1.078   6.575
16081WAT      O48484   0.178   2.872   4.320
16081WAT     H148485   0.250   2.938   4.300
16081WAT     H248486   0.090   2.919   4.325
16082WAT      O48487   8.682   6.109   9.763
16082WAT     H148488   8.717   6.178   9.699
16082WAT     H248489   8.646   6.153   9.845
16083WAT      O48490   6.296   6.038   4.210
16083WAT     H148491   6.303   5.943   4.239
16083WAT     H248492   6.382   6.085   4.230
16084WAT      O48493   8.293   1.222   9.645
16084WAT     H148494   8.291   1.308   9.695
16084WAT     H248495   8.249   1.150   9.699
16085WAT      O48496   2.735   5.329   6.856
16085WAT     H148497   2.724   5.428   6.847
16085WAT     H248498   2.827   5.309   6.891
16086WAT      O48499   9.694   9.458   3.621
16086WAT     H148500   9.695   9.358   3.626
16086WAT     H248501   9.682   9.495   3.713
16087WAT      O48502   1.846   8.424   1.337
16087WAT     H148503   1.914   8.485   1.296
16087WAT     H248504   1.865   8.330   1.309
16088WAT      O48505   2.917   3.108   2.982
16088WAT     H148506   3.012   3.078   2.991
16088WAT     H248507   2.914   3.208   2.981
16089WAT      O48508   9.139   1.910   7.632
16089WAT     H148509   9.183   1.875   7.714
16089WAT     H248510   9.170   1.857   7.553
16090WAT      O48511   7.843   4.334   8.811
16090WAT     H148512   7.821   4.237   8.810
16090WAT     H248513   7.942   4.347   8.812
16091WAT      O48514   8.030   7.593   0.665
16091WAT     H148515   8.002   7.526   0.597
16091WAT     H248516   8.059   7.677   0.619
16092WAT      O48517   9.383   3.279   1.311
16092WAT     H148518   9.369   3.366   1.358
16092WAT     H248519   9.420   3.295   1.220
16093WAT      O48520   6.173   3.675   0.990
16093WAT     H148521   6.189   3.749   1.055
16093WAT     H248522   6.162   3.589   1.040
16094WAT      O48523   2.285   9.139   8.479
16094WAT     H148524   2.318   9.224   8.520
16094WAT     H248525   2.198   9.157   8.431
16095WAT      O48526   4.119   8.327   7.821
16095WAT     H148527   4.215   8.298   7.829
16095WAT     H248528   4.091   8.321   7.725
16096WAT      O48529   2.061   2.121   8.654
16096WAT     H148530   2.130   2.120   8.583
16096WAT     H248531   1.977   2.164   8.619
16097WAT      O48532   1.927   5.522   6.387
16097WAT     H148533   1.903   5.619   6.396
16097WAT     H248534   1.868   5.479   6.319
16098WAT      O48535   6.394   6.897   3.145
16098WAT     H148536   6.391   6.993   3.172
16098WAT     H248537   6.484   6.875   3.108
16099WAT      O48538   0.149   9.495   4.504
16099WAT     H148539   0.132   9.437   4.425
16099WAT     H248540   0.212   9.449   4.567
16100WAT      O48541   5.109   3.447   8.001
16100WAT     H148542   5.128   3.438   8.099
16100WAT     H248543   5.169   3.385   7.950
16101WAT      O48544   4.111   2.540   3.594
16101WAT     H148545   4.138   2.460   3.647
16101WAT     H248546   4.161   2.539   3.507
16102WAT      O48547   7.062   9.070   2.976
16102WAT     H148548   6.985   9.051   2.915
16102WAT     H248549   7.057   9.165   3.008
16103WAT      O48550   1.116   7.698   2.798
16103WAT     H148551   1.169   7.740   2.871
16103WAT     H248552   1.086   7.607   2.828
16104WAT      O48553   5.798   3.135   3.998
16104WAT     H148554   5.875   3.197   3.984
16104WAT     H248555   5.802   3.098   4.091
16105WAT      O48556   2.283   8.665   6.418
16105WAT     H148557   2.317   8.577   6.386
16105WAT     H248558   2.229   8.652   6.501
16106WAT      O48559   9.336   2.977   6.216
16106WAT     H148560   9.300   2.931   6.135
16106WAT     H248561   9.340   2.912   6.292
16107WAT      O48562   1.232   5.695   1.253
16107WAT     H148563   1.300   5.743   1.309
16107WAT     H248564   1.176   5.637   1.311
16108WAT      O48565   1.230   3.703   8.998
16108WAT     H148566   1.183   3.645   8.931
16108WAT     H248567   1.290   3.767   8.950
16109WAT      O48568   6.178   6.297   9.278
16109WAT     H148569   6.230   6.339   9.353
16109WAT     H248570   6.241   6.246   9.219
16110WAT      O48571   0.832   0.582   2.750
16110WAT     H148572   0.908   0.564   2.688
16110WAT     H248573   0.846   0.670   2.796
16111WAT      O48574   8.299   6.004   8.921
16111WAT     H148575   8.269   5.940   8.851
16111WAT     H248576   8.375   5.965   8.972
16112WAT      O48577   5.254   8.485   8.072
16112WAT     H148578   5.265   8.415   8.001
16112WAT     H248579   5.188   8.554   8.041
16113WAT      O48580   7.643   9.261   7.330
16113WAT     H148581   7.672   9.235   7.422
16113WAT     H248582   7.546   9.239   7.318
16114WAT      O48583   7.875   5.378   4.149
16114WAT     H148584   7.825   5.355   4.066
16114WAT     H248585   7.949   5.441   4.127
16115WAT      O48586   7.765   3.233   3.128
16115WAT     H148587   7.815   3.184   3.057
16115WAT     H248588   7.826   3.248   3.207
16116WAT      O48589   7.777   3.406   6.599
16116WAT     H148590   7.697   3.378   6.546
16116WAT     H248591   7.813   3.328   6.649
16117WAT      O48592   3.274   5.508   9.880
16117WAT     H148593   3.302   5.588   9.933
16117WAT     H248594   3.181   5.521   9.846
16118WAT      O48595   9.214   8.282   0.513
16118WAT     H148596   9.211   8.382   0.503
16118WAT     H248597   9.299   8.257   0.559
16119WAT      O48598   1.485   6.370   7.209
16119WAT     H148599   1.398   6.321   7.207
16119WAT     H248600   1.474   6.459   7.164
16120WAT      O48601   7.791   1.633   5.165
16120WAT     H148602   7.889   1.648   5.176
16120WAT     H248603   7.740   1.701   5.217
16121WAT      O48604   6.296   2.941   0.993
16121WAT     H148605   6.390   2.908   0.980
16121WAT     H248606   6.233   2.865   0.983
16122WAT      O48607   8.470   4.998   9.250
16122WAT     H148608   8.407   4.995   9.327
16122WAT     H248609   8.564   5.010   9.284
16123WAT      O48610   9.353   0.777   8.371
16123WAT     H148611   9.408   0.718   8.312
16123WAT     H248612   9.296   0.836   8.314
16124WAT      O48613   8.567   9.483   1.155
16124WAT     H148614   8.529   9.543   1.085
16124WAT     H248615   8.651   9.442   1.121
16125WAT      O48616   7.406   4.691   9.604
16125WAT     H148617   7.357   4.681   9.690
16125WAT     H248618   7.471   4.767   9.610
16126WAT      O48619   2.627   6.502   4.304
16126WAT     H148620   2.564   6.425   4.292
16126WAT     H248621   2.591   6.563   4.374
16127WAT      O48622   6.727   2.175   9.615
16127WAT     H148623   6.678   2.246   9.564
16127WAT     H248624   6.664   2.128   9.676
16128WAT      O48625   2.622   0.914   5.376
16128WAT     H148626   2.714   0.898   5.413
16128WAT     H248627   2.561   0.942   5.450
16129WAT      O48628   3.476   8.783   0.827
16129WAT     H148629   3.507   8.829   0.910
16129WAT     H248630   3.393   8.731   0.846
16130WAT      O48631   0.432   6.835   9.370
16130WAT     H148632   0.344   6.795   9.346
16130WAT     H248633   0.498   6.818   9.296
16131WAT      O48634   0.751   8.457   5.509
16131WAT     H148635   0.693   8.489   5.434
16131WAT     H248636   0.797   8.373   5.482
16132WAT      O48637   5.416   2.421   0.810
16132WAT     H148638   5.316   2.419   0.811
16132WAT     H248639   5.449   2.488   0.877
16133WAT      O48640   4.781   4.354   9.714
16133WAT     H148641   4.866   4.404   9.722
16133WAT     H248642   4.728   4.363   9.798
16134WAT      O48643   7.663   9.287   4.556
16134WAT     H148644   7.667   9.284   4.456
16134WAT     H248645   7.622   9.202   4.589
16135WAT      O48646   6.951   1.911   8.367
16135WAT     H148647   6.925   1.998   8.325
16135WAT     H248648   6.976   1.926   8.463
16136WAT      O48649   2.507   0.253   3.793
16136WAT     H148650   2.482   0.248   3.697
16136WAT     H248651   2.450   0.320   3.839
16137WAT      O48652   2.308   1.469   5.267
16137WAT     H148653   2.362   1.477   5.351
16137WAT     H248654   2.273   1.376   5.259
16138WAT      O48655   3.327   0.626   9.386
16138WAT     H148656   3.264   0.682   9.440
16138WAT     H248657   3.360   0.550   9.443
16139WAT      O48658   0.518   3.082   2.825
16139WAT     H148659   0.487   2.994   2.789
16139WAT     H248660   0.569   3.067   2.910
16140WAT      O48661   1.664   5.965   7.710
16140WAT     H148662   1.594   5.963   7.782
16140WAT     H248663   1.620   5.971   7.621
16141WAT      O48664   2.900   7.817   7.975
16141WAT     H148665   2.818   7.767   7.946
16141WAT     H248666   2.878   7.914   7.983
16142WAT      O48667   2.090   1.537   3.476
16142WAT     H148668   2.120   1.511   3.568
16142WAT     H248669   1.994   1.510   3.463
16143WAT      O48670   5.531   2.137   6.085
16143WAT     H148671   5.551   2.226   6.126
16143WAT     H248672   5.432   2.122   6.087
16144WAT      O48673   0.475   7.582   5.710
16144WAT     H148674   0.417   7.539   5.641
16144WAT     H248675   0.568   7.591   5.675
16145WAT      O48676   1.848   4.748   0.418
16145WAT     H148677   1.940   4.709   0.418
16145WAT     H248678   1.781   4.676   0.396
16146WAT      O48679   6.099   1.798   8.898
16146WAT     H148680   6.147   1.846   8.824
16146WAT     H248681   6.165   1.769   8.967
16147WAT      O48682   9.248   1.789   4.014
16147WAT     H148683   9.186   1.849   3.963
16147WAT     H248684   9.203   1.702   4.034
16148WAT      O48685   5.011   3.034   8.446
16148WAT     H148686   5.048   3.043   8.538
16148WAT     H248687   4.923   3.080   8.440
16149WAT      O48688   0.582   8.982   4.131
16149WAT     H148689   0.524   8.908   4.096
16149WAT     H248690   0.552   9.069   4.092
16150WAT      O48691   0.206   4.485   8.189
16150WAT     H148692   0.294   4.509   8.229
16150WAT     H248693   0.138   4.474   8.261
16151WAT      O48694   6.278   8.744   4.451
16151WAT     H148695   6.302   8.808   4.378
16151WAT     H248696   6.201   8.687   4.422
16152WAT      O48697   9.050   3.085   8.780
16152WAT     H148698   9.094   3.091   8.870
16152WAT     H248699   8.995   3.167   8.764
16153WAT      O48700   5.745   7.410   7.971
16153WAT     H148701   5.743   7.448   7.878
16153WAT     H248702   5.735   7.310   7.967
16154WAT      O48703   2.840   7.443   6.576
16154WAT     H148704   2.802   7.453   6.667
16154WAT     H248705   2.802   7.513   6.516
16155WAT      O48706   1.793   2.430   1.269
16155WAT     H148707   1.852   2.382   1.204
16155WAT     H248708   1.839   2.513   1.299
16156WAT      O48709   5.717   1.606   0.779
16156WAT     H148710   5.799   1.622   0.834
16156WAT     H248711   5.744   1.595   0.683
16157WAT      O48712   0.887   3.622   8.848
16157WAT     H148713   0.973   3.612   8.797
16157WAT     H248714   0.903   3.598   8.944
16158WAT      O48715   7.015   7.748   9.317
16158WAT     H148716   6.999   7.691   9.397
16158WAT     H248717   7.013   7.691   9.235
16159WAT      O48718   0.366   4.813   8.264
16159WAT     H148719   0.274   4.851   8.266
16159WAT     H248720   0.363   4.718   8.295
16160WAT      O48721   2.205   2.045   1.017
16160WAT     H148722   2.220   2.121   1.080
16160WAT     H248723   2.257   1.965   1.048
16161WAT      O48724   8.737   3.466   7.165
16161WAT     H148725   8.651   3.438   7.209
16161WAT     H248726   8.791   3.384   7.143
16162WAT      O48727   0.917   8.670   0.214
16162WAT     H148728   0.892   8.761   0.246
16162WAT     H248729   1.007   8.646   0.249
16163WAT      O48730   8.915   4.782   2.506
16163WAT     H148731   8.943   4.823   2.419
16163WAT     H248732   8.822   4.810   2.528
16164WAT      O48733   6.616   9.257   3.105
16164WAT     H148734   6.535   9.205   3.077
16164WAT     H248735   6.653   9.219   3.189
16165WAT      O48736   5.292   8.910   7.979
16165WAT     H148737   5.302   8.833   7.916
16165WAT     H248738   5.194   8.924   7.999
16166WAT      O48739   7.036   9.335   3.049
16166WAT     H148740   6.977   9.377   3.119
16166WAT     H248741   7.029   9.387   2.964
16167WAT      O48742   7.683   5.398   6.297
16167WAT     H148743   7.662   5.494   6.316
16167WAT     H248744   7.716   5.388   6.203
16168WAT      O48745   1.155   0.201   1.352
16168WAT     H148746   1.247   0.232   1.326
16168WAT     H248747   1.123   0.133   1.287
16169WAT      O48748   0.383   3.436   4.947
16169WAT     H148749   0.295   3.482   4.961
16169WAT     H248750   0.453   3.478   5.005
16170WAT      O48751   2.843   9.119   2.033
16170WAT     H148752   2.890   9.058   2.097
16170WAT     H248753   2.911   9.176   1.987
16171WAT      O48754   6.509   0.454   8.154
16171WAT     H148755   6.573   0.396   8.205
16171WAT     H248756   6.484   0.410   8.068
16172WAT      O48757   1.259   7.032   4.363
16172WAT     H148758   1.171   6.985   4.367
16172WAT     H248759   1.299   7.034   4.455
16173WAT      O48760   4.050   0.018   8.817
16173WAT     H148761   3.958   0.026   8.855
16173WAT     H248762   4.096  -0.061   8.857
16174WAT      O48763   5.900   1.167   5.419
16174WAT     H148764   5.903   1.186   5.517
16174WAT     H248765   5.847   1.084   5.403
16175WAT      O48766   7.389   8.273   0.614
16175WAT     H148767   7.369   8.242   0.706
16175WAT     H248768   7.450   8.207   0.569
16176WAT      O48769   7.124   8.624   5.926
16176WAT     H148770   7.026   8.605   5.928
16176WAT     H248771   7.157   8.615   5.832
16177WAT      O48772   7.232   7.811   0.326
16177WAT     H148773   7.313   7.756   0.347
16177WAT     H248774   7.244   7.904   0.363
16178WAT      O48775   5.808   3.954   5.009
16178WAT     H148776   5.750   3.984   4.934
16178WAT     H248777   5.819   4.028   5.075
16179WAT      O48778   1.486   9.619   5.376
16179WAT     H148779   1.420   9.695   5.370
16179WAT     H248780   1.578   9.654   5.363
16180WAT      O48781   1.579   0.195   4.182
16180WAT     H148782   1.483   0.188   4.209
16180WAT     H248783   1.626   0.258   4.244
16181WAT      O48784   1.484   8.691   5.527
16181WAT     H148785   1.495   8.668   5.623
16181WAT     H248786   1.449   8.784   5.519
16182WAT      O48787   2.172   6.993   7.326
16182WAT     H148788   2.231   6.917   7.296
16182WAT     H248789   2.083   6.956   7.352
16183WAT      O48790   9.790   1.464   2.366
16183WAT     H148791   9.727   1.477   2.289
16183WAT     H248792   9.752   1.397   2.430
16184WAT      O48793   2.592   2.990   6.720
16184WAT     H148794   2.595   2.956   6.814
16184WAT     H248795   2.499   2.984   6.685
16185WAT      O48796   9.736   1.124   3.113
16185WAT     H148797   9.651   1.070   3.113
16185WAT     H248798   9.794   1.094   3.189
16186WAT      O48799   4.629   7.098   8.575
16186WAT     H148800   4.586   7.155   8.645
16186WAT     H248801   4.563   7.081   8.501
16187WAT      O48802   2.073   8.779   1.859
16187WAT     H148803   2.106   8.685   1.849
16187WAT     H248804   2.030   8.808   1.773
16188WAT      O48805   0.147   4.127   6.573
16188WAT     H148806   0.102   4.183   6.642
16188WAT     H248807   0.148   4.031   6.602
16189WAT      O48808   8.192   6.528   6.981
16189WAT     H148809   8.132   6.565   7.052
16189WAT     H248810   8.280   6.575   6.984
16190WAT      O48811   5.988   7.382   5.958
16190WAT     H148812   6.086   7.364   5.963
16190WAT     H248813   5.943   7.349   6.041
16191WAT      O48814   9.295   0.984   6.242
16191WAT     H148815   9.283   0.886   6.257
16191WAT     H248816   9.207   1.025   6.218
16192WAT      O48817   1.512   5.745   8.085
16192WAT     H148818   1.577   5.671   8.065
16192WAT     H248819   1.483   5.738   8.181
16193WAT      O48820   9.088   6.354   6.540
16193WAT     H148821   9.048   6.407   6.465
16193WAT     H248822   9.107   6.415   6.617
16194WAT      O48823   8.570   4.034   0.675
16194WAT     H148824   8.600   4.010   0.767
16194WAT     H248825   8.470   4.040   0.673
16195WAT      O48826   0.228   8.197   1.870
16195WAT     H148827   0.287   8.131   1.824
16195WAT     H248828   0.154   8.224   1.808
16196WAT      O48829   3.016   4.224   4.256
16196WAT     H148830   2.936   4.209   4.314
16196WAT     H248831   3.005   4.172   4.171
16197WAT      O48832   1.399   5.195   4.304
16197WAT     H148833   1.393   5.292   4.280
16197WAT     H248834   1.347   5.141   4.238
16198WAT      O48835   8.508   0.747   7.959
16198WAT     H148836   8.606   0.758   7.942
16198WAT     H248837   8.460   0.735   7.872
16199WAT      O48838   6.109   1.567   1.925
16199WAT     H148839   6.010   1.574   1.938
16199WAT     H248840   6.133   1.472   1.906
16200WAT      O48841   0.825   1.146   5.082
16200WAT     H148842   0.768   1.224   5.108
16200WAT     H248843   0.908   1.145   5.138
16201WAT      O48844   7.260   2.032   1.192
16201WAT     H148845   7.247   1.948   1.243
16201WAT     H248846   7.239   2.111   1.251
16202WAT      O48847   8.601   3.971   6.488
16202WAT     H148848   8.614   3.912   6.567
16202WAT     H248849   8.549   3.923   6.418
16203WAT      O48850   5.690   7.668   9.320
16203WAT     H148851   5.680   7.749   9.378
16203WAT     H248852   5.787   7.646   9.309
16204WAT      O48853   5.620   4.453   0.580
16204WAT     H148854   5.555   4.384   0.549
16204WAT     H248855   5.590   4.543   0.548
16205WAT      O48856   1.164   8.650   2.303
16205WAT     H148857   1.241   8.658   2.367
16205WAT     H248858   1.197   8.666   2.210
16206WAT      O48859   7.530   5.529   9.509
16206WAT     H148860   7.494   5.522   9.602
16206WAT     H248861   7.454   5.521   9.444
16207WAT      O48862   6.987   6.512   0.776
16207WAT     H148863   6.953   6.487   0.685
16207WAT     H248864   7.086   6.527   0.772
16208WAT      O48865   3.240   1.569   3.150
16208WAT     H148866   3.316   1.519   3.108
16208WAT     H248867   3.219   1.529   3.239
16209WAT      O48868   8.157   5.021   7.499
16209WAT     H148869   8.079   4.958   7.501
16209WAT     H248870   8.163   5.069   7.586
16210WAT      O48871   3.566   6.197   2.558
16210WAT     H148872   3.567   6.271   2.625
16210WAT     H248873   3.501   6.127   2.586
16211WAT      O48874   1.858   1.097   7.572
16211WAT     H148875   1.899   1.013   7.538
16211WAT     H248876   1.927   1.151   7.620
16212WAT      O48877   0.493   9.116   0.028
16212WAT     H148878   0.522   9.211   0.040
16212WAT     H248879   0.405   9.103   0.075
16213WAT      O48880   9.492   5.683   6.385
16213WAT     H148881   9.534   5.652   6.471
16213WAT     H248882   9.432   5.611   6.350
16214WAT      O48883   8.573   3.784   5.587
16214WAT     H148884   8.613   3.740   5.506
16214WAT     H248885   8.501   3.847   5.558
16215WAT      O48886   1.222   7.233   8.351
16215WAT     H148887   1.296   7.239   8.418
16215WAT     H248888   1.222   7.143   8.309
16216WAT      O48889   9.581   8.296   5.477
16216WAT     H148890   9.603   8.352   5.557
16216WAT     H248891   9.655   8.232   5.461
16217WAT      O48892   4.476   3.205   4.143
16217WAT     H148893   4.568   3.174   4.120
16217WAT     H248894   4.413   3.127   4.141
16218WAT      O48895   0.268   0.634   0.042
16218WAT     H148896   0.248   0.580   0.124
16218WAT     H248897   0.197   0.703   0.029
16219WAT      O48898   4.797   2.863   7.196
16219WAT     H148899   4.716   2.806   7.181
16219WAT     H248900   4.768   2.958   7.210
16220WAT      O48901   9.104   6.038   4.493
16220WAT     H148902   9.031   6.098   4.460
16220WAT     H248903   9.147   6.079   4.573
16221WAT      O48904   0.770   9.148   9.709
16221WAT     H148905   0.766   9.233   9.762
16221WAT     H248906   0.796   9.072   9.768
16222WAT      O48907   5.622   2.600   3.982
16222WAT     H148908   5.659   2.650   4.061
16222WAT     H248909   5.522   2.603   3.984
16223WAT      O48910   3.138   0.280   4.696
16223WAT     H148911   3.223   0.276   4.643
16223WAT     H248912   3.080   0.202   4.671
16224WAT      O48913   2.962   6.299   7.973
16224WAT     H148914   2.993   6.379   8.024
16224WAT     H248915   3.029   6.225   7.985
16225WAT      O48916   0.192   8.394   1.287
16225WAT     H148917   0.153   8.456   1.219
16225WAT     H248918   0.122   8.367   1.352
16226WAT      O48919   6.652   5.851   2.668
16226WAT     H148920   6.751   5.851   2.682
16226WAT     H248921   6.607   5.816   2.750
16227WAT      O48922   4.705   1.553   9.041
16227WAT     H148923   4.717   1.555   9.140
16227WAT     H248924   4.786   1.514   8.998
16228WAT      O48925   6.484   5.961   2.425
16228WAT     H148926   6.539   5.933   2.504
16228WAT     H248927   6.442   6.050   2.444
16229WAT      O48928   4.092   8.489   0.670
16229WAT     H148929   4.149   8.412   0.700
16229WAT     H248930   3.996   8.463   0.675
16230WAT      O48931   6.915   8.195   6.344
16230WAT     H148932   6.833   8.223   6.294
16230WAT     H248933   6.891   8.170   6.438
16231WAT      O48934   1.681   5.705   8.493
16231WAT     H148935   1.768   5.753   8.482
16231WAT     H248936   1.658   5.700   8.591
16232WAT      O48937   2.524   1.448   0.422
16232WAT     H148938   2.500   1.512   0.349
16232WAT     H248939   2.560   1.498   0.501
16233WAT      O48940   1.951   0.563   3.662
16233WAT     H148941   1.922   0.491   3.725
16233WAT     H248942   1.902   0.554   3.576
16234WAT      O48943   9.708   4.074   8.176
16234WAT     H148944   9.687   4.168   8.202
16234WAT     H248945   9.687   4.061   8.079
16235WAT      O48946   5.894   1.987   6.931
16235WAT     H148947   5.838   1.975   7.013
16235WAT     H248948   5.866   1.920   6.862
16236WAT      O48949   7.525   0.968   4.946
16236WAT     H148950   7.614   0.990   4.985
16236WAT     H248951   7.454   1.015   4.998
16237WAT      O48952   0.104   2.287   1.674
16237WAT     H148953   0.051   2.226   1.732
16237WAT     H248954   0.064   2.378   1.675
16238WAT      O48955   8.588   1.965   1.386
16238WAT     H148956   8.581   1.973   1.287
16238WAT     H248957   8.600   2.055   1.427
16239WAT      O48958   6.737   2.607   0.688
16239WAT     H148959   6.644   2.641   0.676
16239WAT     H248960   6.801   2.666   0.639
16240WAT      O48961   8.263   5.101   6.290
16240WAT     H148962   8.363   5.103   6.290
16240WAT     H248963   8.231   5.051   6.371
16241WAT      O48964   6.790   4.585   5.198
16241WAT     H148965   6.776   4.674   5.154
16241WAT     H248966   6.884   4.555   5.185
16242WAT      O48967   1.399   7.418   9.304
16242WAT     H148968   1.493   7.451   9.312
16242WAT     H248969   1.384   7.379   9.213
16243WAT      O48970   2.847   4.073   1.973
16243WAT     H148971   2.790   4.124   2.038
16243WAT     H248972   2.942   4.075   2.004
16244WAT      O48973   8.606   5.020   1.117
16244WAT     H148974   8.548   5.048   1.194
16244WAT     H248975   8.674   4.954   1.149
16245WAT      O48976   4.221   0.235   0.638
16245WAT     H148977   4.243   0.332   0.649
16245WAT     H248978   4.302   0.180   0.657
16246WAT      O48979   5.007   2.251   4.959
16246WAT     H148980   4.911   2.278   4.959
16246WAT     H248981   5.063   2.326   4.993
16247WAT      O48982   1.247   6.633   8.791
16247WAT     H148983   1.261   6.570   8.867
16247WAT     H248984   1.252   6.727   8.824
16248WAT      O48985   9.683   6.885   0.384
16248WAT     H148986   9.762   6.916   0.332
16248WAT     H248987   9.642   6.806   0.338
16249WAT      O48988   3.457   4.736   8.595
16249WAT     H148989   3.407   4.725   8.680
16249WAT     H248990   3.533   4.671   8.592
16250WAT      O48991   8.522   2.953   8.942
16250WAT     H148992   8.486   2.887   9.008
16250WAT     H248993   8.446   3.001   8.898
16251WAT      O48994   9.294   7.508   8.810
16251WAT     H148995   9.280   7.594   8.859
16251WAT     H248996   9.351   7.447   8.865
16252WAT      O48997   9.681   8.619   8.908
16252WAT     H148998   9.741   8.659   8.977
16252WAT     H248999   9.586   8.626   8.938
16253WAT      O49000   4.832   3.993   8.459
16253WAT     H149001   4.834   3.920   8.527
16253WAT     H249002   4.875   3.961   8.374
16254WAT      O49003   0.981   4.513   7.141
16254WAT     H149004   0.994   4.561   7.228
16254WAT     H249005   0.884   4.514   7.117
16255WAT      O49006   8.529   5.898   5.413
16255WAT     H149007   8.598   5.966   5.440
16255WAT     H249008   8.567   5.806   5.426
16256WAT      O49009   2.749   9.002   4.381
16256WAT     H149010   2.680   9.009   4.309
16256WAT     H249011   2.717   8.941   4.453
16257WAT      O49012   3.652   3.266   6.275
16257WAT     H149013   3.636   3.323   6.355
16257WAT     H249014   3.614   3.311   6.194
16258WAT      O49015   5.680   8.577   2.202
16258WAT     H149016   5.679   8.506   2.132
16258WAT     H249017   5.597   8.569   2.258
16259WAT      O49018   6.725   8.899   7.580
16259WAT     H149019   6.641   8.844   7.588
16259WAT     H249020   6.702   8.996   7.588
16260WAT      O49021   4.531   6.965   2.200
16260WAT     H149022   4.599   6.895   2.223
16260WAT     H249023   4.478   6.935   2.121
16261WAT      O49024   3.058   2.482   2.717
16261WAT     H149025   3.064   2.384   2.730
16261WAT     H249026   2.966   2.507   2.687
16262WAT      O49027   1.445   1.635   4.591
16262WAT     H149028   1.441   1.660   4.494
16262WAT     H249029   1.355   1.602   4.620
16263WAT      O49030   8.908   5.520   8.288
16263WAT     H149031   8.987   5.461   8.303
16263WAT     H249032   8.934   5.597   8.229
16264WAT      O49033   4.625   4.421   8.074
16264WAT     H149034   4.535   4.414   8.118
16264WAT     H249035   4.674   4.334   8.086
16265WAT      O49036   3.519   9.634   7.154
16265WAT     H149037   3.558   9.655   7.243
16265WAT     H249038   3.505   9.719   7.103
16266WAT      O49039   8.190   9.559   7.758
16266WAT     H149040   8.196   9.644   7.808
16266WAT     H249041   8.094   9.534   7.746
16267WAT      O49042   8.692   7.786   8.822
16267WAT     H149043   8.631   7.747   8.753
16267WAT     H249044   8.656   7.768   8.913
16268WAT      O49045   0.909   4.609   0.702
16268WAT     H149046   0.906   4.510   0.712
16268WAT     H249047   0.978   4.634   0.634
16269WAT      O49048   6.472   8.221   6.335
16269WAT     H149049   6.544   8.204   6.267
16269WAT     H249050   6.386   8.240   6.289
16270WAT      O49051   2.830   9.581   8.977
16270WAT     H149052   2.817   9.670   9.022
16270WAT     H249053   2.757   9.567   8.911
16271WAT      O49054   5.016   3.923   6.179
16271WAT     H149055   4.995   3.909   6.276
16271WAT     H249056   4.979   4.011   6.149
16272WAT      O49057   2.126   8.110   3.696
16272WAT     H149058   2.053   8.174   3.670
16272WAT     H249059   2.085   8.022   3.720
16273WAT      O49060   3.476   2.893   2.059
16273WAT     H149061   3.544   2.863   1.992
16273WAT     H249062   3.473   2.993   2.062
16274WAT      O49063   2.634   8.349   5.620
16274WAT     H149064   2.673   8.257   5.623
16274WAT     H249065   2.554   8.349   5.559
16275WAT      O49066   9.583   4.454   6.202
16275WAT     H149067   9.632   4.524   6.254
16275WAT     H249068   9.587   4.476   6.105
16276WAT      O49069   2.832   1.327   6.787
16276WAT     H149070   2.794   1.398   6.846
16276WAT     H249071   2.785   1.328   6.699
16277WAT      O49072   9.807   2.897   2.868
16277WAT     H149073   9.710   2.920   2.869
16277WAT     H249074   9.851   2.932   2.951
16278WAT      O49075   8.589   0.553   9.415
16278WAT     H149076   8.490   0.554   9.430
16278WAT     H249077   8.617   0.637   9.368
16279WAT      O49078   1.690   6.798   8.400
16279WAT     H149079   1.688   6.698   8.405
16279WAT     H249080   1.636   6.829   8.322
16280WAT      O49081   3.679   2.234   6.165
16280WAT     H149082   3.714   2.144   6.140
16280WAT     H249083   3.754   2.292   6.197
16281WAT      O49084   8.258   7.480   5.002
16281WAT     H149085   8.239   7.462   4.905
16281WAT     H249086   8.357   7.483   5.016
16282WAT      O49087   3.004   5.698   6.414
16282WAT     H149088   2.964   5.616   6.374
16282WAT     H249089   2.953   5.724   6.495
16283WAT      O49090   0.999   9.532   5.437
16283WAT     H149091   1.004   9.456   5.502
16283WAT     H249092   1.043   9.505   5.351
16284WAT      O49093   0.313   9.706   2.154
16284WAT     H149094   0.392   9.697   2.094
16284WAT     H249095   0.275   9.798   2.144
16285WAT      O49096   8.771   7.561   1.869
16285WAT     H149097   8.732   7.609   1.947
16285WAT     H249098   8.722   7.586   1.786
16286WAT      O49099   5.646   4.116   3.081
16286WAT     H149100   5.617   4.210   3.097
16286WAT     H249101   5.739   4.115   3.044
16287WAT      O49102   4.428   3.217   5.195
16287WAT     H149103   4.386   3.127   5.183
16287WAT     H249104   4.394   3.280   5.125
16288WAT      O49105   1.688   0.854   3.168
16288WAT     H149106   1.677   0.953   3.175
16288WAT     H249107   1.635   0.810   3.241
16289WAT      O49108   4.513   2.501   4.477
16289WAT     H149109   4.575   2.565   4.522
16289WAT     H249110   4.539   2.407   4.501
16290WAT      O49111   4.658   4.171   5.775
16290WAT     H149112   4.560   4.153   5.769
16290WAT     H249113   4.676   4.236   5.848
16291WAT      O49114   1.872   9.674   0.154
16291WAT     H149115   1.948   9.674   0.220
16291WAT     H249116   1.828   9.584   0.155
16292WAT      O49117   6.070   3.919   5.274
16292WAT     H149118   6.008   3.997   5.276
16292WAT     H249119   6.084   3.890   5.179
16293WAT      O49120   8.587   8.296   5.377
16293WAT     H149121   8.527   8.344   5.312
16293WAT     H249122   8.682   8.307   5.348
16294WAT      O49123   8.757   4.105   7.587
16294WAT     H149124   8.762   4.008   7.614
16294WAT     H249125   8.684   4.117   7.519
16295WAT      O49126   7.616   3.643   7.238
16295WAT     H149127   7.635   3.604   7.328
16295WAT     H249128   7.595   3.740   7.247
16296WAT      O49129   9.605   7.775   1.385
16296WAT     H149130   9.601   7.819   1.295
16296WAT     H249131   9.672   7.822   1.443
16297WAT      O49132   6.141   9.306   6.988
16297WAT     H149133   6.080   9.295   6.910
16297WAT     H249134   6.233   9.329   6.956
16298WAT      O49135   9.361   2.549   4.324
16298WAT     H149136   9.385   2.585   4.234
16298WAT     H249137   9.424   2.476   4.349
16299WAT      O49138   8.590   0.460   1.475
16299WAT     H149139   8.582   0.485   1.571
16299WAT     H249140   8.632   0.535   1.424
16300WAT      O49141   7.386   3.454   1.099
16300WAT     H149142   7.314   3.491   1.157
16300WAT     H249143   7.399   3.357   1.120
16301WAT      O49144   0.192   3.294   2.550
16301WAT     H149145   0.273   3.265   2.499
16301WAT     H249146   0.141   3.361   2.496
16302WAT      O49147   1.794   5.529   1.038
16302WAT     H149148   1.745   5.455   0.991
16302WAT     H249149   1.733   5.607   1.050
16303WAT      O49150   6.553   9.314   2.027
16303WAT     H149151   6.525   9.228   1.987
16303WAT     H249152   6.650   9.330   2.007
16304WAT      O49153   3.382   8.628   4.582
16304WAT     H149154   3.379   8.725   4.557
16304WAT     H249155   3.360   8.573   4.502
16305WAT      O49156   0.043   8.578   1.110
16305WAT     H149157   0.000   8.552   1.023
16305WAT     H249158   0.097   8.661   1.096
16306WAT      O49159   3.661   2.433   5.268
16306WAT     H149160   3.666   2.527   5.234
16306WAT     H249161   3.580   2.422   5.325
16307WAT      O49162   5.949   5.731   5.113
16307WAT     H149163   5.902   5.743   5.200
16307WAT     H249164   5.915   5.798   5.046
16308WAT      O49165   3.836   0.993   4.232
16308WAT     H149166   3.745   1.034   4.233
16308WAT     H249167   3.904   1.062   4.206
16309WAT      O49168   4.434   1.659   2.361
16309WAT     H149169   4.433   1.559   2.362
16309WAT     H249170   4.374   1.693   2.434
16310WAT      O49171   0.715   8.636   2.760
16310WAT     H149172   0.771   8.675   2.687
16310WAT     H249173   0.719   8.536   2.755
16311WAT      O49174   4.594   8.212   6.600
16311WAT     H149175   4.507   8.241   6.560
16311WAT     H249176   4.667   8.224   6.533
16312WAT      O49177   6.356   0.007   1.590
16312WAT     H149178   6.313  -0.028   1.673
16312WAT     H249179   6.416  -0.064   1.551
16313WAT      O49180   9.158   1.709   1.641
16313WAT     H149181   9.101   1.775   1.592
16313WAT     H249182   9.194   1.752   1.724
16314WAT      O49183   7.337   8.441   6.051
16314WAT     H149184   7.256   8.491   6.021
16314WAT     H249185   7.364   8.376   5.980
16315WAT      O49186   2.548   9.601   6.191
16315WAT     H149187   2.625   9.538   6.183
16315WAT     H249188   2.564   9.663   6.268
16316WAT      O49189   4.843   9.441   0.998
16316WAT     H149190   4.857   9.420   1.094
16316WAT     H249191   4.751   9.412   0.971
16317WAT      O49192   7.969   7.379   7.936
16317WAT     H149193   7.888   7.369   7.878
16317WAT     H249194   7.976   7.301   7.997
16318WAT      O49195   9.494   0.622   6.228
16318WAT     H149196   9.477   0.566   6.309
16318WAT     H249197   9.416   0.681   6.210
16319WAT      O49198   1.540   7.206   6.636
16319WAT     H149199   1.478   7.169   6.705
16319WAT     H249200   1.568   7.133   6.574
16320WAT      O49201   1.152   4.590   5.324
16320WAT     H149202   1.241   4.617   5.361
16320WAT     H249203   1.145   4.490   5.324
16321WAT      O49204   8.782   6.626   3.952
16321WAT     H149205   8.821   6.620   3.860
16321WAT     H249206   8.783   6.535   3.994
16322WAT      O49207   7.621   2.659   0.116
16322WAT     H149208   7.708   2.692   0.153
16322WAT     H249209   7.554   2.652   0.191
16323WAT      O49210   9.438   6.003   3.656
16323WAT     H149211   9.523   6.011   3.708
16323WAT     H249212   9.395   5.915   3.676
16324WAT      O49213   9.836   8.040   9.381
16324WAT     H149214   9.815   7.961   9.438
16324WAT     H249215   9.935   8.052   9.376
16325WAT      O49216   8.310   2.471   5.375
16325WAT     H149217   8.280   2.543   5.312
16325WAT     H249218   8.404   2.444   5.352
16326WAT      O49219   7.012   0.847   6.958
16326WAT     H149220   6.980   0.902   7.034
16326WAT     H249221   7.032   0.754   6.990
16327WAT      O49222   5.524   1.868   1.591
16327WAT     H149223   5.535   1.967   1.598
16327WAT     H249224   5.428   1.844   1.602
16328WAT      O49225   0.702   9.408   5.709
16328WAT     H149226   0.675   9.479   5.644
16328WAT     H249227   0.801   9.392   5.701
16329WAT      O49228   8.287   8.616   8.500
16329WAT     H149229   8.382   8.624   8.471
16329WAT     H249230   8.228   8.670   8.440
16330WAT      O49231   8.438   2.421   8.454
16330WAT     H149232   8.430   2.436   8.552
16330WAT     H249233   8.356   2.375   8.420
16331WAT      O49234   6.254   9.641   7.334
16331WAT     H149235   6.340   9.591   7.322
16331WAT     H249236   6.206   9.645   7.246
16332WAT      O49237   0.000   5.542   9.522
16332WAT     H149238   0.031   5.499   9.437
16332WAT     H249239   0.009   5.641   9.514
16333WAT      O49240   8.343   7.902   0.290
16333WAT     H149241   8.265   7.883   0.230
16333WAT     H249242   8.372   7.997   0.278
16334WAT      O49243   2.155   8.537   6.945
16334WAT     H149244   2.083   8.492   6.998
16334WAT     H249245   2.197   8.470   6.883
16335WAT      O49246   1.032   1.128   2.493
16335WAT     H149247   0.949   1.182   2.496
16335WAT     H249248   1.105   1.176   2.543
16336WAT      O49249   5.815   2.640   1.913
16336WAT     H149250   5.728   2.632   1.864
16336WAT     H249251   5.865   2.554   1.904
16337WAT      O49252   9.637   3.719   8.826
16337WAT     H149253   9.635   3.786   8.900
16337WAT     H249254   9.577   3.643   8.848
16338WAT      O49255   8.902   6.980   7.199
16338WAT     H149256   8.830   6.991   7.267
16338WAT     H249257   8.980   7.038   7.223
16339WAT      O49258   2.222   2.965   0.195
16339WAT     H149259   2.130   2.973   0.233
16339WAT     H249260   2.260   3.056   0.179
16340WAT      O49261   4.417   2.199   5.394
16340WAT     H149262   4.453   2.111   5.426
16340WAT     H249263   4.336   2.183   5.338
16341WAT      O49264   7.113   3.892   2.224
16341WAT     H149265   7.170   3.929   2.298
16341WAT     H249266   7.073   3.806   2.254
16342WAT      O49267   1.775   5.411   6.183
16342WAT     H149268   1.741   5.472   6.111
16342WAT     H249269   1.716   5.331   6.189
16343WAT      O49270   2.756   1.710   8.888
16343WAT     H149271   2.734   1.683   8.795
16343WAT     H249272   2.755   1.810   8.896
16344WAT      O49273   6.207   3.912   8.079
16344WAT     H149274   6.250   3.878   8.163
16344WAT     H249275   6.247   4.001   8.055
16345WAT      O49276   2.091   0.237   2.933
16345WAT     H149277   2.188   0.226   2.910
16345WAT     H249278   2.037   0.167   2.886
16346WAT      O49279   9.802   5.388   8.511
16346WAT     H149280   9.777   5.414   8.605
16346WAT     H249281   9.899   5.365   8.508
16347WAT      O49282   0.019   7.191   2.622
16347WAT     H149283  -0.003   7.286   2.600
16347WAT     H249284  -0.008   7.172   2.717
16348WAT      O49285   6.805   3.456   7.023
16348WAT     H149286   6.810   3.385   6.953
16348WAT     H249287   6.893   3.503   7.029
16349WAT      O49288   0.101   9.683   4.012
16349WAT     H149289   0.100   9.598   3.961
16349WAT     H249290   0.196   9.711   4.028
16350WAT      O49291   6.705   7.273   5.961
16350WAT     H149292   6.652   7.334   6.020
16350WAT     H249293   6.721   7.187   6.009
16351WAT      O49294   8.420   0.385   0.066
16351WAT     H149295   8.494   0.449   0.044
16351WAT     H249296   8.335   0.418   0.025
16352WAT      O49297   8.447   8.421   7.771
16352WAT     H149298   8.450   8.389   7.677
16352WAT     H249299   8.540   8.446   7.801
16353WAT      O49300   7.974   9.410   3.826
16353WAT     H149301   8.034   9.466   3.769
16353WAT     H249302   7.944   9.330   3.774
16354WAT      O49303   7.148   0.445   2.790
16354WAT     H149304   7.237   0.414   2.823
16354WAT     H249305   7.093   0.367   2.761
16355WAT      O49306   8.250   5.491   5.445
16355WAT     H149307   8.316   5.519   5.515
16355WAT     H249308   8.286   5.513   5.355
16356WAT      O49309   1.467   0.052   2.668
16356WAT     H149310   1.525  -0.029   2.672
16356WAT     H249311   1.494   0.108   2.590
16357WAT      O49312   3.373   0.006   4.473
16357WAT     H149313   3.399   0.091   4.427
16357WAT     H249314   3.452  -0.029   4.524
16358WAT      O49315   3.485   1.217   5.184
16358WAT     H149316   3.549   1.257   5.249
16358WAT     H249317   3.514   1.239   5.091
16359WAT      O49318   7.221   0.655   8.088
16359WAT     H149319   7.273   0.616   8.163
16359WAT     H249320   7.132   0.610   8.083
16360WAT      O49321   9.341   3.598   3.181
16360WAT     H149322   9.314   3.582   3.276
16360WAT     H249323   9.439   3.617   3.177
16361WAT      O49324   0.478   5.103   3.886
16361WAT     H149325   0.456   5.022   3.832
16361WAT     H249326   0.396   5.136   3.933
16362WAT      O49327   2.208   9.395   5.556
16362WAT     H149328   2.191   9.371   5.651
16362WAT     H249329   2.128   9.370   5.501
16363WAT      O49330   4.119   6.635   1.424
16363WAT     H149331   4.139   6.593   1.335
16363WAT     H249332   4.075   6.724   1.410
16364WAT      O49333   5.894   3.397   9.614
16364WAT     H149334   5.916   3.335   9.689
16364WAT     H249335   5.831   3.352   9.550
16365WAT      O49336   0.477   1.422   7.271
16365WAT     H149337   0.435   1.430   7.361
16365WAT     H249338   0.577   1.415   7.281
16366WAT      O49339   7.131   8.287   3.844
16366WAT     H149340   7.216   8.273   3.895
16366WAT     H249341   7.134   8.233   3.760
16367WAT      O49342   1.202   1.139   8.969
16367WAT     H149343   1.246   1.209   8.913
16367WAT     H249344   1.271   1.076   9.005
16368WAT      O49345   6.527   3.552   5.261
16368WAT     H149346   6.429   3.541   5.244
16368WAT     H249347   6.579   3.519   5.181
16369WAT      O49348   4.082   6.364   2.920
16369WAT     H149349   4.015   6.306   2.874
16369WAT     H249350   4.042   6.402   3.003
16370WAT      O49351   9.159   6.906   4.427
16370WAT     H149352   9.241   6.887   4.373
16370WAT     H249353   9.152   6.839   4.501
16371WAT      O49354   2.587   8.219   3.805
16371WAT     H149355   2.497   8.191   3.839
16371WAT     H249356   2.644   8.139   3.792
16372WAT      O49357   6.033   4.303   6.424
16372WAT     H149358   6.057   4.241   6.349
16372WAT     H249359   5.949   4.271   6.468
16373WAT      O49360   3.461   1.832   1.686
16373WAT     H149361   3.557   1.835   1.658
16373WAT     H249362   3.455   1.850   1.784
16374WAT      O49363   1.760   8.868   5.365
16374WAT     H149364   1.725   8.938   5.427
16374WAT     H249365   1.753   8.778   5.409
16375WAT      O49366   6.567   4.385   6.954
16375WAT     H149367   6.511   4.431   7.023
16375WAT     H249368   6.639   4.332   7.000
16376WAT      O49369   9.194   7.690   2.490
16376WAT     H149370   9.158   7.774   2.450
16376WAT     H249371   9.243   7.711   2.575
16377WAT      O49372   7.885   0.370   4.050
16377WAT     H149373   7.984   0.384   4.048
16377WAT     H249374   7.858   0.333   4.139
16378WAT      O49375   8.522   1.877   3.304
16378WAT     H149376   8.612   1.835   3.291
16378WAT     H249377   8.477   1.835   3.383
16379WAT      O49378   4.526   3.534   8.734
16379WAT     H149379   4.537   3.451   8.790
16379WAT     H249380   4.430   3.545   8.710
16380WAT      O49381   0.612   6.731   3.859
16380WAT     H149382   0.701   6.732   3.813
16380WAT     H249383   0.611   6.798   3.933
16381WAT      O49384   0.243   0.883   6.229
16381WAT     H149385   0.331   0.920   6.259
16381WAT     H249386   0.257   0.793   6.189
16382WAT      O49387   2.837   5.263   5.405
16382WAT     H149388   2.785   5.348   5.414
16382WAT     H249389   2.889   5.246   5.489
16383WAT      O49390   2.824   5.344   8.459
16383WAT     H149391   2.813   5.247   8.438
16383WAT     H249392   2.913   5.376   8.426
16384WAT      O49393   9.022   1.462   4.793
16384WAT     H149394   9.006   1.550   4.837
16384WAT     H249395   8.949   1.443   4.727
16385WAT      O49396   2.493   9.287   4.012
16385WAT     H149397   2.449   9.197   4.016
16385WAT     H249398   2.443   9.345   3.948
16386WAT      O49399   7.590   3.079   0.814
16386WAT     H149400   7.644   3.000   0.783
16386WAT     H249401   7.609   3.157   0.755
16387WAT      O49402   7.321   8.250   5.839
16387WAT     H149403   7.407   8.210   5.809
16387WAT     H249404   7.255   8.246   5.764
16388WAT      O49405   4.652   7.620   3.457
16388WAT     H149406   4.649   7.685   3.382
16388WAT     H249407   4.579   7.640   3.522
16389WAT      O49408   3.690   5.053   8.834
16389WAT     H149409   3.662   5.074   8.741
16389WAT     H249410   3.776   5.100   8.855
16390WAT      O49411   3.748   4.357   1.937
16390WAT     H149412   3.842   4.378   1.961
16390WAT     H249413   3.731   4.259   1.951
16391WAT      O49414   7.805   2.274   1.602
16391WAT     H149415   7.739   2.280   1.527
16391WAT     H249416   7.800   2.183   1.643
16392WAT      O49417   2.193   6.619   4.627
16392WAT     H149418   2.098   6.595   4.609
16392WAT     H249419   2.231   6.669   4.549
16393WAT      O49420   0.814   0.156   5.703
16393WAT     H149421   0.879   0.155   5.627
16393WAT     H249422   0.847   0.217   5.774
16394WAT      O49423   7.103   4.266   0.009
16394WAT     H149424   7.147   4.201   0.071
16394WAT     H249425   7.072   4.345   0.061
16395WAT      O49426   2.983   4.281   3.878
16395WAT     H149427   2.956   4.258   3.784
16395WAT     H249428   2.989   4.198   3.933
16396WAT      O49429   7.578   4.191   4.432
16396WAT     H149430   7.569   4.248   4.350
16396WAT     H249431   7.647   4.231   4.493
16397WAT      O49432   0.761   7.625   5.693
16397WAT     H149433   0.773   7.673   5.781
16397WAT     H249434   0.849   7.588   5.664
16398WAT      O49435   5.178   1.884   8.144
16398WAT     H149436   5.232   1.948   8.089
16398WAT     H249437   5.239   1.816   8.185
16399WAT      O49438   0.589   7.660   1.666
16399WAT     H149439   0.673   7.635   1.619
16399WAT     H249440   0.609   7.680   1.762
16400WAT      O49441   8.389   8.839   8.898
16400WAT     H149442   8.323   8.840   8.822
16400WAT     H249443   8.479   8.814   8.863
16401WAT      O49444   0.971   7.572   9.523
16401WAT     H149445   0.923   7.659   9.519
16401WAT     H249446   0.921   7.503   9.470
16402WAT      O49447   5.906   3.858   1.213
16402WAT     H149448   6.005   3.854   1.197
16402WAT     H249449   5.858   3.852   1.125
16403WAT      O49450   8.167   2.554   8.867
16403WAT     H149451   8.216   2.533   8.951
16403WAT     H249452   8.198   2.642   8.831
16404WAT      O49453   7.679   4.691   8.048
16404WAT     H149454   7.720   4.725   8.133
16404WAT     H249455   7.690   4.761   7.977
16405WAT      O49456   1.308   0.893   8.669
16405WAT     H149457   1.299   0.840   8.584
16405WAT     H249458   1.296   0.832   8.747
16406WAT      O49459   4.195   7.357   5.572
16406WAT     H149460   4.228   7.269   5.537
16406WAT     H249461   4.100   7.347   5.602
16407WAT      O49462   2.948   6.026   6.842
16407WAT     H149463   2.936   5.941   6.790
16407WAT     H249464   3.045   6.040   6.861
16408WAT      O49465   4.521   2.779   5.861
16408WAT     H149466   4.595   2.712   5.852
16408WAT     H249467   4.489   2.782   5.955
16409WAT      O49468   7.364   6.050   8.855
16409WAT     H149469   7.394   5.962   8.893
16409WAT     H249470   7.439   6.093   8.805
16410WAT      O49471   3.409   9.628   5.569
16410WAT     H149472   3.434   9.685   5.491
16410WAT     H249473   3.310   9.634   5.584
16411WAT      O49474   7.175   4.816   7.548
16411WAT     H149475   7.265   4.859   7.539
16411WAT     H249476   7.149   4.811   7.644
16412WAT      O49477   9.731   8.054   8.089
16412WAT     H149478   9.654   8.106   8.126
16412WAT     H249479   9.698   7.969   8.048
16413WAT      O49480   8.764   2.163   0.994
16413WAT     H149481   8.841   2.226   0.987
16413WAT     H249482   8.748   2.120   0.905
16414WAT      O49483   5.355   4.583   2.113
16414WAT     H149484   5.296   4.554   2.189
16414WAT     H249485   5.369   4.682   2.118
16415WAT      O49486   7.735   5.914   2.841
16415WAT     H149487   7.791   5.860   2.904
16415WAT     H249488   7.680   5.979   2.893
16416WAT      O49489   8.570   1.326   0.036
16416WAT     H149490   8.648   1.387   0.052
16416WAT     H249491   8.490   1.379   0.010
16417WAT      O49492   8.691   8.140   1.050
16417WAT     H149493   8.766   8.119   1.112
16417WAT     H249494   8.718   8.117   0.956
16418WAT      O49495   7.997   0.992   2.621
16418WAT     H149496   7.964   1.038   2.702
16418WAT     H249497   8.082   0.943   2.642
16419WAT      O49498   2.742   4.050   6.561
16419WAT     H149499   2.673   4.016   6.625
16419WAT     H249500   2.708   4.039   6.468
16420WAT      O49501   9.125   7.563   8.113
16420WAT     H149502   9.036   7.555   8.068
16420WAT     H249503   9.111   7.581   8.210
16421WAT      O49504   8.369   2.327   1.368
16421WAT     H149505   8.378   2.388   1.289
16421WAT     H249506   8.276   2.290   1.371
16422WAT      O49507   5.607   2.203   2.353
16422WAT     H149508   5.517   2.202   2.396
16422WAT     H249509   5.646   2.111   2.355
16423WAT      O49510   4.069   4.837   7.639
16423WAT     H149511   4.040   4.911   7.578
16423WAT     H249512   4.169   4.831   7.637
16424WAT      O49513   5.781   7.156   1.650
16424WAT     H149514   5.856   7.222   1.650
16424WAT     H249515   5.808   7.075   1.702
16425WAT      O49516   0.788   8.660   0.958
16425WAT     H149517   0.849   8.585   0.932
16425WAT     H249518   0.825   8.708   1.037
16426WAT      O49519   5.667   8.202   2.482
16426WAT     H149520   5.577   8.159   2.490
16426WAT     H249521   5.658   8.288   2.432
16427WAT      O49522   0.906   2.870   5.631
16427WAT     H149523   0.978   2.938   5.619
16427WAT     H249524   0.922   2.821   5.718
16428WAT      O49525   8.742   2.380   2.802
16428WAT     H149526   8.683   2.383   2.883
16428WAT     H249527   8.692   2.340   2.725
16429WAT      O49528   8.907   0.821   3.876
16429WAT     H149529   8.835   0.761   3.912
16429WAT     H249530   8.928   0.794   3.781
16430WAT      O49531   5.736   8.395   8.519
16430WAT     H149532   5.655   8.349   8.557
16430WAT     H249533   5.708   8.475   8.468
16431WAT      O49534   3.173   4.246   0.643
16431WAT     H149535   3.217   4.320   0.695
16431WAT     H249536   3.243   4.191   0.598
16432WAT      O49537   8.695   8.728   6.780
16432WAT     H149538   8.599   8.701   6.785
16432WAT     H249539   8.702   8.816   6.733
16433WAT      O49540   3.343   9.424   4.747
16433WAT     H149541   3.288   9.457   4.671
16433WAT     H249542   3.284   9.399   4.824
16434WAT      O49543   5.453   8.984   3.656
16434WAT     H149544   5.375   8.960   3.714
16434WAT     H249545   5.460   9.083   3.648
16435WAT      O49546   4.400   1.045   4.774
16435WAT     H149547   4.348   1.080   4.853
16435WAT     H249548   4.430   1.121   4.717
16436WAT      O49549   5.395   2.376   3.855
16436WAT     H149550   5.367   2.285   3.886
16436WAT     H249551   5.473   2.407   3.909
16437WAT      O49552   0.931   7.507   9.190
16437WAT     H149553   1.024   7.525   9.225
16437WAT     H249554   0.875   7.471   9.264
16438WAT      O49555   5.898   5.563   4.857
16438WAT     H149556   5.934   5.593   4.945
16438WAT     H249557   5.802   5.588   4.849
16439WAT      O49558   8.754   8.844   0.405
16439WAT     H149559   8.773   8.759   0.455
16439WAT     H249560   8.689   8.899   0.457
16440WAT      O49561   5.972   5.396   2.110
16440WAT     H149562   5.977   5.426   2.014
16440WAT     H249563   5.876   5.397   2.140
16441WAT      O49564   2.836   3.171   8.336
16441WAT     H149565   2.853   3.237   8.409
16441WAT     H249566   2.750   3.193   8.291
16442WAT      O49567   1.353   9.775   8.041
16442WAT     H149568   1.337   9.685   7.999
16442WAT     H249569   1.330   9.847   7.975
16443WAT      O49570   8.393   1.882   6.845
16443WAT     H149571   8.368   1.871   6.749
16443WAT     H249572   8.320   1.931   6.893
16444WAT      O49573   5.239   1.484   8.512
16444WAT     H149574   5.266   1.440   8.426
16444WAT     H249575   5.237   1.415   8.585
16445WAT      O49576   5.949   7.911   0.415
16445WAT     H149577   5.948   7.833   0.476
16445WAT     H249578   6.038   7.918   0.370
16446WAT      O49579   7.112   4.185   7.760
16446WAT     H149580   7.033   4.243   7.779
16446WAT     H249581   7.099   4.137   7.674
16447WAT      O49582   7.100   0.163   7.822
16447WAT     H149583   7.009   0.123   7.835
16447WAT     H249584   7.129   0.150   7.727
16448WAT      O49585   2.601   6.363   7.244
16448WAT     H149586   2.668   6.436   7.238
16448WAT     H249587   2.638   6.287   7.298
16449WAT      O49588   8.255   4.501   0.499
16449WAT     H149589   8.201   4.529   0.578
16449WAT     H249590   8.286   4.582   0.449
16450WAT      O49591   4.603   4.066   1.286
16450WAT     H149592   4.528   4.020   1.334
16450WAT     H249593   4.570   4.100   1.198
16451WAT      O49594   7.487   4.016   6.568
16451WAT     H149595   7.550   4.057   6.502
16451WAT     H249596   7.437   3.941   6.524
16452WAT      O49597   3.510   0.675   4.313
16452WAT     H149598   3.475   0.633   4.397
16452WAT     H249599   3.581   0.741   4.337
16453WAT      O49600   2.306   2.357   2.005
16453WAT     H149601   2.346   2.379   2.094
16453WAT     H249602   2.374   2.370   1.934
16454WAT      O49603   0.701   6.692   2.470
16454WAT     H149604   0.743   6.706   2.380
16454WAT     H249605   0.618   6.637   2.460
16455WAT      O49606   5.558   0.462   4.689
16455WAT     H149607   5.510   0.385   4.731
16455WAT     H249608   5.654   0.438   4.675
16456WAT      O49609   4.548   6.724   7.208
16456WAT     H149610   4.582   6.651   7.268
16456WAT     H249611   4.614   6.738   7.134
16457WAT      O49612   5.992   0.550   7.001
16457WAT     H149613   6.064   0.615   6.976
16457WAT     H249614   6.012   0.461   6.961
16458WAT      O49615   2.787   7.899   5.359
16458WAT     H149616   2.795   7.837   5.280
16458WAT     H249617   2.785   7.993   5.327
16459WAT      O49618   8.945   9.802   7.950
16459WAT     H149619   9.023   9.752   7.912
16459WAT     H249620   8.862   9.779   7.898
16460WAT      O49621   0.095   3.802   8.090
16460WAT     H149622   0.027   3.729   8.102
16460WAT     H249623   0.079   3.874   8.157
16461WAT      O49624   8.247   1.455   0.779
16461WAT     H149625   8.216   1.365   0.807
16461WAT     H249626   8.340   1.448   0.742
16462WAT      O49627   6.637   3.981   2.312
16462WAT     H149628   6.563   4.021   2.257
16462WAT     H249629   6.604   3.897   2.355
16463WAT      O49630   0.664   3.322   1.939
16463WAT     H149631   0.594   3.312   1.869
16463WAT     H249632   0.682   3.419   1.955
16464WAT      O49633   0.946   7.054   5.882
16464WAT     H149634   0.879   7.109   5.932
16464WAT     H249635   0.968   7.099   5.796
16465WAT      O49636   4.033   5.730   2.580
16465WAT     H149637   3.972   5.739   2.659
16465WAT     H249638   4.043   5.633   2.557
16466WAT      O49639   9.009   2.319   2.651
16466WAT     H149640   8.946   2.336   2.727
16466WAT     H249641   9.099   2.354   2.675
16467WAT      O49642   4.429   0.162   2.898
16467WAT     H149643   4.430   0.138   2.801
16467WAT     H249644   4.378   0.247   2.911
16468WAT      O49645   2.410   4.253   6.671
16468WAT     H149646   2.464   4.280   6.592
16468WAT     H249647   2.451   4.172   6.714
16469WAT      O49648   5.902   0.612   5.696
16469WAT     H149649   5.975   0.612   5.628
16469WAT     H249650   5.900   0.524   5.743
16470WAT      O49651   8.356   1.900   5.366
16470WAT     H149652   8.315   1.890   5.276
16470WAT     H249653   8.394   1.812   5.395
16471WAT      O49654   2.314   0.819   4.001
16471WAT     H149655   2.309   0.786   3.906
16471WAT     H249656   2.262   0.904   4.009
16472WAT      O49657   0.634   3.285   7.439
16472WAT     H149658   0.730   3.305   7.460
16472WAT     H249659   0.578   3.363   7.463
16473WAT      O49660   7.528   0.049   2.858
16473WAT     H149661   7.431   0.027   2.847
16473WAT     H249662   7.548   0.136   2.814
16474WAT      O49663   3.996   9.471   8.534
16474WAT     H149664   3.931   9.486   8.459
16474WAT     H249665   4.052   9.553   8.546
16475WAT      O49666   6.288   2.561   8.239
16475WAT     H149667   6.203   2.521   8.205
16475WAT     H249668   6.291   2.553   8.339
16476WAT      O49669   6.165   9.782   9.498
16476WAT     H149670   6.208   9.734   9.421
16476WAT     H249671   6.196   9.877   9.500
16477WAT      O49672   6.047   2.257   5.125
16477WAT     H149673   6.017   2.162   5.137
16477WAT     H249674   6.128   2.258   5.067
16478WAT      O49675   7.014   3.670   0.843
16478WAT     H149676   6.999   3.737   0.770
16478WAT     H249677   6.925   3.638   0.876
16479WAT      O49678   3.220   2.788   4.503
16479WAT     H149679   3.257   2.868   4.549
16479WAT     H249680   3.187   2.813   4.412
16480WAT      O49681   5.538   4.332   9.255
16480WAT     H149682   5.627   4.296   9.282
16480WAT     H249683   5.493   4.266   9.195
16481WAT      O49684   2.820   5.577   0.000
16481WAT     H149685   2.760   5.633  -0.057
16481WAT     H249686   2.799   5.593   0.097
16482WAT      O49687   6.798   9.206   2.469
16482WAT     H149688   6.741   9.165   2.540
16482WAT     H249689   6.739   9.250   2.400
16483WAT      O49690   6.112   8.490   3.241
16483WAT     H149691   6.135   8.453   3.151
16483WAT     H249692   6.035   8.554   3.231
16484WAT      O49693   2.682   4.250   8.081
16484WAT     H149694   2.709   4.330   8.135
16484WAT     H249695   2.725   4.256   7.991
16485WAT      O49696   2.707   8.064   1.705
16485WAT     H149697   2.736   8.144   1.758
16485WAT     H249698   2.657   8.001   1.765
16486WAT      O49699   8.862   7.068   3.255
16486WAT     H149700   8.895   6.979   3.285
16486WAT     H249701   8.860   7.130   3.333
16487WAT      O49702   2.788   7.715   6.330
16487WAT     H149703   2.763   7.779   6.257
16487WAT     H249704   2.882   7.685   6.316
16488WAT      O49705   7.139   4.880   6.450
16488WAT     H149706   7.146   4.839   6.358
16488WAT     H249707   7.220   4.935   6.468
16489WAT      O49708   1.697   0.066   0.232
16489WAT     H149709   1.619   0.059   0.295
16489WAT     H249710   1.738  -0.024   0.220
16490WAT      O49711   4.822   1.932   3.364
16490WAT     H149712   4.895   1.997   3.387
16490WAT     H249713   4.854   1.871   3.291
16491WAT      O49714   9.620   6.768   6.036
16491WAT     H149715   9.666   6.696   5.986
16491WAT     H249716   9.640   6.760   6.134
16492WAT      O49717   9.181   3.803   0.942
16492WAT     H149718   9.273   3.766   0.949
16492WAT     H249719   9.120   3.736   0.899
16493WAT      O49720   0.006   5.632   4.741
16493WAT     H149721  -0.069   5.690   4.708
16493WAT     H249722  -0.023   5.537   4.741
16494WAT      O49723   2.939   0.333   1.635
16494WAT     H149724   2.900   0.419   1.668
16494WAT     H249725   3.023   0.314   1.686
16495WAT      O49726   7.764   7.452   0.571
16495WAT     H149727   7.832   7.507   0.522
16495WAT     H249728   7.743   7.371   0.516
16496WAT      O49729   8.029   5.834   8.243
16496WAT     H149730   7.984   5.837   8.332
16496WAT     H249731   8.073   5.745   8.230
16497WAT      O49732   4.725   3.180   1.059
16497WAT     H149733   4.817   3.153   1.086
16497WAT     H249734   4.682   3.105   1.009
16498WAT      O49735   2.152   4.856   2.926
16498WAT     H149736   2.071   4.889   2.876
16498WAT     H249737   2.178   4.766   2.891
16499WAT      O49738   1.843   0.604   7.574
16499WAT     H149739   1.862   0.695   7.538
16499WAT     H249740   1.905   0.584   7.649
16500WAT      O49741   3.584   2.285   4.349
16500WAT     H149742   3.538   2.231   4.420
16500WAT     H249743   3.657   2.232   4.308
16501WAT      O49744   9.440   7.663   2.344
16501WAT     H149745   9.342   7.665   2.366
16501WAT     H249746   9.452   7.644   2.247
16502WAT      O49747   9.540   6.709   6.878
16502WAT     H149748   9.634   6.736   6.895
16502WAT     H249749   9.515   6.633   6.938
16503WAT      O49750   0.497   0.461   9.427
16503WAT     H149751   0.460   0.550   9.399
16503WAT     H249752   0.476   0.393   9.357
16504WAT      O49753   6.920   8.709   0.502
16504WAT     H149754   6.966   8.638   0.449
16504WAT     H249755   6.825   8.717   0.473
16505WAT      O49756   0.920   7.973   2.017
16505WAT     H149757   0.840   7.940   2.068
16505WAT     H249758   1.001   7.924   2.047
16506WAT      O49759   8.927   1.755   1.080
16506WAT     H149760   8.861   1.695   1.126
16506WAT     H249761   8.903   1.762   0.983
16507WAT      O49762   1.757   5.519   9.080
16507WAT     H149763   1.787   5.571   9.000
16507WAT     H249764   1.832   5.510   9.145
16508WAT      O49765   6.723   3.186   4.359
16508WAT     H149766   6.762   3.147   4.443
16508WAT     H249767   6.699   3.112   4.296
16509WAT      O49768   1.915   3.130   7.342
16509WAT     H149769   2.004   3.172   7.361
16509WAT     H249770   1.849   3.160   7.411
16510WAT      O49771   2.128   4.992   2.296
16510WAT     H149772   2.191   5.026   2.226
16510WAT     H249773   2.115   5.062   2.366
16511WAT      O49774   5.594   0.149   0.572
16511WAT     H149775   5.591   0.191   0.663
16511WAT     H249776   5.508   0.168   0.524
16512WAT      O49777   5.994   7.520   9.503
16512WAT     H149778   6.025   7.533   9.409
16512WAT     H249779   6.038   7.588   9.562
16513WAT      O49780   7.531   3.371   5.864
16513WAT     H149781   7.500   3.378   5.769
16513WAT     H249782   7.458   3.402   5.925
16514WAT      O49783   6.266   8.338   5.465
16514WAT     H149784   6.214   8.396   5.529
16514WAT     H249785   6.345   8.389   5.432
16515WAT      O49786   2.082   8.925   8.944
16515WAT     H149787   2.108   8.948   8.850
16515WAT     H249788   2.096   9.005   9.003
16516WAT      O49789   0.590   0.746   2.340
16516WAT     H149790   0.589   0.834   2.389
16516WAT     H249791   0.682   0.708   2.342
16517WAT      O49792   0.533   3.504   5.668
16517WAT     H149793   0.463   3.566   5.704
16517WAT     H249794   0.511   3.410   5.692
16518WAT      O49795   1.832   9.117   1.793
16518WAT     H149796   1.909   9.166   1.753
16518WAT     H249797   1.853   9.095   1.888
16519WAT      O49798   1.407   5.626   0.874
16519WAT     H149799   1.455   5.681   0.942
16519WAT     H249800   1.318   5.599   0.908
16520WAT      O49801   3.960   3.297   5.113
16520WAT     H149802   3.966   3.283   5.212
16520WAT     H249803   3.960   3.395   5.093
16521WAT      O49804   3.958   3.315   3.559
16521WAT     H149805   3.932   3.219   3.572
16521WAT     H249806   3.953   3.363   3.647
16522WAT      O49807   3.099   0.117   3.350
16522WAT     H149808   3.060   0.118   3.258
16522WAT     H249809   3.026   0.129   3.417
16523WAT      O49810   7.576   9.462   8.470
16523WAT     H149811   7.503   9.406   8.432
16523WAT     H249812   7.640   9.404   8.521
16524WAT      O49813   1.996   3.164   6.953
16524WAT     H149814   1.919   3.178   7.015
16524WAT     H249815   2.082   3.177   7.003
16525WAT      O49816   5.163   5.825   6.239
16525WAT     H149817   5.101   5.859   6.169
16525WAT     H249818   5.206   5.740   6.207
16526WAT      O49819   6.561   1.538   8.306
16526WAT     H149820   6.478   1.586   8.335
16526WAT     H249821   6.641   1.584   8.344
16527WAT      O49822   8.503   5.908   3.701
16527WAT     H149823   8.480   6.004   3.716
16527WAT     H249824   8.469   5.879   3.611
16528WAT      O49825   5.692   7.135   7.997
16528WAT     H149826   5.753   7.085   7.936
16528WAT     H249827   5.615   7.077   8.023
16529WAT      O49828   2.089   5.901   3.137
16529WAT     H149829   2.081   5.815   3.188
16529WAT     H249830   2.181   5.910   3.100
16530WAT      O49831   3.374   2.340   4.587
16530WAT     H149832   3.355   2.247   4.556
16530WAT     H249833   3.437   2.338   4.665
16531WAT      O49834   0.763   7.783   6.531
16531WAT     H149835   0.849   7.828   6.508
16531WAT     H249836   0.763   7.760   6.629
16532WAT      O49837   4.212   0.658   7.445
16532WAT     H149838   4.158   0.731   7.487
16532WAT     H249839   4.231   0.587   7.512
16533WAT      O49840   6.575   4.486   2.958
16533WAT     H149841   6.634   4.555   2.916
16533WAT     H249842   6.607   4.466   3.051
16534WAT      O49843   5.924   7.655   0.528
16534WAT     H149844   5.944   7.615   0.616
16534WAT     H249845   5.978   7.610   0.457
16535WAT      O49846   3.613   8.037   5.512
16535WAT     H149847   3.546   7.963   5.517
16535WAT     H249848   3.671   8.023   5.431
16536WAT      O49849   9.105   2.733   1.934
16536WAT     H149850   9.072   2.824   1.908
16536WAT     H249851   9.158   2.694   1.858
16537WAT      O49852   6.018   4.486   7.356
16537WAT     H149853   5.988   4.476   7.261
16537WAT     H249854   6.021   4.583   7.380
16538WAT      O49855   3.505   4.073   5.673
16538WAT     H149856   3.603   4.093   5.680
16538WAT     H249857   3.491   3.974   5.679
16539WAT      O49858   9.538   9.411   5.580
16539WAT     H149859   9.536   9.324   5.628
16539WAT     H249860   9.456   9.421   5.524
16540WAT      O49861   2.943   8.919   2.179
16540WAT     H149862   2.878   8.877   2.242
16540WAT     H249863   2.982   8.848   2.120
16541WAT      O49864   9.730   3.317   2.739
16541WAT     H149865   9.744   3.223   2.769
16541WAT     H249866   9.667   3.318   2.661
16542WAT      O49867   0.075   6.683   4.980
16542WAT     H149868   0.053   6.780   4.989
16542WAT     H249869   0.092   6.662   4.883
16543WAT      O49870   4.013   9.602   5.399
16543WAT     H149871   3.980   9.562   5.484
16543WAT     H249872   3.948   9.581   5.325
16544WAT      O49873   7.278   1.047   1.766
16544WAT     H149874   7.326   1.008   1.844
16544WAT     H249875   7.195   1.094   1.798
16545WAT      O49876   6.258   6.206   5.853
16545WAT     H149877   6.232   6.112   5.875
16545WAT     H249878   6.345   6.227   5.897
16546WAT      O49879   8.328   6.963   3.930
16546WAT     H149880   8.367   6.922   4.012
16546WAT     H249881   8.395   6.958   3.855
16547WAT      O49882   1.921   6.896   9.361
16547WAT     H149883   2.003   6.933   9.404
16547WAT     H249884   1.928   6.904   9.262
16548WAT      O49885   2.469   5.856   4.964
16548WAT     H149886   2.408   5.778   4.947
16548WAT     H249887   2.422   5.922   5.023
16549WAT      O49888   3.223   6.162   3.517
16549WAT     H149889   3.266   6.124   3.599
16549WAT     H249890   3.214   6.090   3.448
16550WAT      O49891   7.063   8.094   6.124
16550WAT     H149892   7.024   8.128   6.038
16550WAT     H249893   7.011   8.131   6.201
16551WAT      O49894   2.752   5.732   3.823
16551WAT     H149895   2.757   5.743   3.724
16551WAT     H249896   2.657   5.740   3.853
16552WAT      O49897   2.318   5.046   0.039
16552WAT     H149898   2.402   5.052   0.092
16552WAT     H249899   2.335   4.997  -0.047
16553WAT      O49900   4.993   2.074   0.389
16553WAT     H149901   4.915   2.015   0.366
16553WAT     H249902   5.059   2.023   0.444
16554WAT      O49903   5.472   1.371   5.529
16554WAT     H149904   5.416   1.450   5.504
16554WAT     H249905   5.507   1.328   5.446
16555WAT      O49906   9.129   3.567   4.743
16555WAT     H149907   9.184   3.556   4.826
16555WAT     H249908   9.109   3.664   4.729
16556WAT      O49909   9.157   2.443   4.671
16556WAT     H149910   9.069   2.469   4.711
16556WAT     H249911   9.198   2.370   4.726
16557WAT      O49912   7.310   9.769   7.586
16557WAT     H149913   7.392   9.818   7.557
16557WAT     H249914   7.236   9.834   7.601
16558WAT      O49915   9.506   6.305   7.766
16558WAT     H149916   9.525   6.376   7.833
16558WAT     H249917   9.411   6.311   7.736
16559WAT      O49918   3.845   8.360   4.684
16559WAT     H149919   3.805   8.271   4.665
16559WAT     H249920   3.917   8.380   4.617
16560WAT      O49921   1.747   0.982   5.478
16560WAT     H149922   1.779   0.951   5.388
16560WAT     H249923   1.819   0.964   5.546
16561WAT      O49924   0.007   7.743   5.699
16561WAT     H149925  -0.063   7.674   5.716
16561WAT     H249926   0.096   7.707   5.725
16562WAT      O49927   4.797   0.386   9.806
16562WAT     H149928   4.833   0.479   9.808
16562WAT     H249929   4.727   0.378   9.734
16563WAT      O49930   1.984   0.439   2.162
16563WAT     H149931   2.015   0.533   2.144
16563WAT     H249932   1.893   0.443   2.205
16564WAT      O49933   0.014   4.083   2.566
16564WAT     H149934  -0.008   4.176   2.596
16564WAT     H249935   0.069   4.087   2.482
16565WAT      O49936   8.795   2.077   9.056
16565WAT     H149937   8.833   1.987   9.032
16565WAT     H249938   8.763   2.123   8.974
16566WAT      O49939   8.347   3.238   1.831
16566WAT     H149940   8.282   3.268   1.761
16566WAT     H249941   8.325   3.282   1.918
16567WAT      O49942   4.753   8.439   5.017
16567WAT     H149943   4.695   8.385   5.078
16567WAT     H249944   4.719   8.430   4.923
16568WAT      O49945   9.172   8.566   4.710
16568WAT     H149946   9.112   8.542   4.786
16568WAT     H249947   9.260   8.597   4.746
16569WAT      O49948   8.472   7.615   5.379
16569WAT     H149949   8.461   7.704   5.422
16569WAT     H249950   8.490   7.627   5.281
16570WAT      O49951   3.255   1.493   6.348
16570WAT     H149952   3.200   1.523   6.426
16570WAT     H249953   3.334   1.441   6.380
16571WAT      O49954   2.741   3.358   2.422
16571WAT     H149955   2.674   3.307   2.368
16571WAT     H249956   2.757   3.447   2.380
16572WAT      O49957   5.427   1.714   1.868
16572WAT     H149958   5.386   1.673   1.787
16572WAT     H249959   5.466   1.803   1.845
16573WAT      O49960   2.489   1.829   7.078
16573WAT     H149961   2.475   1.903   7.012
16573WAT     H249962   2.587   1.819   7.096
16574WAT      O49963   9.058   9.470   4.380
16574WAT     H149964   9.039   9.393   4.318
16574WAT     H249965   9.150   9.504   4.363
16575WAT      O49966   7.592   6.777   0.639
16575WAT     H149967   7.522   6.730   0.585
16575WAT     H249968   7.561   6.869   0.662
16576WAT      O49969   6.677   6.774   8.877
16576WAT     H149970   6.772   6.801   8.864
16576WAT     H249971   6.617   6.853   8.865
16577WAT      O49972   7.477   9.371   1.559
16577WAT     H149973   7.472   9.276   1.588
16577WAT     H249974   7.546   9.419   1.614
16578WAT      O49975   5.986   5.909   5.451
16578WAT     H149976   6.051   5.869   5.516
16578WAT     H249977   5.911   5.844   5.434
16579WAT      O49978   3.405   9.351   2.876
16579WAT     H149979   3.482   9.401   2.915
16579WAT     H249980   3.419   9.337   2.778
16580WAT      O49981   3.568   6.900   0.146
16580WAT     H149982   3.655   6.942   0.172
16580WAT     H249983   3.540   6.933   0.056
16581WAT      O49984   3.288   9.468   9.625
16581WAT     H149985   3.342   9.414   9.691
16581WAT     H249986   3.274   9.415   9.542
16582WAT      O49987   5.711   0.175   8.373
16582WAT     H149988   5.625   0.175   8.322
16582WAT     H249989   5.726   0.266   8.412
16583WAT      O49990   2.870   2.615   7.413
16583WAT     H149991   2.801   2.577   7.351
16583WAT     H249992   2.920   2.540   7.457
16584WAT      O49993   5.407   6.430   5.531
16584WAT     H149994   5.375   6.382   5.449
16584WAT     H249995   5.507   6.427   5.534
16585WAT      O49996   4.867   2.653   3.157
16585WAT     H149997   4.870   2.658   3.057
16585WAT     H249998   4.828   2.738   3.193
16586WAT      O49999   4.777   6.436   3.489
16586WAT     H150000   4.822   6.356   3.450
16586WAT     H250001   4.753   6.500   3.416
16587WAT      O50002   8.679   1.759   4.994
16587WAT     H150003   8.648   1.707   4.914
16587WAT     H250004   8.631   1.846   4.998
16588WAT      O50005   2.570   9.791   2.652
16588WAT     H150006   2.642   9.836   2.705
16588WAT     H250007   2.608   9.709   2.608
16589WAT      O50008   8.934   2.807   6.623
16589WAT     H150009   8.892   2.751   6.694
16589WAT     H250010   8.906   2.774   6.533
16590WAT      O50011   8.459   6.274   5.400
16590WAT     H150012   8.479   6.219   5.319
16590WAT     H250013   8.363   6.259   5.427
16591WAT      O50014   3.476   7.032   2.224
16591WAT     H150015   3.569   6.996   2.220
16591WAT     H250016   3.422   6.979   2.289
16592WAT      O50017   5.731   2.780   2.350
16592WAT     H150018   5.740   2.813   2.256
16592WAT     H250019   5.640   2.801   2.385
16593WAT      O50020   1.274   4.796   3.891
16593WAT     H150021   1.218   4.714   3.898
16593WAT     H250022   1.314   4.801   3.800
16594WAT      O50023   1.475   3.971   8.216
16594WAT     H150024   1.541   3.899   8.194
16594WAT     H250025   1.524   4.057   8.232
16595WAT      O50026   0.048   2.364   5.966
16595WAT     H150027   0.091   2.430   6.026
16595WAT     H250028   0.062   2.272   6.001
16596WAT      O50029   8.092   8.025   3.608
16596WAT     H150030   8.023   8.034   3.679
16596WAT     H250031   8.183   8.032   3.650
16597WAT      O50032   8.885   0.458   7.707
16597WAT     H150033   8.873   0.447   7.805
16597WAT     H250034   8.888   0.368   7.664
16598WAT      O50035   9.059   2.039   4.675
16598WAT     H150036   9.118   1.957   4.676
16598WAT     H250037   9.080   2.094   4.594
16599WAT      O50038   2.665   5.770   9.774
16599WAT     H150039   2.574   5.749   9.809
16599WAT     H250040   2.661   5.777   9.674
16600WAT      O50041   6.391   7.674   5.039
16600WAT     H150042   6.305   7.683   5.090
16600WAT     H250043   6.405   7.578   5.016
16601WAT      O50044   2.274   4.911   7.094
16601WAT     H150045   2.276   4.826   7.041
16601WAT     H250046   2.341   4.975   7.057
16602WAT      O50047   3.064   9.075   5.031
16602WAT     H150048   3.155   9.057   4.995
16602WAT     H250049   3.067   9.074   5.131
16603WAT      O50050   8.540   9.335   5.550
16603WAT     H150051   8.459   9.391   5.567
16603WAT     H250052   8.535   9.299   5.456
16604WAT      O50053   6.142   0.578   0.852
16604WAT     H150054   6.054   0.603   0.812
16604WAT     H250055   6.148   0.479   0.861
16605WAT      O50056   0.222   0.662   3.587
16605WAT     H150057   0.207   0.575   3.541
16605WAT     H250058   0.153   0.675   3.658
16606WAT      O50059   9.603   4.294   9.299
16606WAT     H150060   9.674   4.223   9.293
16606WAT     H250061   9.554   4.285   9.386
16607WAT      O50062   9.775   2.972   5.659
16607WAT     H150063   9.746   2.947   5.752
16607WAT     H250064   9.705   3.029   5.617
16608WAT      O50065   6.338   8.736   7.145
16608WAT     H150066   6.360   8.681   7.226
16608WAT     H250067   6.422   8.760   7.097
16609WAT      O50068   1.602   0.064   2.001
16609WAT     H150069   1.594   0.001   1.923
16609WAT     H250070   1.639   0.014   2.080
16610WAT      O50071   3.774   4.759   1.554
16610WAT     H150072   3.779   4.706   1.638
16610WAT     H250073   3.751   4.699   1.477
16611WAT      O50074   0.846   2.147   2.948
16611WAT     H150075   0.762   2.176   2.995
16611WAT     H250076   0.879   2.062   2.988
16612WAT      O50077   0.232   7.282   6.123
16612WAT     H150078   0.310   7.326   6.167
16612WAT     H250079   0.181   7.229   6.190
16613WAT      O50080   7.888   9.704   6.818
16613WAT     H150081   7.967   9.644   6.820
16613WAT     H250082   7.805   9.650   6.834
16614WAT      O50083   4.166   0.353   8.882
16614WAT     H150084   4.153   0.285   8.955
16614WAT     H250085   4.193   0.440   8.923
16615WAT      O50086   3.131   7.927   9.716
16615WAT     H150087   3.090   7.874   9.790
16615WAT     H250088   3.082   7.909   9.631
16616WAT      O50089   1.216   0.305   0.790
16616WAT     H150090   1.301   0.320   0.739
16616WAT     H250091   1.175   0.394   0.811
16617WAT      O50092   6.314   1.247   8.872
16617WAT     H150093   6.334   1.209   8.963
16617WAT     H250094   6.382   1.317   8.850
16618WAT      O50095   4.961   3.120   5.614
16618WAT     H150096   4.976   3.022   5.624
16618WAT     H250097   4.870   3.144   5.645
16619WAT      O50098   0.149   0.387   5.248
16619WAT     H150099   0.127   0.290   5.257
16619WAT     H250100   0.078   0.442   5.292
16620WAT      O50101   5.821   4.273   3.855
16620WAT     H150102   5.724   4.264   3.835
16620WAT     H250103   5.866   4.323   3.780
16621WAT      O50104   2.553   0.525   5.531
16621WAT     H150105   2.638   0.568   5.560
16621WAT     H250106   2.504   0.489   5.611
16622WAT      O50107   6.706   9.202   5.624
16622WAT     H150108   6.797   9.226   5.591
16622WAT     H250109   6.645   9.188   5.546
16623WAT      O50110   6.432   2.461   2.406
16623WAT     H150111   6.356   2.419   2.356
16623WAT     H250112   6.416   2.452   2.504
16624WAT      O50113   3.058   3.244   3.707
16624WAT     H150114   3.072   3.214   3.802
16624WAT     H250115   2.992   3.185   3.662
16625WAT      O50116   4.036   4.890   0.252
16625WAT     H150117   3.961   4.904   0.187
16625WAT     H250118   4.030   4.957   0.326
16626WAT      O50119   9.355   5.031   5.718
16626WAT     H150120   9.337   4.949   5.664
16626WAT     H250121   9.286   5.101   5.697
16627WAT      O50122   6.168   0.011   2.115
16627WAT     H150123   6.089   0.071   2.101
16627WAT     H250124   6.186   0.003   2.213
16628WAT      O50125   1.682   7.974   2.762
16628WAT     H150126   1.676   8.067   2.798
16628WAT     H250127   1.776   7.954   2.736
16629WAT      O50128   5.875   2.275   7.398
16629WAT     H150129   5.818   2.283   7.317
16629WAT     H250130   5.818   2.283   7.480
16630WAT      O50131   0.336   7.655   0.533
16630WAT     H150132   0.374   7.695   0.450
16630WAT     H250133   0.273   7.719   0.575
16631WAT      O50134   0.916   0.723   0.885
16631WAT     H150135   0.876   0.735   0.976
16631WAT     H250136   0.871   0.647   0.838
16632WAT      O50137   8.419   1.124   7.252
16632WAT     H150138   8.430   1.223   7.259
16632WAT     H250139   8.352   1.103   7.180
16633WAT      O50140   7.770   6.351   1.121
16633WAT     H150141   7.748   6.255   1.136
16633WAT     H250142   7.793   6.394   1.209
16634WAT      O50143   4.599   0.258   9.048
16634WAT     H150144   4.684   0.310   9.051
16634WAT     H250145   4.567   0.251   8.954
16635WAT      O50146   6.656   3.939   8.766
16635WAT     H150147   6.668   3.856   8.712
16635WAT     H250148   6.742   3.962   8.812
16636WAT      O50149   7.959   2.928   0.786
16636WAT     H150150   7.931   2.981   0.706
16636WAT     H250151   8.035   2.975   0.831
16637WAT      O50152   1.069   4.768   0.866
16637WAT     H150153   1.018   4.813   0.939
16637WAT     H250154   1.006   4.729   0.799
16638WAT      O50155   0.458   5.716   3.340
16638WAT     H150156   0.416   5.689   3.254
16638WAT     H250157   0.556   5.731   3.326
16639WAT      O50158   9.035   5.973   4.003
16639WAT     H150159   9.073   5.939   3.917
16639WAT     H250160   8.936   5.980   3.994
16640WAT      O50161   7.355   8.919   5.841
16640WAT     H150162   7.381   8.826   5.815
16640WAT     H250163   7.381   8.982   5.768
16641WAT      O50164   8.047   2.532   6.397
16641WAT     H150165   8.013   2.550   6.489
16641WAT     H250166   8.032   2.613   6.339
16642WAT      O50167   0.996   0.555   7.883
16642WAT     H150168   1.065   0.536   7.953
16642WAT     H250169   0.963   0.649   7.893
16643WAT      O50170   7.892   2.395   1.033
16643WAT     H150171   7.878   2.362   1.126
16643WAT     H250172   7.820   2.461   1.010
16644WAT      O50173   8.041   7.913   9.683
16644WAT     H150174   7.960   7.855   9.674
16644WAT     H250175   8.024   8.002   9.640
16645WAT      O50176   3.226   6.183   9.862
16645WAT     H150177   3.314   6.215   9.826
16645WAT     H250178   3.206   6.230   9.948
16646WAT      O50179   0.156   0.733   5.645
16646WAT     H150180   0.178   0.637   5.661
16646WAT     H250181   0.160   0.783   5.732
16647WAT      O50182   7.848   4.773   6.363
16647WAT     H150183   7.884   4.830   6.289
16647WAT     H250184   7.868   4.817   6.451
16648WAT      O50185   2.049   7.465   4.289
16648WAT     H150186   1.987   7.519   4.232
16648WAT     H250187   2.088   7.525   4.359
16649WAT      O50188   2.269   1.262   4.439
16649WAT     H150189   2.341   1.270   4.508
16649WAT     H250190   2.213   1.345   4.440
16650WAT      O50191   3.210   4.595   9.298
16650WAT     H150192   3.164   4.679   9.327
16650WAT     H250193   3.235   4.541   9.378
16651WAT      O50194   4.617   6.275   7.738
16651WAT     H150195   4.666   6.211   7.798
16651WAT     H250196   4.575   6.225   7.662
16652WAT      O50197   2.716   8.392   6.082
16652WAT     H150198   2.673   8.309   6.118
16652WAT     H250199   2.668   8.420   5.998
16653WAT      O50200   6.900   6.153   7.633
16653WAT     H150201   6.934   6.235   7.680
16653WAT     H250202   6.833   6.107   7.691
16654WAT      O50203   9.427   3.830   2.833
16654WAT     H150204   9.466   3.753   2.784
16654WAT     H250205   9.501   3.891   2.863
16655WAT      O50206   2.563   9.569   4.146
16655WAT     H150207   2.645   9.594   4.198
16655WAT     H250208   2.521   9.487   4.186
16656WAT      O50209   2.437   7.440   4.471
16656WAT     H150210   2.386   7.440   4.557
16656WAT     H250211   2.475   7.531   4.455
16657WAT      O50212   6.347   8.510   6.258
16657WAT     H150213   6.286   8.507   6.179
16657WAT     H250214   6.295   8.538   6.339
16658WAT      O50215   3.138   3.015   4.959
16658WAT     H150216   3.231   3.049   4.945
16658WAT     H250217   3.134   2.917   4.940
16659WAT      O50218   0.382   6.112   9.436
16659WAT     H150219   0.425   6.184   9.382
16659WAT     H250220   0.443   6.084   9.510
16660WAT      O50221   5.066   6.844   9.486
16660WAT     H150222   5.069   6.798   9.575
16660WAT     H250223   5.003   6.795   9.426
16661WAT      O50224   8.731   2.175   3.179
16661WAT     H150225   8.795   2.105   3.147
16661WAT     H250226   8.714   2.162   3.277
16662WAT      O50227   4.395   0.739   8.049
16662WAT     H150228   4.414   0.683   7.969
16662WAT     H250229   4.315   0.704   8.097
16663WAT      O50230   4.762   1.249   4.713
16663WAT     H150231   4.792   1.332   4.762
16663WAT     H250232   4.663   1.245   4.712
16664WAT      O50233   2.585   3.330   6.459
16664WAT     H150234   2.615   3.390   6.385
16664WAT     H250235   2.630   3.358   6.544
16665WAT      O50236   8.725   2.002   7.709
16665WAT     H150237   8.687   2.094   7.722
16665WAT     H250238   8.789   2.003   7.632
16666WAT      O50239   9.247   7.128   5.976
16666WAT     H150240   9.339   7.165   5.971
16666WAT     H250241   9.223   7.111   6.072
16667WAT      O50242   1.339   4.354   6.154
16667WAT     H150243   1.301   4.265   6.126
16667WAT     H250244   1.431   4.364   6.116
16668WAT      O50245   9.380   0.040   5.854
16668WAT     H150246   9.371   0.028   5.953
16668WAT     H250247   9.313  -0.019   5.808
16669WAT      O50248   6.780   7.369   4.604
16669WAT     H150249   6.871   7.361   4.647
16669WAT     H250250   6.787   7.347   4.507
16670WAT      O50251   3.370   5.211   5.417
16670WAT     H150252   3.432   5.149   5.464
16670WAT     H250253   3.413   5.301   5.408
16671WAT      O50254   8.104   7.209   7.656
16671WAT     H150255   8.178   7.155   7.696
16671WAT     H250256   8.107   7.302   7.693
16672WAT      O50257   8.063   8.742   3.951
16672WAT     H150258   8.077   8.831   3.908
16672WAT     H250259   8.151   8.696   3.961
16673WAT      O50260   9.459   4.783   8.534
16673WAT     H150261   9.498   4.731   8.610
16673WAT     H250262   9.382   4.732   8.495
16674WAT      O50263   7.008   4.850   4.862
16674WAT     H150264   7.030   4.752   4.858
16674WAT     H250265   6.909   4.861   4.871
16675WAT      O50266   1.609   0.717   6.812
16675WAT     H150267   1.515   0.713   6.846
16675WAT     H250268   1.640   0.624   6.790
16676WAT      O50269   2.756   8.603   0.688
16676WAT     H150270   2.665   8.568   0.666
16676WAT     H250271   2.784   8.670   0.619
16677WAT      O50272   1.219   2.306   7.953
16677WAT     H150273   1.187   2.370   7.883
16677WAT     H250274   1.302   2.261   7.921
16678WAT      O50275   6.852   5.781   7.329
16678WAT     H150276   6.877   5.762   7.234
16678WAT     H250277   6.762   5.742   7.348
16679WAT      O50278   9.827   2.014   9.713
16679WAT     H150279   9.844   2.079   9.788
16679WAT     H250280   9.883   2.040   9.634
16680WAT      O50281   3.941   4.984   1.820
16680WAT     H150282   3.854   4.975   1.771
16680WAT     H250283   3.929   4.954   1.914
16681WAT      O50284   2.414   4.419   4.059
16681WAT     H150285   2.503   4.400   4.100
16681WAT     H250286   2.361   4.478   4.119
16682WAT      O50287   5.876   7.952   8.463
16682WAT     H150288   5.932   8.034   8.475
16682WAT     H250289   5.790   7.977   8.417
16683WAT      O50290   1.472   8.683   1.178
16683WAT     H150291   1.559   8.695   1.227
16683WAT     H250292   1.436   8.592   1.197
16684WAT      O50293   2.467   9.772   0.763
16684WAT     H150294   2.421   9.685   0.780
16684WAT     H250295   2.411   9.847   0.800
16685WAT      O50296   4.915   9.535   2.563
16685WAT     H150297   4.927   9.548   2.465
16685WAT     H250298   4.820   9.512   2.583
16686WAT      O50299   1.891   2.657   9.032
16686WAT     H150300   1.877   2.689   9.126
16686WAT     H250301   1.988   2.664   9.008
16687WAT      O50302   5.281   8.424   1.234
16687WAT     H150303   5.212   8.372   1.183
16687WAT     H250304   5.256   8.521   1.236
16688WAT      O50305   5.367   7.697   2.885
16688WAT     H150306   5.445   7.740   2.931
16688WAT     H250307   5.285   7.706   2.941
16689WAT      O50308   4.568   7.669   4.237
16689WAT     H150309   4.483   7.618   4.226
16689WAT     H250310   4.552   7.766   4.218
16690WAT      O50311   1.884   8.912   2.303
16690WAT     H150312   1.940   8.833   2.278
16690WAT     H250313   1.800   8.881   2.348
16691WAT      O50314   2.629   9.745   6.411
16691WAT     H150315   2.644   9.801   6.493
16691WAT     H250316   2.716   9.704   6.383
16692WAT      O50317   9.347   0.398   4.453
16692WAT     H150318   9.299   0.311   4.437
16692WAT     H250319   9.311   0.441   4.535
16693WAT      O50320   6.203   0.071   8.524
16693WAT     H150321   6.261   0.062   8.604
16693WAT     H250322   6.118   0.118   8.549
16694WAT      O50323   5.677   6.753   1.596
16694WAT     H150324   5.750   6.782   1.656
16694WAT     H250325   5.716   6.713   1.513
16695WAT      O50326   0.965   8.800   4.348
16695WAT     H150327   0.978   8.835   4.441
16695WAT     H250328   0.929   8.873   4.290
16696WAT      O50329   5.335   5.628   4.790
16696WAT     H150330   5.396   5.559   4.751
16696WAT     H250331   5.304   5.599   4.880
16697WAT      O50332   0.746   1.951   6.715
16697WAT     H150333   0.770   2.046   6.699
16697WAT     H250334   0.751   1.932   6.814
16698WAT      O50335   2.979   8.800   6.087
16698WAT     H150336   2.977   8.851   6.173
16698WAT     H250337   3.055   8.734   6.089
16699WAT      O50338   6.619   8.610   7.891
16699WAT     H150339   6.660   8.541   7.951
16699WAT     H250340   6.681   8.688   7.882
16700WAT      O50341   9.126   5.708   3.578
16700WAT     H150342   9.219   5.723   3.610
16700WAT     H250343   9.063   5.713   3.656
16701WAT      O50344   4.713   2.394   8.553
16701WAT     H150345   4.749   2.470   8.498
16701WAT     H250346   4.623   2.420   8.589
16702WAT      O50347   2.028   9.595   6.773
16702WAT     H150348   1.961   9.656   6.732
16702WAT     H250349   2.049   9.520   6.709
16703WAT      O50350   8.195   0.281   3.764
16703WAT     H150351   8.167   0.354   3.827
16703WAT     H250352   8.208   0.196   3.815
16704WAT      O50353   8.448   5.530   5.643
16704WAT     H150354   8.382   5.558   5.713
16704WAT     H250355   8.534   5.504   5.687
16705WAT      O50356   2.573   3.468   3.249
16705WAT     H150357   2.611   3.482   3.158
16705WAT     H250358   2.609   3.537   3.312
16706WAT      O50359   3.748   8.937   4.175
16706WAT     H150360   3.837   8.967   4.210
16706WAT     H250361   3.705   8.876   4.240
16707WAT      O50362   7.184   6.361   9.406
16707WAT     H150363   7.181   6.443   9.349
16707WAT     H250364   7.202   6.281   9.349
16708WAT      O50365   6.116   6.403   7.583
16708WAT     H150366   6.174   6.426   7.661
16708WAT     H250367   6.170   6.409   7.499
16709WAT      O50368   7.830   3.972   0.090
16709WAT     H150369   7.806   4.069   0.080
16709WAT     H250370   7.766   3.916   0.038
16710WAT      O50371   6.815   3.589   0.250
16710WAT     H150372   6.808   3.517   0.320
16710WAT     H250373   6.739   3.653   0.260
16711WAT      O50374   3.523   2.463   8.501
16711WAT     H150375   3.433   2.506   8.493
16711WAT     H250376   3.572   2.500   8.579
16712WAT      O50377   4.753   4.656   2.841
16712WAT     H150378   4.690   4.688   2.912
16712WAT     H250379   4.715   4.679   2.751
16713WAT      O50380   2.625   0.240   3.416
16713WAT     H150381   2.608   0.198   3.328
16713WAT     H250382   2.601   0.337   3.412
16714WAT      O50383   9.415   7.282   1.993
16714WAT     H150384   9.480   7.355   2.017
16714WAT     H250385   9.448   7.234   1.912
16715WAT      O50386   0.161   5.405   4.227
16715WAT     H150387   0.102   5.467   4.175
16715WAT     H250388   0.129   5.311   4.217
16716WAT      O50389   4.114   8.547   7.110
16716WAT     H150390   4.051   8.601   7.166
16716WAT     H250391   4.200   8.596   7.101
16717WAT      O50392   9.295   4.651   6.415
16717WAT     H150393   9.314   4.556   6.392
16717WAT     H250394   9.265   4.700   6.333
16718WAT      O50395   4.810   3.808   7.795
16718WAT     H150396   4.781   3.712   7.793
16718WAT     H250397   4.733   3.867   7.768
16719WAT      O50398   1.684   4.993   5.294
16719WAT     H150399   1.632   5.013   5.378
16719WAT     H250400   1.652   4.906   5.256
16720WAT      O50401   5.874   2.496   0.309
16720WAT     H150402   5.833   2.541   0.388
16720WAT     H250403   5.974   2.506   0.312
16721WAT      O50404   6.417   3.334   1.140
16721WAT     H150405   6.472   3.261   1.100
16721WAT     H250406   6.466   3.375   1.216
16722WAT      O50407   3.522   4.893   6.463
16722WAT     H150408   3.562   4.816   6.513
16722WAT     H250409   3.423   4.881   6.456
16723WAT      O50410   1.280   5.311   1.397
16723WAT     H150411   1.258   5.222   1.356
16723WAT     H250412   1.355   5.354   1.347
16724WAT      O50413   9.567   7.084   7.416
16724WAT     H150414   9.504   7.020   7.460
16724WAT     H250415   9.660   7.047   7.420
16725WAT      O50416   8.921   7.594   8.903
16725WAT     H150417   8.988   7.522   8.884
16725WAT     H250418   8.830   7.562   8.877
16726WAT      O50419   0.187   1.174   9.584
16726WAT     H150420   0.115   1.240   9.605
16726WAT     H250421   0.276   1.218   9.595
16727WAT      O50422   9.563   2.070   2.020
16727WAT     H150423   9.479   2.035   2.062
16727WAT     H250424   9.540   2.120   1.937
16728WAT      O50425   1.092   7.927   5.837
16728WAT     H150426   1.046   7.964   5.757
16728WAT     H250427   1.190   7.922   5.820
16729WAT      O50428   4.862   7.582   6.765
16729WAT     H150429   4.940   7.521   6.751
16729WAT     H250430   4.843   7.590   6.863
16730WAT      O50431   4.905   9.728   6.001
16730WAT     H150432   4.956   9.800   5.955
16730WAT     H250433   4.851   9.766   6.076
16731WAT      O50434   5.453   3.481   2.163
16731WAT     H150435   5.395   3.409   2.124
16731WAT     H250436   5.399   3.537   2.226
16732WAT      O50437   7.062   3.969   4.437
16732WAT     H150438   7.161   3.962   4.447
16732WAT     H250439   7.031   3.899   4.372
16733WAT      O50440   4.986   9.088   4.864
16733WAT     H150441   4.907   9.116   4.919
16733WAT     H250442   5.043   9.025   4.918
16734WAT      O50443   2.524   6.463   2.648
16734WAT     H150444   2.435   6.490   2.685
16734WAT     H250445   2.510   6.406   2.567
16735WAT      O50446   5.670   1.322   5.280
16735WAT     H150447   5.747   1.352   5.337
16735WAT     H250448   5.670   1.376   5.195
16736WAT      O50449   4.166   6.263   8.983
16736WAT     H150450   4.259   6.232   9.004
16736WAT     H250451   4.147   6.347   9.033
16737WAT      O50452   8.142   5.390   6.969
16737WAT     H150453   8.090   5.458   6.917
16737WAT     H250454   8.113   5.391   7.064
16738WAT      O50455   0.912   4.043   3.517
16738WAT     H150456   0.996   4.025   3.567
16738WAT     H250457   0.875   4.132   3.545
16739WAT      O50458   8.502   7.697   8.616
16739WAT     H150459   8.434   7.634   8.652
16739WAT     H250460   8.555   7.653   8.544
16740WAT      O50461   4.842   7.556   7.033
16740WAT     H150462   4.934   7.577   7.065
16740WAT     H250463   4.779   7.629   7.060
16741WAT      O50464   3.376   4.651   3.607
16741WAT     H150465   3.289   4.678   3.649
16741WAT     H250466   3.451   4.672   3.670
16742WAT      O50467   5.992   3.348   2.111
16742WAT     H150468   5.918   3.360   2.045
16742WAT     H250469   6.066   3.296   2.069
16743WAT      O50470   4.896   3.773   8.591
16743WAT     H150471   4.932   3.750   8.682
16743WAT     H250472   4.803   3.738   8.583
16744WAT      O50473   4.800   1.732   7.332
16744WAT     H150474   4.746   1.655   7.367
16744WAT     H250475   4.874   1.752   7.396
16745WAT      O50476   0.655   8.236   6.111
16745WAT     H150477   0.557   8.250   6.097
16745WAT     H250478   0.671   8.197   6.202
16746WAT      O50479   1.665   3.640   6.361
16746WAT     H150480   1.615   3.555   6.341
16746WAT     H250481   1.671   3.652   6.460
16747WAT      O50482   1.027   1.820   6.829
16747WAT     H150483   1.026   1.723   6.855
16747WAT     H250484   1.016   1.828   6.730
16748WAT      O50485   2.405   3.315   6.147
16748WAT     H150486   2.439   3.408   6.133
16748WAT     H250487   2.305   3.317   6.153
16749WAT      O50488   8.880   6.566   3.193
16749WAT     H150489   8.897   6.592   3.098
16749WAT     H250490   8.786   6.589   3.218
16750WAT      O50491   3.356   6.958   1.132
16750WAT     H150492   3.274   6.941   1.078
16750WAT     H250493   3.394   6.871   1.164
16751WAT      O50494   8.016   2.969   7.164
16751WAT     H150495   7.931   2.917   7.170
16751WAT     H250496   8.085   2.928   7.224
16752WAT      O50497   7.495   4.927   3.926
16752WAT     H150498   7.561   4.903   3.996
16752WAT     H250499   7.498   5.026   3.909
16753WAT      O50500   8.200   7.396   9.413
16753WAT     H150501   8.136   7.426   9.343
16753WAT     H250502   8.290   7.380   9.372
16754WAT      O50503   9.208   4.313   9.547
16754WAT     H150504   9.186   4.324   9.450
16754WAT     H250505   9.124   4.319   9.601
16755WAT      O50506   5.151   5.156   9.188
16755WAT     H150507   5.154   5.131   9.091
16755WAT     H250508   5.089   5.094   9.236
16756WAT      O50509   1.974   2.972   9.255
16756WAT     H150510   1.937   2.893   9.304
16756WAT     H250511   2.056   3.005   9.303
16757WAT      O50512   9.336   7.572   3.513
16757WAT     H150513   9.358   7.519   3.594
16757WAT     H250514   9.390   7.539   3.436
16758WAT      O50515   2.349   2.491   9.714
16758WAT     H150516   2.351   2.554   9.791
16758WAT     H250517   2.387   2.403   9.742
16759WAT      O50518   5.532   4.864   2.834
16759WAT     H150519   5.452   4.814   2.799
16759WAT     H250520   5.517   4.889   2.929
16760WAT      O50521   1.084   3.027   0.790
16760WAT     H150522   1.111   2.981   0.874
16760WAT     H250523   1.009   3.091   0.809
16761WAT      O50524   7.051   8.039   9.333
16761WAT     H150525   7.129   8.069   9.388
16761WAT     H250526   7.052   7.940   9.323
16762WAT      O50527   4.017   1.168   8.503
16762WAT     H150528   3.955   1.217   8.563
16762WAT     H250529   4.018   1.071   8.527
16763WAT      O50530   2.855   9.136   4.875
16763WAT     H150531   2.914   9.107   4.951
16763WAT     H250532   2.871   9.077   4.796
16764WAT      O50533   8.119   6.661   0.246
16764WAT     H150534   8.114   6.593   0.173
16764WAT     H250535   8.028   6.699   0.263
16765WAT      O50536   7.847   0.832   3.847
16765WAT     H150537   7.845   0.771   3.767
16765WAT     H250538   7.756   0.835   3.889
16766WAT      O50539   4.152   5.939   6.727
16766WAT     H150540   4.141   5.904   6.821
16766WAT     H250541   4.070   5.988   6.700
16767WAT      O50542   3.674   8.033   6.611
16767WAT     H150543   3.754   8.092   6.610
16767WAT     H250544   3.690   7.955   6.673
16768WAT      O50545   8.422   9.059   1.131
16768WAT     H150546   8.350   9.088   1.194
16768WAT     H250547   8.406   9.100   1.041
16769WAT      O50548   3.663   0.894   7.523
16769WAT     H150549   3.712   0.925   7.442
16769WAT     H250550   3.709   0.929   7.605
16770WAT      O50551   3.850   2.899   0.701
16770WAT     H150552   3.904   2.925   0.621
16770WAT     H250553   3.827   2.801   0.695
16771WAT      O50554   0.238   3.225   1.924
16771WAT     H150555   0.149   3.202   1.961
16771WAT     H250556   0.259   3.321   1.944
16772WAT      O50557   4.040   3.760   8.542
16772WAT     H150558   4.071   3.667   8.560
16772WAT     H250559   4.079   3.793   8.456
16773WAT      O50560   7.182   4.561   4.309
16773WAT     H150561   7.119   4.594   4.240
16773WAT     H250562   7.163   4.605   4.396
16774WAT      O50563   4.788   9.535   8.875
16774WAT     H150564   4.834   9.523   8.786
16774WAT     H250565   4.834   9.480   8.944
16775WAT      O50566   3.609   6.040   7.271
16775WAT     H150567   3.598   6.134   7.303
16775WAT     H250568   3.617   5.979   7.350
16776WAT      O50569   8.539   9.674   6.848
16776WAT     H150570   8.454   9.721   6.870
16776WAT     H250571   8.599   9.675   6.928
16777WAT      O50572   0.629   9.559   9.081
16777WAT     H150573   0.678   9.623   9.022
16777WAT     H250574   0.581   9.491   9.025
16778WAT      O50575   7.960   6.524   7.280
16778WAT     H150576   7.993   6.446   7.227
16778WAT     H250577   7.881   6.564   7.234
16779WAT      O50578   7.244   1.734   4.157
16779WAT     H150579   7.217   1.828   4.138
16779WAT     H250580   7.279   1.692   4.074
16780WAT      O50581   8.439   6.750   9.472
16780WAT     H150582   8.395   6.751   9.561
16780WAT     H250583   8.527   6.796   9.477
16781WAT      O50584   3.965   2.613   1.696
16781WAT     H150585   3.910   2.589   1.616
16781WAT     H250586   3.923   2.576   1.779
16782WAT      O50587   7.980   7.806   8.559
16782WAT     H150588   8.044   7.738   8.596
16782WAT     H250589   7.908   7.823   8.626
16783WAT      O50590   4.591   0.257   5.862
16783WAT     H150591   4.659   0.197   5.820
16783WAT     H250592   4.521   0.281   5.795
16784WAT      O50593   9.111   3.902   7.622
16784WAT     H150594   9.178   3.834   7.651
16784WAT     H250595   9.080   3.880   7.529
16785WAT      O50596   4.895   6.551   1.383
16785WAT     H150597   4.916   6.561   1.286
16785WAT     H250598   4.932   6.465   1.417
16786WAT      O50599   2.240   9.017   5.720
16786WAT     H150600   2.277   9.024   5.628
16786WAT     H250601   2.284   8.942   5.768
16787WAT      O50602   0.062   2.021   2.292
16787WAT     H150603  -0.035   1.999   2.299
16787WAT     H250604   0.114   1.966   2.357
16788WAT      O50605   9.161   9.154   1.828
16788WAT     H150606   9.134   9.139   1.923
16788WAT     H250607   9.259   9.178   1.825
16789WAT      O50608   6.232   0.820   8.920
16789WAT     H150609   6.191   0.868   8.842
16789WAT     H250610   6.212   0.723   8.914
16790WAT      O50611   2.081   9.710   2.307
16790WAT     H150612   2.063   9.631   2.249
16790WAT     H250613   2.106   9.788   2.251
16791WAT      O50614   7.629   8.069   9.404
16791WAT     H150615   7.574   8.148   9.377
16791WAT     H250616   7.726   8.088   9.385
16792WAT      O50617   8.996   4.177   7.391
16792WAT     H150618   8.968   4.203   7.483
16792WAT     H250619   8.995   4.078   7.382
16793WAT      O50620   9.219   7.339   2.950
16793WAT     H150621   9.259   7.306   2.864
16793WAT     H250622   9.141   7.398   2.930
16794WAT      O50623   7.819   6.407   2.049
16794WAT     H150624   7.909   6.363   2.053
16794WAT     H250625   7.762   6.373   2.124
16795WAT      O50626   4.076   0.668   4.573
16795WAT     H150627   4.022   0.694   4.493
16795WAT     H250628   4.162   0.719   4.574
16796WAT      O50629   0.050   2.699   5.337
16796WAT     H150630  -0.005   2.623   5.302
16796WAT     H250631   0.145   2.688   5.308
16797WAT      O50632   6.443   2.206   7.029
16797WAT     H150633   6.529   2.217   6.979
16797WAT     H250634   6.400   2.120   7.002
16798WAT      O50635   9.089   3.871   4.952
16798WAT     H150636   9.046   3.807   5.016
16798WAT     H250637   9.169   3.913   4.996
16799WAT      O50638   9.449   8.661   2.540
16799WAT     H150639   9.350   8.676   2.546
16799WAT     H250640   9.493   8.742   2.502
16800WAT      O50641   2.734   2.338   2.519
16800WAT     H150642   2.773   2.425   2.550
16800WAT     H250643   2.806   2.269   2.513
16801WAT      O50644   2.998   2.960   0.565
16801WAT     H150645   2.929   2.949   0.636
16801WAT     H250646   3.012   2.872   0.518
16802WAT      O50647   9.042   9.821   3.675
16802WAT     H150648   8.948   9.786   3.671
16802WAT     H250649   9.100   9.756   3.724
16803WAT      O50650   0.442   6.503   0.446
16803WAT     H150651   0.413   6.529   0.539
16803WAT     H250652   0.540   6.518   0.437
16804WAT      O50653   0.403   2.679   6.205
16804WAT     H150654   0.356   2.650   6.289
16804WAT     H250655   0.449   2.599   6.164
16805WAT      O50656   1.430   7.960   8.188
16805WAT     H150657   1.342   7.912   8.187
16805WAT     H250658   1.454   7.987   8.095
16806WAT      O50659   6.653   7.610   2.733
16806WAT     H150660   6.660   7.702   2.695
16806WAT     H250661   6.568   7.567   2.702
16807WAT      O50662   8.929   0.667   7.554
16807WAT     H150663   8.844   0.698   7.511
16807WAT     H250664   8.910   0.589   7.613
16808WAT      O50665   2.625   0.328   4.265
16808WAT     H150666   2.672   0.286   4.342
16808WAT     H250667   2.680   0.318   4.182
16809WAT      O50668   7.182   3.303   8.784
16809WAT     H150669   7.276   3.319   8.815
16809WAT     H250670   7.137   3.391   8.767
16810WAT      O50671   3.437   1.246   3.299
16810WAT     H150672   3.340   1.242   3.273
16810WAT     H250673   3.447   1.293   3.386
16811WAT      O50674   7.901   5.110   4.208
16811WAT     H150675   7.899   5.209   4.196
16811WAT     H250676   7.818   5.069   4.169
16812WAT      O50677   1.138   2.787   9.762
16812WAT     H150678   1.237   2.798   9.774
16812WAT     H250679   1.121   2.723   9.687
16813WAT      O50680   0.261   8.746   6.333
16813WAT     H150681   0.310   8.823   6.293
16813WAT     H250682   0.245   8.677   6.262
16814WAT      O50683   9.672   8.863   8.752
16814WAT     H150684   9.669   8.777   8.803
16814WAT     H250685   9.706   8.936   8.811
16815WAT      O50686   8.323   7.822   1.063
16815WAT     H150687   8.368   7.881   1.130
16815WAT     H250688   8.341   7.855   0.971
16816WAT      O50689   8.398   7.684   0.662
16816WAT     H150690   8.362   7.593   0.680
16816WAT     H250691   8.494   7.688   0.690
16817WAT      O50692   4.739   9.300   6.812
16817WAT     H150693   4.726   9.319   6.909
16817WAT     H250694   4.815   9.354   6.777
16818WAT      O50695   2.828   3.841   5.292
16818WAT     H150696   2.883   3.797   5.363
16818WAT     H250697   2.840   3.940   5.297
16819WAT      O50698   7.390   6.480   8.515
16819WAT     H150699   7.483   6.479   8.553
16819WAT     H250700   7.331   6.536   8.573
16820WAT      O50701   5.194   2.127   4.436
16820WAT     H150702   5.147   2.142   4.523
16820WAT     H250703   5.262   2.055   4.448
16821WAT      O50704   7.767   6.625   4.842
16821WAT     H150705   7.702   6.549   4.846
16821WAT     H250706   7.749   6.688   4.917
16822WAT      O50707   7.085   7.378   1.772
16822WAT     H150708   7.035   7.333   1.698
16822WAT     H250709   7.030   7.453   1.809
16823WAT      O50710   9.719   4.918   4.249
16823WAT     H150711   9.734   4.909   4.150
16823WAT     H250712   9.773   4.849   4.297
16824WAT      O50713   7.585   8.878   2.829
16824WAT     H150714   7.512   8.934   2.866
16824WAT     H250715   7.673   8.906   2.868
16825WAT      O50716   5.747   1.233   0.140
16825WAT     H150717   5.795   1.304   0.089
16825WAT     H250718   5.769   1.242   0.237
16826WAT      O50719   3.882   1.868   5.723
16826WAT     H150720   3.836   1.780   5.708
16826WAT     H250721   3.913   1.874   5.818
16827WAT      O50722   6.080   9.176   0.490
16827WAT     H150723   6.091   9.211   0.583
16827WAT     H250724   6.003   9.223   0.446
16828WAT      O50725   9.758   3.264   9.625
16828WAT     H150726   9.821   3.187   9.612
16828WAT     H250727   9.692   3.240   9.696
16829WAT      O50728   4.206   8.856   3.262
16829WAT     H150729   4.282   8.888   3.206
16829WAT     H250730   4.240   8.825   3.350
16830WAT      O50731   2.360   4.747   5.435
16830WAT     H150732   2.288   4.817   5.441
16830WAT     H250733   2.328   4.671   5.380
16831WAT      O50734   6.468   9.710   4.894
16831WAT     H150735   6.442   9.807   4.902
16831WAT     H250736   6.399   9.654   4.939
16832WAT      O50737   7.842   5.781   7.816
16832WAT     H150738   7.755   5.761   7.771
16832WAT     H250739   7.855   5.880   7.821
16833WAT      O50740   4.169   2.054   1.686
16833WAT     H150741   4.239   2.124   1.674
16833WAT     H250742   4.130   2.030   1.596
16834WAT      O50743   5.878   0.128   7.417
16834WAT     H150744   5.809   0.060   7.391
16834WAT     H250745   5.882   0.199   7.347
16835WAT      O50746   0.204   7.811   3.209
16835WAT     H150747   0.175   7.803   3.304
16835WAT     H250748   0.139   7.868   3.159
16836WAT      O50749   2.744   1.889   5.527
16836WAT     H150750   2.720   1.958   5.595
16836WAT     H250751   2.843   1.871   5.531
16837WAT      O50752   7.519   4.392   0.351
16837WAT     H150753   7.508   4.295   0.326
16837WAT     H250754   7.592   4.432   0.295
16838WAT      O50755   2.227   7.080   5.641
16838WAT     H150756   2.215   7.141   5.720
16838WAT     H250757   2.221   6.985   5.671
16839WAT      O50758   1.423   4.301   5.240
16839WAT     H150759   1.419   4.254   5.152
16839WAT     H250760   1.506   4.358   5.244
16840WAT      O50761   2.226   3.909   6.857
16840WAT     H150762   2.176   3.899   6.771
16840WAT     H250763   2.239   4.006   6.877
16841WAT      O50764   0.012   9.248   0.497
16841WAT     H150765  -0.038   9.250   0.583
16841WAT     H250766   0.085   9.316   0.499
16842WAT      O50767   7.514   9.171   9.316
16842WAT     H150768   7.524   9.076   9.287
16842WAT     H250769   7.420   9.187   9.346
16843WAT      O50770   0.445   1.097   1.118
16843WAT     H150771   0.471   1.009   1.078
16843WAT     H250772   0.520   1.130   1.177
16844WAT      O50773   8.148   9.395   1.984
16844WAT     H150774   8.103   9.436   1.904
16844WAT     H250775   8.087   9.327   2.025
16845WAT      O50776   7.213   0.633   9.321
16845WAT     H150777   7.201   0.535   9.336
16845WAT     H250778   7.154   0.662   9.246
16846WAT      O50779   9.332   4.679   7.008
16846WAT     H150780   9.255   4.716   7.061
16846WAT     H250781   9.296   4.626   6.932
16847WAT      O50782   0.418   0.366   8.572
16847WAT     H150783   0.359   0.433   8.526
16847WAT     H250784   0.372   0.333   8.655
16848WAT      O50785   7.465   6.338   2.457
16848WAT     H150786   7.468   6.238   2.457
16848WAT     H250787   7.502   6.372   2.371
16849WAT      O50788   8.966   9.718   6.637
16849WAT     H150789   9.031   9.778   6.589
16849WAT     H250790   8.875   9.759   6.635
16850WAT      O50791   5.823   6.424   0.460
16850WAT     H150792   5.867   6.407   0.549
16850WAT     H250793   5.835   6.343   0.402
16851WAT      O50794   3.770   8.941   3.677
16851WAT     H150795   3.791   8.936   3.775
16851WAT     H250796   3.831   9.007   3.633
16852WAT      O50797   4.471   3.878   4.957
16852WAT     H150798   4.403   3.806   4.940
16852WAT     H250799   4.547   3.840   5.009
16853WAT      O50800   6.154   1.451   7.548
16853WAT     H150801   6.208   1.369   7.564
16853WAT     H250802   6.108   1.479   7.632
16854WAT      O50803   7.991   4.019   7.407
16854WAT     H150804   7.956   4.078   7.334
16854WAT     H250805   8.014   3.929   7.369
16855WAT      O50806   6.395   3.335   0.823
16855WAT     H150807   6.477   3.317   0.877
16855WAT     H250808   6.411   3.308   0.727
16856WAT      O50809   2.742   6.917   6.666
16856WAT     H150810   2.763   6.909   6.763
16856WAT     H250811   2.823   6.890   6.613
16857WAT      O50812   1.915   7.420   7.022
16857WAT     H150813   1.974   7.365   6.963
16857WAT     H250814   1.861   7.483   6.966
16858WAT      O50815   6.954   0.716   0.051
16858WAT     H150816   7.028   0.679  -0.005
16858WAT     H250817   6.988   0.736   0.143
16859WAT      O50818   2.218   1.784   0.146
16859WAT     H150819   2.153   1.724   0.100
16859WAT     H250820   2.226   1.870   0.096
16860WAT      O50821   0.595   1.280   5.919
16860WAT     H150822   0.631   1.187   5.930
16860WAT     H250823   0.635   1.322   5.837
16861WAT      O50824   9.407   7.939   9.147
16861WAT     H150825   9.403   7.901   9.054
16861WAT     H250826   9.491   7.990   9.159
16862WAT      O50827   6.723   3.385   7.265
16862WAT     H150828   6.671   3.299   7.262
16862WAT     H250829   6.769   3.399   7.178
16863WAT      O50830   4.880   1.343   6.051
16863WAT     H150831   4.925   1.256   6.032
16863WAT     H250832   4.944   1.418   6.033
16864WAT      O50833   0.012   3.348   4.888
16864WAT     H150834   0.060   3.327   4.804
16864WAT     H250835  -0.067   3.287   4.898
16865WAT      O50836   0.717   8.900   7.666
16865WAT     H150837   0.719   8.940   7.574
16865WAT     H250838   0.747   8.967   7.733
16866WAT      O50839   7.155   0.057   2.482
16866WAT     H150840   7.157   0.097   2.391
16866WAT     H250841   7.132   0.127   2.550
16867WAT      O50842   1.242   7.124   8.940
16867WAT     H150843   1.180   7.114   8.862
16867WAT     H250844   1.196   7.091   9.023
16868WAT      O50845   6.631   2.577   5.760
16868WAT     H150846   6.637   2.675   5.774
16868WAT     H250847   6.721   2.535   5.778
16869WAT      O50848   5.578   9.334   3.901
16869WAT     H150849   5.497   9.384   3.870
16869WAT     H250850   5.656   9.356   3.843
16870WAT      O50851   0.605   8.985   8.931
16870WAT     H150852   0.617   8.972   9.030
16870WAT     H250853   0.609   9.082   8.909
16871WAT      O50854   2.646   8.775   3.411
16871WAT     H150855   2.601   8.811   3.330
16871WAT     H250856   2.734   8.822   3.424
16872WAT      O50857   4.764   7.684   4.428
16872WAT     H150858   4.716   7.749   4.487
16872WAT     H250859   4.714   7.675   4.342
16873WAT      O50860   1.932   8.373   3.836
16873WAT     H150861   1.895   8.464   3.855
16873WAT     H250862   1.918   8.313   3.915
16874WAT      O50863   7.063   4.142   8.963
16874WAT     H150864   7.039   4.211   8.894
16874WAT     H250865   7.037   4.176   9.054
16875WAT      O50866   5.320   7.246   8.684
16875WAT     H150867   5.248   7.182   8.711
16875WAT     H250868   5.280   7.325   8.638
16876WAT      O50869   2.845   6.596   4.165
16876WAT     H150870   2.820   6.583   4.069
16876WAT     H250871   2.786   6.539   4.223
16877WAT      O50872   6.957   3.152   7.162
16877WAT     H150873   7.039   3.206   7.143
16877WAT     H250874   6.944   3.146   7.261
16878WAT      O50875   8.496   2.722   5.569
16878WAT     H150876   8.405   2.734   5.607
16878WAT     H250877   8.563   2.771   5.625
16879WAT      O50878   8.576   5.964   9.015
16879WAT     H150879   8.573   6.063   9.005
16879WAT     H250880   8.530   5.938   9.100
16880WAT      O50881   3.094   4.799   9.466
16880WAT     H150882   3.023   4.731   9.482
16880WAT     H250883   3.052   4.884   9.432
16881WAT      O50884   0.282   5.110   1.641
16881WAT     H150885   0.267   5.061   1.727
16881WAT     H250886   0.360   5.069   1.593
16882WAT      O50887   6.544   7.161   1.302
16882WAT     H150888   6.508   7.165   1.395
16882WAT     H250889   6.526   7.247   1.255
16883WAT      O50890   5.093   3.828   1.711
16883WAT     H150891   5.179   3.783   1.738
16883WAT     H250892   5.104   3.869   1.620
16884WAT      O50893   1.639   7.116   2.971
16884WAT     H150894   1.629   7.097   2.873
16884WAT     H250895   1.709   7.187   2.984
16885WAT      O50896   6.368   4.834   7.815
16885WAT     H150897   6.302   4.784   7.759
16885WAT     H250898   6.459   4.826   7.776
16886WAT      O50899   3.294   6.670   6.352
16886WAT     H150900   3.302   6.770   6.351
16886WAT     H250901   3.308   6.635   6.259
16887WAT      O50902   4.417   8.825   2.325
16887WAT     H150903   4.364   8.767   2.264
16887WAT     H250904   4.452   8.904   2.274
16888WAT      O50905   7.354   0.323   9.407
16888WAT     H150906   7.439   0.367   9.436
16888WAT     H250907   7.360   0.302   9.309
16889WAT      O50908   8.251   5.104   2.377
16889WAT     H150909   8.160   5.133   2.345
16889WAT     H250910   8.285   5.170   2.444
16890WAT      O50911   5.527   9.710   8.081
16890WAT     H150912   5.530   9.805   8.048
16890WAT     H250913   5.494   9.708   8.175
16891WAT      O50914   9.482   9.026   4.953
16891WAT     H150915   9.426   8.945   4.971
16891WAT     H250916   9.430   9.091   4.896
16892WAT      O50917   6.992   5.626   3.485
16892WAT     H150918   7.022   5.542   3.439
16892WAT     H250919   6.904   5.655   3.448
16893WAT      O50920   0.764   4.901   8.505
16893WAT     H150921   0.710   4.919   8.422
16893WAT     H250922   0.846   4.849   8.480
16894WAT      O50923   9.333   2.393   7.259
16894WAT     H150924   9.309   2.439   7.345
16894WAT     H250925   9.399   2.449   7.208
16895WAT      O50926   0.540   6.368   6.166
16895WAT     H150927   0.622   6.417   6.193
16895WAT     H250928   0.498   6.412   6.086
16896WAT      O50929   1.238   2.616   4.725
16896WAT     H150930   1.263   2.520   4.707
16896WAT     H250931   1.302   2.676   4.676
16897WAT      O50932   2.151   9.230   4.627
16897WAT     H150933   2.151   9.274   4.717
16897WAT     H250934   2.093   9.149   4.629
16898WAT      O50935   5.690   0.911   6.394
16898WAT     H150936   5.675   0.997   6.344
16898WAT     H250937   5.653   0.919   6.487
16899WAT      O50938   0.116   8.301   2.904
16899WAT     H150939   0.034   8.277   2.852
16899WAT     H250940   0.176   8.222   2.910
16900WAT      O50941   1.261   2.084   9.414
16900WAT     H150942   1.296   2.023   9.485
16900WAT     H250943   1.337   2.124   9.364
16901WAT      O50944   0.169   2.924   8.263
16901WAT     H150945   0.221   2.981   8.326
16901WAT     H250946   0.107   2.981   8.209
16902WAT      O50947   3.851   0.616   9.829
16902WAT     H150948   3.864   0.703   9.782
16902WAT     H250949   3.866   0.628   9.927
16903WAT      O50950   9.194   3.431   0.848
16903WAT     H150951   9.110   3.470   0.810
16903WAT     H250952   9.210   3.468   0.939
16904WAT      O50953   4.787   8.554   0.487
16904WAT     H150954   4.700   8.522   0.450
16904WAT     H250955   4.860   8.538   0.421
16905WAT      O50956   6.614   9.053   3.732
16905WAT     H150957   6.607   9.134   3.674
16905WAT     H250958   6.691   8.997   3.702
16906WAT      O50959   7.509   5.771   6.274
16906WAT     H150960   7.602   5.759   6.307
16906WAT     H250961   7.491   5.710   6.197
16907WAT      O50962   5.716   3.332   0.016
16907WAT     H150963   5.721   3.313   0.114
16907WAT     H250964   5.622   3.321  -0.017
16908WAT      O50965   2.376   4.603   0.667
16908WAT     H150966   2.336   4.684   0.711
16908WAT     H250967   2.448   4.631   0.604
16909WAT      O50968   7.033   6.527   7.105
16909WAT     H150969   7.126   6.556   7.128
16909WAT     H250970   6.978   6.522   7.188
16910WAT      O50971   2.225   4.442   9.634
16910WAT     H150972   2.188   4.361   9.679
16910WAT     H250973   2.154   4.511   9.625
16911WAT      O50974   3.460   5.519   4.070
16911WAT     H150975   3.387   5.463   4.108
16911WAT     H250976   3.433   5.615   4.069
16912WAT      O50977   2.833   1.104   9.470
16912WAT     H150978   2.845   1.203   9.474
16912WAT     H250979   2.835   1.074   9.375
16913WAT      O50980   3.718   2.700   5.252
16913WAT     H150981   3.758   2.786   5.221
16913WAT     H250982   3.747   2.680   5.345
16914WAT      O50983   0.693   1.701   2.972
16914WAT     H150984   0.622   1.753   2.925
16914WAT     H250985   0.661   1.609   2.991
16915WAT      O50986   0.098   2.491   4.494
16915WAT     H150987   0.021   2.430   4.475
16915WAT     H250988   0.108   2.504   4.593
16916WAT      O50989   3.373   2.091   4.474
16916WAT     H150990   3.384   2.074   4.376
16916WAT     H250991   3.286   2.053   4.506
16917WAT      O50992   2.024   9.281   9.083
16917WAT     H150993   1.993   9.367   9.043
16917WAT     H250994   1.947   9.235   9.127
16918WAT      O50995   2.616   9.373   7.030
16918WAT     H150996   2.595   9.375   7.127
16918WAT     H250997   2.541   9.329   6.980
16919WAT      O50998   1.887   9.510   9.497
16919WAT     H150999   1.844   9.600   9.484
16919WAT     H251000   1.985   9.521   9.508
16920WAT      O51001   8.596   8.281   6.565
16920WAT     H151002   8.655   8.358   6.590
16920WAT     H251003   8.599   8.213   6.638
16921WAT      O51004   3.404   0.156   0.288
16921WAT     H151005   3.421   0.254   0.282
16921WAT     H251006   3.326   0.139   0.348
16922WAT      O51007   5.683   6.929   5.540
16922WAT     H151008   5.717   6.974   5.457
16922WAT     H251009   5.698   6.988   5.619
16923WAT      O51010   0.972   7.221   8.494
16923WAT     H151011   1.047   7.237   8.430
16923WAT     H251012   0.913   7.302   8.496
16924WAT      O51013   1.472   3.872   8.568
16924WAT     H151014   1.571   3.884   8.573
16924WAT     H251015   1.428   3.961   8.553
16925WAT      O51016   6.030   9.639   7.461
16925WAT     H151017   6.012   9.712   7.526
16925WAT     H251018   6.119   9.654   7.418
16926WAT      O51019   0.340   5.375   6.022
16926WAT     H151020   0.391   5.327   5.951
16926WAT     H251021   0.271   5.315   6.061
16927WAT      O51022   7.519   2.942   8.763
16927WAT     H151023   7.507   2.844   8.778
16927WAT     H251024   7.484   2.992   8.842
16928WAT      O51025   3.023   6.024   1.631
16928WAT     H151026   2.931   6.052   1.604
16928WAT     H251027   3.016   5.948   1.695
16929WAT      O51028   7.743   8.273   3.406
16929WAT     H151029   7.797   8.299   3.486
16929WAT     H251030   7.681   8.348   3.383
16930WAT      O51031   0.675   5.128   2.889
16930WAT     H151032   0.636   5.209   2.846
16930WAT     H251033   0.604   5.079   2.941
16931WAT      O51034   7.565   0.162   4.865
16931WAT     H151035   7.562   0.147   4.964
16931WAT     H251036   7.472   0.171   4.830
16932WAT      O51037   6.599   0.249   4.942
16932WAT     H151038   6.557   0.252   4.852
16932WAT     H251039   6.535   0.284   5.010
16933WAT      O51040   2.437   9.585   5.483
16933WAT     H151041   2.379   9.557   5.559
16933WAT     H251042   2.398   9.552   5.397
16934WAT      O51043   0.701   8.097   5.708
16934WAT     H151044   0.704   8.012   5.657
16934WAT     H251045   0.623   8.152   5.678
16935WAT      O51046   9.011   5.675   8.499
16935WAT     H151047   8.973   5.610   8.433
16935WAT     H251048   8.936   5.722   8.546
16936WAT      O51049   8.911   9.609   6.129
16936WAT     H151050   8.929   9.577   6.222
16936WAT     H251051   8.841   9.680   6.132
16937WAT      O51052   3.871   2.904   9.166
16937WAT     H151053   3.845   2.927   9.072
16937WAT     H251054   3.818   2.959   9.230
16938WAT      O51055   6.123   0.644   2.998
16938WAT     H151056   6.133   0.743   3.001
16938WAT     H251057   6.148   0.611   2.906
16939WAT      O51058   5.566   3.752   1.274
16939WAT     H151059   5.560   3.833   1.216
16939WAT     H251060   5.589   3.779   1.367
16940WAT      O51061   6.498   1.278   8.348
16940WAT     H151062   6.513   1.233   8.260
16940WAT     H251063   6.508   1.377   8.336
16941WAT      O51064   1.444   1.615   9.536
16941WAT     H151065   1.512   1.660   9.593
16941WAT     H251066   1.459   1.516   9.538
16942WAT      O51067   6.866   1.631   4.404
16942WAT     H151068   6.802   1.705   4.383
16942WAT     H251069   6.905   1.646   4.495
16943WAT      O51070   6.263   4.260   7.177
16943WAT     H151071   6.308   4.179   7.216
16943WAT     H251072   6.327   4.336   7.174
16944WAT      O51073   7.704   6.414   1.791
16944WAT     H151074   7.748   6.410   1.881
16944WAT     H251075   7.773   6.424   1.720
16945WAT      O51076   4.348   6.406   7.983
16945WAT     H151077   4.267   6.464   7.974
16945WAT     H251078   4.338   6.327   7.922
16946WAT      O51079   5.598   2.471   8.716
16946WAT     H151080   5.603   2.474   8.616
16946WAT     H251081   5.647   2.390   8.749
16947WAT      O51082   3.043   7.851   0.987
16947WAT     H151083   3.108   7.909   1.035
16947WAT     H251084   2.953   7.857   1.032
16948WAT      O51085   4.385   2.664   7.652
16948WAT     H151086   4.356   2.758   7.635
16948WAT     H251087   4.365   2.607   7.572
16949WAT      O51088   1.257   7.041   5.199
16949WAT     H151089   1.333   7.063   5.138
16949WAT     H251090   1.210   6.959   5.166
16950WAT      O51091   0.739   8.012   7.218
16950WAT     H151092   0.658   7.973   7.174
16950WAT     H251093   0.713   8.045   7.309
16951WAT      O51094   8.769   8.717   7.447
16951WAT     H151095   8.766   8.807   7.404
16951WAT     H251096   8.790   8.648   7.378
16952WAT      O51097   9.490   1.105   4.463
16952WAT     H151098   9.422   1.090   4.391
16952WAT     H251099   9.445   1.110   4.552
16953WAT      O51100   2.015   2.534   3.566
16953WAT     H151101   2.052   2.620   3.529
16953WAT     H251102   1.932   2.510   3.517
16954WAT      O51103   1.332   1.161   1.927
16954WAT     H151104   1.326   1.064   1.952
16954WAT     H251105   1.281   1.175   1.842
16955WAT      O51106   8.916   6.445   6.300
16955WAT     H151107   8.864   6.382   6.242
16955WAT     H251108   8.854   6.508   6.346
16956WAT      O51109   8.985   5.064   5.623
16956WAT     H151110   9.048   5.136   5.590
16956WAT     H251111   8.985   5.063   5.723
16957WAT      O51112   7.933   3.299   5.153
16957WAT     H151113   7.917   3.332   5.246
16957WAT     H251114   7.845   3.274   5.111
16958WAT      O51115   9.238   2.493   7.512
16958WAT     H151116   9.175   2.429   7.468
16958WAT     H251117   9.186   2.557   7.570
16959WAT      O51118   7.262   3.794   8.495
16959WAT     H151119   7.311   3.872   8.532
16959WAT     H251120   7.326   3.720   8.476
16960WAT      O51121   8.377   3.047   7.346
16960WAT     H151122   8.311   2.973   7.335
16960WAT     H251123   8.450   3.038   7.279
16961WAT      O51124   6.661   5.102   0.738
16961WAT     H151125   6.658   5.002   0.737
16961WAT     H251126   6.599   5.137   0.809
16962WAT      O51127   6.190   6.164   2.370
16962WAT     H151128   6.171   6.078   2.324
16962WAT     H251129   6.207   6.147   2.467
16963WAT      O51130   2.835   0.352   6.545
16963WAT     H151131   2.853   0.286   6.617
16963WAT     H251132   2.760   0.319   6.487
16964WAT      O51133   4.769   7.343   5.103
16964WAT     H151134   4.861   7.335   5.141
16964WAT     H251135   4.772   7.329   5.004
16965WAT      O51136   6.024   2.801   7.926
16965WAT     H151137   6.022   2.836   8.020
16965WAT     H251138   5.985   2.869   7.864
16966WAT      O51139   9.817   6.422   8.378
16966WAT     H151140   9.853   6.443   8.287
16966WAT     H251141   9.720   6.447   8.382
16967WAT      O51142   9.803   7.085   2.123
16967WAT     H151143   9.711   7.048   2.131
16967WAT     H251144   9.804   7.178   2.160
16968WAT      O51145   8.187   7.978   8.455
16968WAT     H151146   8.226   7.977   8.363
16968WAT     H251147   8.123   7.902   8.466
16969WAT      O51148   9.639   3.352   6.300
16969WAT     H151149   9.667   3.435   6.251
16969WAT     H251150   9.625   3.373   6.397
16970WAT      O51151   5.184   2.280   6.591
16970WAT     H151152   5.205   2.202   6.533
16970WAT     H251153   5.121   2.341   6.543
16971WAT      O51154   0.681   0.486   7.792
16971WAT     H151155   0.581   0.491   7.787
16971WAT     H251156   0.720   0.576   7.770
16972WAT      O51157   0.910   2.734   5.868
16972WAT     H151158   0.941   2.785   5.948
16972WAT     H251159   0.815   2.705   5.881
16973WAT      O51160   8.803   3.167   9.343
16973WAT     H151161   8.747   3.108   9.285
16973WAT     H251162   8.748   3.197   9.422
16974WAT      O51163   0.956   2.739   8.913
16974WAT     H151164   0.897   2.671   8.871
16974WAT     H251165   1.049   2.702   8.922
16975WAT      O51166   4.782   0.341   3.698
16975WAT     H151167   4.767   0.370   3.603
16975WAT     H251168   4.697   0.305   3.735
16976WAT      O51169   0.909   0.081   3.003
16976WAT     H151170   0.990   0.096   3.061
16976WAT     H251171   0.837   0.039   3.058
16977WAT      O51172   7.382   2.896   7.024
16977WAT     H151173   7.410   2.974   7.080
16977WAT     H251174   7.282   2.895   7.016
16978WAT      O51175   1.245   8.177   9.741
16978WAT     H151176   1.286   8.249   9.796
16978WAT     H251177   1.218   8.101   9.800
16979WAT      O51178   8.740   0.741   7.011
16979WAT     H151179   8.742   0.801   7.091
16979WAT     H251180   8.825   0.751   6.959
16980WAT      O51181   6.007   2.779   6.440
16980WAT     H151182   5.927   2.809   6.492
16980WAT     H251183   6.064   2.858   6.418
16981WAT      O51184   1.907   9.767   9.799
16981WAT     H151185   1.878   9.732   9.888
16981WAT     H251186   2.004   9.792   9.802
16982WAT      O51187   6.152   2.508   7.077
16982WAT     H151188   6.201   2.541   6.997
16982WAT     H251189   6.212   2.451   7.133
16983WAT      O51190   3.810   5.212   5.280
16983WAT     H151191   3.815   5.225   5.379
16983WAT     H251192   3.830   5.117   5.258
16984WAT      O51193   3.542   9.108   4.151
16984WAT     H151194   3.611   9.047   4.190
16984WAT     H251195   3.523   9.080   4.057
16985WAT      O51196   7.846   9.662   8.192
16985WAT     H151197   7.854   9.573   8.238
16985WAT     H251198   7.900   9.730   8.241
16986WAT      O51199   8.091   8.115   4.024
16986WAT     H151200   8.050   8.152   3.941
16986WAT     H251201   8.190   8.129   4.023
16987WAT      O51202   4.963   9.006   6.707
16987WAT     H151203   5.020   9.055   6.773
16987WAT     H251204   4.978   9.044   6.616
16988WAT      O51205   4.153   3.532   2.199
16988WAT     H151206   4.211   3.573   2.128
16988WAT     H251207   4.104   3.454   2.160
16989WAT      O51208   7.076   0.478   4.755
16989WAT     H151209   7.114   0.481   4.848
16989WAT     H251210   7.039   0.568   4.732
16990WAT      O51211   2.913   2.276   3.607
16990WAT     H151212   2.988   2.327   3.649
16990WAT     H251213   2.918   2.180   3.635
16991WAT      O51214   3.431   2.744   8.612
16991WAT     H151215   3.377   2.691   8.678
16991WAT     H251216   3.379   2.755   8.528
16992WAT      O51217   6.857   8.978   8.376
16992WAT     H151218   6.921   9.054   8.365
16992WAT     H251219   6.896   8.896   8.336
16993WAT      O51220   9.685   0.039   2.513
16993WAT     H151221   9.731   0.128   2.509
16993WAT     H251222   9.754  -0.033   2.502
16994WAT      O51223   7.599   2.203   3.774
16994WAT     H151224   7.625   2.218   3.870
16994WAT     H251225   7.623   2.110   3.748
16995WAT      O51226   7.867   7.013   3.236
16995WAT     H151227   7.841   7.061   3.320
16995WAT     H251228   7.811   7.046   3.160
16996WAT      O51229   2.473   6.490   3.923
16996WAT     H151230   2.564   6.528   3.943
16996WAT     H251231   2.480   6.391   3.911
16997WAT      O51232   6.011   1.923   9.130
16997WAT     H151233   6.055   1.863   9.062
16997WAT     H251234   5.959   1.867   9.195
16998WAT      O51235   7.721   5.347   6.569
16998WAT     H151236   7.667   5.419   6.612
16998WAT     H251237   7.712   5.353   6.470
16999WAT      O51238   5.717   7.670   6.685
16999WAT     H151239   5.755   7.578   6.700
16999WAT     H251240   5.772   7.737   6.733
17000WAT      O51241   0.042   3.122   2.784
17000WAT     H151242  -0.011   3.043   2.754
17000WAT     H251243   0.062   3.180   2.705
17001WAT      O51244   4.921   9.539   5.198
17001WAT     H151245   4.986   9.593   5.252
17001WAT     H251246   4.968   9.503   5.117
17002WAT      O51247   4.894   2.977   6.943
17002WAT     H151248   4.856   2.931   7.023
17002WAT     H251249   4.936   3.063   6.971
17003WAT      O51250   2.972   5.474   8.887
17003WAT     H151251   2.999   5.396   8.831
17003WAT     H251252   3.051   5.533   8.903
17004WAT      O51253   0.547   5.554   2.585
17004WAT     H151254   0.568   5.590   2.494
17004WAT     H251255   0.632   5.535   2.634
17005WAT      O51256   0.214   0.817   1.126
17005WAT     H151257   0.195   0.903   1.079
17005WAT     H251258   0.191   0.740   1.067
17006WAT      O51259   2.884   6.770   3.018
17006WAT     H151260   2.883   6.869   3.004
17006WAT     H251261   2.962   6.730   2.969
17007WAT      O51262   1.370   0.948   8.153
17007WAT     H151263   1.283   0.899   8.160
17007WAT     H251264   1.387   0.972   8.058
17008WAT      O51265   9.739   8.805   2.228
17008WAT     H151266   9.719   8.707   2.224
17008WAT     H251267   9.731   8.844   2.136
17009WAT      O51268   2.035   5.547   7.804
17009WAT     H151269   2.050   5.517   7.709
17009WAT     H251270   1.973   5.625   7.805
17010WAT      O51271   0.430   9.639   3.491
17010WAT     H151272   0.405   9.713   3.428
17010WAT     H251273   0.468   9.563   3.439
17011WAT      O51274   1.155   5.745   1.974
17011WAT     H151275   1.241   5.770   2.018
17011WAT     H251276   1.134   5.810   1.901
17012WAT      O51277   3.212   2.981   0.776
17012WAT     H151278   3.230   2.914   0.704
17012WAT     H251279   3.188   3.069   0.735
17013WAT      O51280   0.297   9.433   9.871
17013WAT     H151281   0.364   9.420   9.943
17013WAT     H251282   0.208   9.454   9.911
17014WAT      O51283   7.882   5.645   5.653
17014WAT     H151284   7.947   5.663   5.579
17014WAT     H251285   7.922   5.673   5.740
17015WAT      O51286   8.358   5.598   1.278
17015WAT     H151287   8.338   5.645   1.364
17015WAT     H251288   8.326   5.655   1.201
17016WAT      O51289   7.353   9.575   7.407
17016WAT     H151290   7.443   9.560   7.448
17016WAT     H251291   7.307   9.651   7.454
17017WAT      O51292   4.575   6.707   6.461
17017WAT     H151293   4.497   6.715   6.399
17017WAT     H251294   4.587   6.793   6.511
17018WAT      O51295   9.414   0.407   5.540
17018WAT     H151296   9.389   0.500   5.512
17018WAT     H251297   9.377   0.388   5.631
17019WAT      O51298   2.080   2.288   1.641
17019WAT     H151299   2.072   2.196   1.602
17019WAT     H251300   2.099   2.282   1.739
17020WAT      O51301   9.603   8.313   2.368
17020WAT     H151302   9.586   8.263   2.283
17020WAT     H251303   9.532   8.292   2.434
17021WAT      O51304   9.808   3.118   2.504
17021WAT     H151305   9.799   3.217   2.487
17021WAT     H251306   9.718   3.079   2.522
17022WAT      O51307   7.156   7.151   8.854
17022WAT     H151308   7.185   7.060   8.882
17022WAT     H251309   7.062   7.167   8.884
17023WAT      O51310   3.391   3.252   5.760
17023WAT     H151311   3.319   3.309   5.799
17023WAT     H251312   3.362   3.218   5.670
17024WAT      O51313   8.758   9.074   8.039
17024WAT     H151314   8.659   9.094   8.040
17024WAT     H251315   8.775   8.988   8.085
17025WAT      O51316   2.826   5.467   2.754
17025WAT     H151317   2.885   5.417   2.817
17025WAT     H251318   2.878   5.497   2.675
17026WAT      O51319   2.016   9.249   5.451
17026WAT     H151320   1.939   9.196   5.487
17026WAT     H251321   1.983   9.312   5.381
17027WAT      O51322   3.622   6.810   4.548
17027WAT     H151323   3.566   6.770   4.475
17027WAT     H251324   3.701   6.751   4.566
17028WAT      O51325   8.132   3.214   6.782
17028WAT     H151326   8.117   3.121   6.815
17028WAT     H251327   8.197   3.213   6.706
17029WAT      O51328   6.073   2.455   3.045
17029WAT     H151329   6.154   2.400   3.022
17029WAT     H251330   6.026   2.481   2.960
17030WAT      O51331   0.438   4.298   0.614
17030WAT     H151332   0.356   4.243   0.600
17030WAT     H251333   0.460   4.302   0.712
17031WAT      O51334   4.606   8.432   8.665
17031WAT     H151335   4.665   8.511   8.645
17031WAT     H251336   4.662   8.350   8.672
17032WAT      O51337   6.831   1.434   2.526
17032WAT     H151338   6.894   1.365   2.562
17032WAT     H251339   6.782   1.477   2.601
17033WAT      O51340   6.423   2.533   8.695
17033WAT     H151341   6.410   2.457   8.759
17033WAT     H251342   6.521   2.548   8.680
17034WAT      O51343   2.362   2.422   7.725
17034WAT     H151344   2.331   2.499   7.781
17034WAT     H251345   2.364   2.449   7.629
17035WAT      O51346   6.672   8.655   4.265
17035WAT     H151347   6.723   8.659   4.178
17035WAT     H251348   6.642   8.561   4.282
17036WAT      O51349   6.348   6.319   4.721
17036WAT     H151350   6.254   6.348   4.740
17036WAT     H251351   6.347   6.227   4.683
17037WAT      O51352   1.414   6.499   1.728
17037WAT     H151353   1.334   6.473   1.782
17037WAT     H251354   1.412   6.597   1.710
17038WAT      O51355   4.503   6.472   5.914
17038WAT     H151356   4.419   6.519   5.888
17038WAT     H251357   4.538   6.511   5.999
17039WAT      O51358   4.043   5.657   8.136
17039WAT     H151359   3.986   5.714   8.196
17039WAT     H251360   4.100   5.597   8.191
17040WAT      O51361   5.112   5.196   7.021
17040WAT     H151362   5.100   5.228   7.115
17040WAT     H251363   5.188   5.131   7.017
17041WAT      O51364   2.237   5.376   6.336
17041WAT     H151365   2.225   5.385   6.435
17041WAT     H251366   2.154   5.338   6.296
17042WAT      O51367   0.392   0.462   7.496
17042WAT     H151368   0.372   0.369   7.525
17042WAT     H251369   0.468   0.461   7.431
17043WAT      O51370   2.452   1.450   7.047
17043WAT     H151371   2.398   1.471   6.965
17043WAT     H251372   2.404   1.482   7.128
17044WAT      O51373   4.274   8.395   4.413
17044WAT     H151374   4.321   8.479   4.441
17044WAT     H251375   4.339   8.319   4.413
17045WAT      O51376   4.249   5.319   9.100
17045WAT     H151377   4.317   5.381   9.060
17045WAT     H251378   4.209   5.262   9.028
17046WAT      O51379   3.385   8.591   5.861
17046WAT     H151380   3.479   8.557   5.854
17046WAT     H251381   3.386   8.689   5.883
17047WAT      O51382   8.210   5.318   1.468
17047WAT     H151383   8.299   5.347   1.502
17047WAT     H251384   8.222   5.266   1.384
17048WAT      O51385   0.907   8.610   4.120
17048WAT     H151386   0.957   8.691   4.088
17048WAT     H251387   0.848   8.577   4.047
17049WAT      O51388   0.513   6.734   7.387
17049WAT     H151389   0.510   6.636   7.405
17049WAT     H251390   0.539   6.782   7.472
17050WAT      O51391   2.065   9.466   8.203
17050WAT     H151392   2.028   9.530   8.271
17050WAT     H251393   2.125   9.516   8.140
17051WAT      O51394   5.756   4.941   1.432
17051WAT     H151395   5.670   4.891   1.431
17051WAT     H251396   5.832   4.876   1.430
17052WAT      O51397   7.389   0.797   0.567
17052WAT     H151398   7.303   0.745   0.571
17052WAT     H251399   7.375   0.881   0.515
17053WAT      O51400   7.552   2.294   6.112
17053WAT     H151401   7.536   2.278   6.014
17053WAT     H251402   7.642   2.259   6.137
17054WAT      O51403   8.935   6.866   0.924
17054WAT     H151404   8.999   6.938   0.896
17054WAT     H251405   8.849   6.877   0.875
17055WAT      O51406   4.539   5.079   9.407
17055WAT     H151407   4.588   5.166   9.415
17055WAT     H251408   4.443   5.096   9.387
17056WAT      O51409   7.822   6.733   5.846
17056WAT     H151410   7.731   6.720   5.885
17056WAT     H251411   7.829   6.683   5.760
17057WAT      O51412   3.063   9.742   8.002
17057WAT     H151413   2.977   9.693   8.014
17057WAT     H251414   3.121   9.693   7.938
17058WAT      O51415   8.216   1.519   4.018
17058WAT     H151416   8.254   1.454   4.085
17058WAT     H251417   8.120   1.535   4.039
17059WAT      O51418   6.728   3.889   9.882
17059WAT     H151419   6.815   3.889   9.931
17059WAT     H251420   6.741   3.926   9.790
17060WAT      O51421   2.925   4.426   4.736
17060WAT     H151422   2.939   4.363   4.660
17060WAT     H251423   2.829   4.422   4.764
17061WAT      O51424   7.940   6.611   5.580
17061WAT     H151425   8.016   6.646   5.525
17061WAT     H251426   7.870   6.573   5.520
17062WAT      O51427   7.013   6.656   9.727
17062WAT     H151428   7.004   6.755   9.736
17062WAT     H251429   7.108   6.629   9.743
17063WAT      O51430   0.489   6.928   6.235
17063WAT     H151431   0.525   6.835   6.243
17063WAT     H251432   0.543   6.979   6.169
17064WAT      O51433   4.056   2.142   2.814
17064WAT     H151434   4.105   2.161   2.729
17064WAT     H251435   4.011   2.225   2.846
17065WAT      O51436   8.359   4.074   3.260
17065WAT     H151437   8.407   4.158   3.236
17065WAT     H251438   8.266   4.077   3.223
17066WAT      O51439   7.714   4.557   6.256
17066WAT     H151440   7.734   4.632   6.320
17066WAT     H251441   7.664   4.594   6.178
17067WAT      O51442   6.848   0.301   2.081
17067WAT     H151443   6.756   0.267   2.095
17067WAT     H251444   6.868   0.307   1.983
17068WAT      O51445   1.931   7.404   4.564
17068WAT     H151446   1.960   7.308   4.559
17068WAT     H251447   2.003   7.463   4.528
17069WAT      O51448   2.489   8.593   8.254
17069WAT     H151449   2.445   8.681   8.267
17069WAT     H251450   2.570   8.605   8.196
17070WAT      O51451   9.661   1.015   5.566
17070WAT     H151452   9.758   0.999   5.548
17070WAT     H251453   9.647   1.111   5.591
17071WAT      O51454   7.234   6.883   6.607
17071WAT     H151455   7.222   6.933   6.693
17071WAT     H251456   7.154   6.824   6.592
17072WAT      O51457   4.793   0.207   7.205
17072WAT     H151458   4.817   0.159   7.120
17072WAT     H251459   4.831   0.299   7.204
17073WAT      O51460   6.194   6.723   4.732
17073WAT     H151461   6.191   6.814   4.773
17073WAT     H251462   6.273   6.673   4.768
17074WAT      O51463   0.494   9.364   0.913
17074WAT     H151464   0.465   9.291   0.851
17074WAT     H251465   0.421   9.383   0.979
17075WAT      O51466   3.505   2.488   4.829
17075WAT     H151467   3.537   2.581   4.850
17075WAT     H251468   3.407   2.481   4.847
17076WAT      O51469   9.202   0.194   1.195
17076WAT     H151470   9.161   0.146   1.273
17076WAT     H251471   9.179   0.291   1.200
17077WAT      O51472   6.386   2.528   5.364
17077WAT     H151473   6.428   2.490   5.282
17077WAT     H251474   6.305   2.474   5.388
17078WAT      O51475   3.727   9.291   5.405
17078WAT     H151476   3.727   9.388   5.432
17078WAT     H251477   3.820   9.255   5.410
17079WAT      O51478   3.804   4.964   3.976
17079WAT     H151479   3.782   4.907   3.897
17079WAT     H251480   3.804   4.908   4.059
17080WAT      O51481   8.931   8.196   4.688
17080WAT     H151482   8.911   8.100   4.711
17080WAT     H251483   9.025   8.217   4.715
17081WAT      O51484   6.260   1.781   9.541
17081WAT     H151485   6.205   1.852   9.584
17081WAT     H251486   6.347   1.819   9.511
17082WAT      O51487   8.474   9.442   0.738
17082WAT     H151488   8.464   9.489   0.826
17082WAT     H251489   8.432   9.497   0.666
17083WAT      O51490   3.321   7.299   3.358
17083WAT     H151491   3.390   7.358   3.400
17083WAT     H251492   3.309   7.325   3.263
17084WAT      O51493   2.762   1.616   7.414
17084WAT     H151494   2.754   1.693   7.479
17084WAT     H251495   2.781   1.652   7.323
17085WAT      O51496   4.878   3.210   1.598
17085WAT     H151497   4.814   3.199   1.522
17085WAT     H251498   4.826   3.212   1.684
17086WAT      O51499   9.401   7.487   5.086
17086WAT     H151500   9.490   7.440   5.090
17086WAT     H251501   9.415   7.585   5.102
17087WAT      O51502   1.161   3.400   7.079
17087WAT     H151503   1.080   3.459   7.086
17087WAT     H251504   1.142   3.313   7.123
17088WAT      O51505   9.118   2.942   8.557
17088WAT     H151506   9.177   2.867   8.589
17088WAT     H251507   9.083   2.993   8.636
17089WAT      O51508   1.382   0.965   7.088
17089WAT     H151509   1.323   0.891   7.054
17089WAT     H251510   1.458   0.926   7.139
17090WAT      O51511   4.350   1.557   8.681
17090WAT     H151512   4.434   1.610   8.684
17090WAT     H251513   4.274   1.615   8.651
17091WAT      O51514   5.392   6.790   6.745
17091WAT     H151515   5.376   6.836   6.658
17091WAT     H251516   5.325   6.821   6.812
17092WAT      O51517   9.787   3.899   4.074
17092WAT     H151518   9.688   3.890   4.060
17092WAT     H251519   9.813   3.995   4.064
17093WAT      O51520   0.225   2.092   4.053
17093WAT     H151521   0.233   2.110   3.955
17093WAT     H251522   0.221   1.993   4.068
17094WAT      O51523   0.234   8.605   2.429
17094WAT     H151524   0.301   8.632   2.499
17094WAT     H251525   0.174   8.534   2.467
17095WAT      O51526   6.604   3.235   1.543
17095WAT     H151527   6.691   3.272   1.509
17095WAT     H251528   6.623   3.158   1.604
17096WAT      O51529   9.062   2.648   2.415
17096WAT     H151530   9.114   2.702   2.349
17096WAT     H251531   8.996   2.591   2.366
17097WAT      O51532   3.127   6.787   5.810
17097WAT     H151533   3.141   6.869   5.866
17097WAT     H251534   3.032   6.784   5.778
17098WAT      O51535   9.424   8.603   0.242
17098WAT     H151536   9.343   8.658   0.263
17098WAT     H251537   9.404   8.545   0.164
17099WAT      O51538   6.381   5.972   7.738
17099WAT     H151539   6.327   5.888   7.732
17099WAT     H251540   6.369   6.025   7.654
17100WAT      O51541   1.474   0.330   0.716
17100WAT     H151542   1.517   0.275   0.645
17100WAT     H251543   1.525   0.415   0.730
17101WAT      O51544   8.516   5.457   3.904
17101WAT     H151545   8.582   5.524   3.939
17101WAT     H251546   8.539   5.434   3.810
17102WAT      O51547   0.350   0.620   4.400
17102WAT     H151548   0.299   0.635   4.315
17102WAT     H251549   0.425   0.556   4.382
17103WAT      O51550   4.403   1.704   3.709
17103WAT     H151551   4.345   1.644   3.655
17103WAT     H251552   4.372   1.799   3.699
17104WAT      O51553   8.143   3.885   7.915
17104WAT     H151554   8.145   3.873   8.014
17104WAT     H251555   8.226   3.932   7.885
17105WAT      O51556   8.948   4.694   6.727
17105WAT     H151557   8.941   4.757   6.804
17105WAT     H251558   9.028   4.718   6.671
17106WAT      O51559   7.901   7.598   2.915
17106WAT     H151560   7.835   7.665   2.881
17106WAT     H251561   7.925   7.620   3.009
17107WAT      O51562   6.618   7.852   4.654
17107WAT     H151563   6.565   7.885   4.575
17107WAT     H251564   6.557   7.844   4.733
17108WAT      O51565   3.757   7.213   9.889
17108WAT     H151566   3.810   7.295   9.869
17108WAT     H251567   3.761   7.151   9.810
17109WAT      O51568   3.620   2.130   0.742
17109WAT     H151569   3.637   2.229   0.742
17109WAT     H251570   3.523   2.112   0.730
17110WAT      O51571   1.556   6.420   5.999
17110WAT     H151572   1.561   6.345   6.065
17110WAT     H251573   1.464   6.457   5.997
17111WAT      O51574   0.187   1.468   6.688
17111WAT     H151575   0.273   1.445   6.733
17111WAT     H251576   0.158   1.392   6.630
17112WAT      O51577   1.312   1.306   7.249
17112WAT     H151578   1.261   1.274   7.169
17112WAT     H251579   1.271   1.391   7.282
17113WAT      O51580   6.224   4.989   5.061
17113WAT     H151581   6.289   4.914   5.072
17113WAT     H251582   6.244   5.040   4.977
17114WAT      O51583   0.549   7.543   6.710
17114WAT     H151584   0.570   7.461   6.763
17114WAT     H251585   0.625   7.608   6.718
17115WAT      O51586   5.458   5.189   9.483
17115WAT     H151587   5.527   5.139   9.535
17115WAT     H251588   5.369   5.145   9.493
17116WAT      O51589   6.957   0.862   6.688
17116WAT     H151590   7.027   0.930   6.666
17116WAT     H251591   6.962   0.839   6.785
17117WAT      O51592   3.268   5.157   0.852
17117WAT     H151593   3.214   5.132   0.771
17117WAT     H251594   3.216   5.221   0.908
17118WAT      O51595   2.514   5.068   7.014
17118WAT     H151596   2.447   5.130   6.974
17118WAT     H251597   2.559   5.113   7.092
17119WAT      O51598   4.407   8.574   8.253
17119WAT     H151599   4.364   8.525   8.177
17119WAT     H251600   4.400   8.673   8.238
17120WAT      O51601   4.011   4.559   1.625
17120WAT     H151602   3.950   4.579   1.701
17120WAT     H251603   4.098   4.607   1.638
17121WAT      O51604   1.306   8.443   6.911
17121WAT     H151605   1.304   8.516   6.980
17121WAT     H251606   1.372   8.373   6.938
17122WAT      O51607   1.625   8.513   7.624
17122WAT     H151608   1.595   8.456   7.701
17122WAT     H251609   1.724   8.506   7.615
17123WAT      O51610   4.750   5.243   3.378
17123WAT     H151611   4.702   5.161   3.347
17123WAT     H251612   4.773   5.300   3.299
17124WAT      O51613   8.051   0.076   8.087
17124WAT     H151614   8.037   0.155   8.146
17124WAT     H251615   8.089   0.001   8.142
17125WAT      O51616   0.946   6.583   1.699
17125WAT     H151617   0.966   6.618   1.607
17125WAT     H251618   0.927   6.485   1.694
17126WAT      O51619   5.932   7.303   0.717
17126WAT     H151620   5.941   7.397   0.751
17126WAT     H251621   5.848   7.294   0.663
17127WAT      O51622   1.504   3.518   2.195
17127WAT     H151623   1.520   3.614   2.171
17127WAT     H251624   1.592   3.472   2.205
17128WAT      O51625   1.452   3.216   8.842
17128WAT     H151626   1.503   3.137   8.878
17128WAT     H251627   1.464   3.221   8.743
17129WAT      O51628   6.585   4.512   9.735
17129WAT     H151629   6.617   4.474   9.822
17129WAT     H251630   6.661   4.553   9.686
17130WAT      O51631   3.261   2.385   6.077
17130WAT     H151632   3.273   2.463   6.015
17130WAT     H251633   3.332   2.317   6.060
17131WAT      O51634   1.634   3.048   6.084
17131WAT     H151635   1.581   3.101   6.018
17131WAT     H251636   1.719   3.095   6.104
17132WAT      O51637   4.398   5.967   4.456
17132WAT     H151638   4.446   5.881   4.473
17132WAT     H251639   4.464   6.042   4.448
17133WAT      O51640   7.462   9.761   8.704
17133WAT     H151641   7.392   9.691   8.690
17133WAT     H251642   7.551   9.727   8.677
17134WAT      O51643   1.518   1.493   6.420
17134WAT     H151644   1.547   1.405   6.382
17134WAT     H251645   1.578   1.565   6.387
17135WAT      O51646   6.924   6.461   0.513
17135WAT     H151647   6.983   6.492   0.439
17135WAT     H251648   6.833   6.441   0.477
17136WAT      O51649   5.658   0.641   9.794
17136WAT     H151650   5.726   0.573   9.766
17136WAT     H251651   5.575   0.629   9.740
17137WAT      O51652   6.195   0.239   6.158
17137WAT     H151653   6.098   0.259   6.168
17137WAT     H251654   6.241   0.254   6.246
17138WAT      O51655   0.693   9.682   2.846
17138WAT     H151656   0.661   9.712   2.757
17138WAT     H251657   0.620   9.694   2.914
17139WAT      O51658   3.791   3.177   7.177
17139WAT     H151659   3.856   3.147   7.247
17139WAT     H251660   3.738   3.099   7.144
17140WAT      O51661   8.497   6.077   8.106
17140WAT     H151662   8.593   6.051   8.115
17140WAT     H251663   8.461   6.039   8.021
17141WAT      O51664   7.825   9.459   4.693
17141WAT     H151665   7.848   9.529   4.625
17141WAT     H251666   7.758   9.396   4.654
17142WAT      O51667   7.722   5.592   2.537
17142WAT     H151668   7.753   5.687   2.529
17142WAT     H251669   7.623   5.588   2.523
17143WAT      O51670   5.504   8.623   8.054
17143WAT     H151671   5.580   8.574   8.098
17143WAT     H251672   5.418   8.577   8.076
17144WAT      O51673   9.422   7.265   7.714
17144WAT     H151674   9.413   7.344   7.654
17144WAT     H251675   9.515   7.227   7.707
17145WAT      O51676   9.348   1.884   3.615
17145WAT     H151677   9.303   1.838   3.538
17145WAT     H251678   9.310   1.976   3.627
17146WAT      O51679   3.415   7.727   3.577
17146WAT     H151680   3.325   7.713   3.617
17146WAT     H251681   3.434   7.653   3.512
17147WAT      O51682   8.078   5.916   3.407
17147WAT     H151683   8.095   6.010   3.437
17147WAT     H251684   7.990   5.885   3.442
17148WAT      O51685   3.436   0.984   8.489
17148WAT     H151686   3.376   0.930   8.549
17148WAT     H251687   3.479   0.923   8.423
17149WAT      O51688   9.494   1.975   1.247
17149WAT     H151689   9.543   2.052   1.286
17149WAT     H251690   9.503   1.895   1.307
17150WAT      O51691   6.131   8.521   8.339
17150WAT     H151692   6.086   8.595   8.289
17150WAT     H251693   6.089   8.434   8.313
17151WAT      O51694   6.188   4.715   7.179
17151WAT     H151695   6.243   4.681   7.255
17151WAT     H251696   6.210   4.664   7.096
17152WAT      O51697   4.600   0.790   1.168
17152WAT     H151698   4.674   0.849   1.135
17152WAT     H251699   4.568   0.823   1.258
17153WAT      O51700   7.417   3.282   3.373
17153WAT     H151701   7.387   3.195   3.335
17153WAT     H251702   7.497   3.267   3.432
17154WAT      O51703   5.256   9.736   7.420
17154WAT     H151704   5.246   9.807   7.490
17154WAT     H251705   5.302   9.656   7.460
17155WAT      O51706   9.556   0.539   5.089
17155WAT     H151707   9.509   0.594   5.020
17155WAT     H251708   9.620   0.597   5.139
17156WAT      O51709   3.056   3.114   4.522
17156WAT     H151710   3.087   3.113   4.427
17156WAT     H251711   2.964   3.153   4.527
17157WAT      O51712   7.616   6.640   4.198
17157WAT     H151713   7.655   6.622   4.108
17157WAT     H251714   7.530   6.590   4.208
17158WAT      O51715   3.150   6.885   4.534
17158WAT     H151716   3.081   6.944   4.493
17158WAT     H251717   3.232   6.885   4.478
17159WAT      O51718   0.709   3.427   6.324
17159WAT     H151719   0.635   3.491   6.344
17159WAT     H251720   0.759   3.407   6.408
17160WAT      O51721   2.440   4.414   8.020
17160WAT     H151722   2.461   4.492   8.079
17160WAT     H251723   2.473   4.330   8.063
17161WAT      O51724   0.123   8.596   4.728
17161WAT     H151725   0.127   8.558   4.820
17161WAT     H251726   0.170   8.535   4.664
17162WAT      O51727   5.571   5.604   8.504
17162WAT     H151728   5.562   5.691   8.456
17162WAT     H251729   5.535   5.530   8.447
17163WAT      O51730   9.246   0.560   4.964
17163WAT     H151731   9.323   0.623   4.960
17163WAT     H251732   9.230   0.532   5.059
17164WAT      O51733   9.833   4.124   7.200
17164WAT     H151734   9.848   4.221   7.182
17164WAT     H251735   9.879   4.070   7.129
17165WAT      O51736   0.841   8.176   3.397
17165WAT     H151737   0.889   8.174   3.308
17165WAT     H251738   0.775   8.101   3.400
17166WAT      O51739   9.612   0.244   6.082
17166WAT     H151740   9.640   0.184   6.007
17166WAT     H251741   9.549   0.313   6.048
17167WAT      O51742   5.881   0.638   8.874
17167WAT     H151743   5.978   0.644   8.850
17167WAT     H251744   5.839   0.564   8.822
17168WAT      O51745   9.044   1.734   2.268
17168WAT     H151746   9.067   1.646   2.226
17168WAT     H251747   9.124   1.770   2.316
17169WAT      O51748   2.383   6.624   6.353
17169WAT     H151749   2.421   6.531   6.350
17169WAT     H251750   2.328   6.640   6.271
17170WAT      O51751   9.516   8.224   8.708
17170WAT     H151752   9.458   8.244   8.787
17170WAT     H251753   9.576   8.301   8.690
17171WAT      O51754   6.325   6.995   1.280
17171WAT     H151755   6.403   7.057   1.296
17171WAT     H251756   6.343   6.907   1.323
17172WAT      O51757   6.409   7.540   6.154
17172WAT     H151758   6.378   7.568   6.063
17172WAT     H251759   6.398   7.616   6.218
17173WAT      O51760   6.451   8.313   7.305
17173WAT     H151761   6.454   8.389   7.240
17173WAT     H251762   6.540   8.304   7.349
17174WAT      O51763   0.696   2.729   3.050
17174WAT     H151764   0.721   2.648   3.102
17174WAT     H251765   0.754   2.737   2.969
17175WAT      O51766   2.075   9.147   0.980
17175WAT     H151767   2.149   9.142   0.913
17175WAT     H251768   2.111   9.124   1.070
17176WAT      O51769   4.015   9.237   5.005
17176WAT     H151770   4.092   9.298   5.024
17176WAT     H251771   3.933   9.270   5.051
17177WAT      O51772   0.944   8.870   2.089
17177WAT     H151773   0.935   8.904   1.995
17177WAT     H251774   0.854   8.844   2.123
17178WAT      O51775   4.332   4.276   0.479
17178WAT     H151776   4.330   4.315   0.387
17178WAT     H251777   4.242   4.285   0.521
17179WAT      O51778   9.112   4.177   2.400
17179WAT     H151779   9.138   4.248   2.466
17179WAT     H251780   9.014   4.158   2.408
17180WAT      O51781   5.156   6.519   0.816
17180WAT     H151782   5.075   6.575   0.836
17180WAT     H251783   5.232   6.579   0.791
17181WAT      O51784   8.167   8.638   4.776
17181WAT     H151785   8.090   8.596   4.825
17181WAT     H251786   8.247   8.640   4.836
17182WAT      O51787   7.046   0.515   6.006
17182WAT     H151788   7.132   0.523   6.056
17182WAT     H251789   7.006   0.606   5.993
17183WAT      O51790   0.348   8.000   1.444
17183WAT     H151791   0.440   8.009   1.406
17183WAT     H251792   0.289   7.952   1.379
17184WAT      O51793   5.382   1.113   1.527
17184WAT     H151794   5.360   1.111   1.429
17184WAT     H251795   5.369   1.206   1.562
17185WAT      O51796   1.077   1.564   6.994
17185WAT     H151797   1.108   1.470   7.006
17185WAT     H251798   1.114   1.621   7.067
17186WAT      O51799   1.130   4.268   0.296
17186WAT     H151800   1.199   4.296   0.230
17186WAT     H251801   1.045   4.317   0.279
17187WAT      O51802   7.002   9.558   3.394
17187WAT     H151803   6.974   9.507   3.476
17187WAT     H251804   6.965   9.513   3.313
17188WAT      O51805   1.127   8.992   0.047
17188WAT     H151806   1.119   9.073   0.104
17188WAT     H251807   1.194   9.010  -0.026
17189WAT      O51808   3.767   8.392   4.956
17189WAT     H151809   3.682   8.339   4.964
17189WAT     H251810   3.805   8.380   4.864
17190WAT      O51811   0.092   4.003   7.397
17190WAT     H151812   0.025   4.049   7.338
17190WAT     H251813   0.094   4.048   7.487
17191WAT      O51814   8.050   1.969   0.493
17191WAT     H151815   7.968   1.912   0.493
17191WAT     H251816   8.131   1.911   0.494
17192WAT      O51817   2.157   8.386   3.661
17192WAT     H151818   2.109   8.385   3.749
17192WAT     H251819   2.175   8.292   3.632
17193WAT      O51820   5.115   8.412   7.420
17193WAT     H151821   5.139   8.490   7.362
17193WAT     H251822   5.039   8.438   7.480
17194WAT      O51823   7.570   2.657   8.778
17194WAT     H151824   7.547   2.560   8.770
17194WAT     H251825   7.632   2.670   8.856
17195WAT      O51826   3.267   8.291   0.604
17195WAT     H151827   3.318   8.345   0.538
17195WAT     H251828   3.249   8.200   0.567
17196WAT      O51829   8.212   9.516   4.992
17196WAT     H151830   8.234   9.538   5.087
17196WAT     H251831   8.269   9.440   4.961
17197WAT      O51832   3.292   1.272   7.388
17197WAT     H151833   3.267   1.198   7.326
17197WAT     H251834   3.225   1.278   7.462
17198WAT      O51835   4.450   2.311   8.968
17198WAT     H151836   4.477   2.401   9.000
17198WAT     H251837   4.527   2.248   8.976
17199WAT      O51838   8.755   1.371   4.977
17199WAT     H151839   8.802   1.460   4.977
17199WAT     H251840   8.736   1.344   4.883
17200WAT      O51841   2.540   7.769   5.403
17200WAT     H151842   2.485   7.767   5.486
17200WAT     H251843   2.615   7.834   5.414
17201WAT      O51844   8.111   8.570   0.200
17201WAT     H151845   8.154   8.632   0.135
17201WAT     H251846   8.178   8.542   0.269
17202WAT      O51847   0.827   8.722   2.509
17202WAT     H151848   0.854   8.669   2.428
17202WAT     H251849   0.786   8.808   2.480
17203WAT      O51850   8.121   5.320   9.757
17203WAT     H151851   8.190   5.274   9.813
17203WAT     H251852   8.049   5.357   9.817
17204WAT      O51853   4.493   9.422   9.450
17204WAT     H151854   4.508   9.521   9.440
17204WAT     H251855   4.434   9.405   9.529
17205WAT      O51856   3.078   0.199   2.836
17205WAT     H151857   3.062   0.210   2.738
17205WAT     H251858   3.149   0.262   2.865
17206WAT      O51859   2.973   6.302   3.572
17206WAT     H151860   3.062   6.268   3.541
17206WAT     H251861   2.900   6.244   3.536
17207WAT      O51862   2.071   8.700   3.910
17207WAT     H151863   2.113   8.696   3.819
17207WAT     H251864   2.142   8.691   3.980
17208WAT      O51865   8.178   4.922   2.980
17208WAT     H151866   8.103   4.870   3.022
17208WAT     H251867   8.256   4.925   3.043
17209WAT      O51868   0.810   4.950   1.850
17209WAT     H151869   0.806   4.992   1.760
17209WAT     H251870   0.804   4.850   1.841
17210WAT      O51871   0.114   8.842   5.948
17210WAT     H151872   0.153   8.824   5.858
17210WAT     H251873   0.019   8.874   5.938
17211WAT      O51874   4.547   4.171   1.042
17211WAT     H151875   4.451   4.179   1.017
17211WAT     H251876   4.580   4.260   1.074
17212WAT      O51877   2.176   5.165   5.284
17212WAT     H151878   2.178   5.137   5.188
17212WAT     H251879   2.087   5.204   5.305
17213WAT      O51880   7.897   5.019   8.960
17213WAT     H151881   7.911   5.055   8.867
17213WAT     H251882   7.986   4.999   9.001
17214WAT      O51883   3.886   5.740   8.355
17214WAT     H151884   3.928   5.818   8.401
17214WAT     H251885   3.911   5.656   8.403
17215WAT      O51886   9.086   6.979   8.863
17215WAT     H151887   9.157   7.040   8.900
17215WAT     H251888   9.038   6.936   8.939
17216WAT      O51889   5.525   2.047   8.854
17216WAT     H151890   5.556   1.989   8.779
17216WAT     H251891   5.460   1.997   8.911
17217WAT      O51892   6.422   7.963   1.472
17217WAT     H151893   6.411   8.023   1.552
17217WAT     H251894   6.365   7.997   1.397
17218WAT      O51895   1.875   4.596   8.569
17218WAT     H151896   1.848   4.593   8.665
17218WAT     H251897   1.932   4.517   8.548
17219WAT      O51898   4.399   3.655   0.328
17219WAT     H151899   4.461   3.619   0.258
17219WAT     H251900   4.365   3.580   0.384
17220WAT      O51901   6.426   9.565   2.324
17220WAT     H151902   6.384   9.484   2.363
17220WAT     H251903   6.418   9.563   2.225
17221WAT      O51904   9.496   5.951   1.940
17221WAT     H151905   9.406   5.914   1.962
17221WAT     H251906   9.504   6.043   1.978
17222WAT      O51907   1.655   1.654   0.991
17222WAT     H151908   1.701   1.684   1.075
17222WAT     H251909   1.717   1.595   0.939
17223WAT      O51910   2.307   8.179   8.035
17223WAT     H151911   2.296   8.144   7.942
17223WAT     H251912   2.362   8.114   8.088
17224WAT      O51913   8.163   3.786   3.950
17224WAT     H151914   8.163   3.852   4.026
17224WAT     H251915   8.156   3.836   3.864
17225WAT      O51916   9.450   7.537   7.618
17225WAT     H151917   9.524   7.525   7.553
17225WAT     H251918   9.375   7.588   7.575
17226WAT      O51919   1.362   6.316   2.271
17226WAT     H151920   1.337   6.292   2.177
17226WAT     H251921   1.280   6.332   2.325
17227WAT      O51922   2.559   9.783   3.071
17227WAT     H151923   2.609   9.703   3.038
17227WAT     H251924   2.504   9.821   2.997
17228WAT      O51925   1.153   6.281   5.935
17228WAT     H151926   1.212   6.359   5.917
17228WAT     H251927   1.190   6.227   6.010
17229WAT      O51928   6.590   0.830   5.363
17229WAT     H151929   6.541   0.770   5.426
17229WAT     H251930   6.544   0.919   5.360
17230WAT      O51931   7.585   5.595   1.238
17230WAT     H151932   7.492   5.611   1.273
17230WAT     H251933   7.625   5.516   1.284
17231WAT      O51934   9.698   0.949   9.378
17231WAT     H151935   9.620   0.888   9.386
17231WAT     H251936   9.767   0.908   9.318
17232WAT      O51937   5.281   6.032   4.774
17232WAT     H151938   5.356   6.023   4.839
17232WAT     H251939   5.260   5.943   4.735
17233WAT      O51940   7.069   8.324   0.611
17233WAT     H151941   7.161   8.289   0.628
17233WAT     H251942   7.072   8.389   0.535
17234WAT      O51943   3.083   8.644   0.164
17234WAT     H151944   2.996   8.675   0.126
17234WAT     H251945   3.158   8.675   0.105
17235WAT      O51946   2.227   1.548   4.514
17235WAT     H151947   2.312   1.546   4.566
17235WAT     H251948   2.165   1.477   4.547
17236WAT      O51949   4.103   9.338   1.581
17236WAT     H151950   4.042   9.416   1.598
17236WAT     H251951   4.198   9.367   1.591
17237WAT      O51952   8.178   1.855   1.927
17237WAT     H151953   8.273   1.880   1.907
17237WAT     H251954   8.163   1.759   1.904
17238WAT      O51955   7.632   3.466   8.088
17238WAT     H151956   7.724   3.427   8.084
17238WAT     H251957   7.604   3.478   8.184
17239WAT      O51958   3.907   1.209   8.900
17239WAT     H151959   3.900   1.283   8.967
17239WAT     H251960   3.886   1.245   8.809
17240WAT      O51961   4.001   7.751   7.131
17240WAT     H151962   4.062   7.742   7.209
17240WAT     H251963   3.933   7.822   7.149
17241WAT      O51964   2.697   6.900   4.485
17241WAT     H151965   2.794   6.886   4.469
17241WAT     H251966   2.652   6.812   4.503
17242WAT      O51967   4.819   1.150   2.995
17242WAT     H151968   4.731   1.194   2.976
17242WAT     H251969   4.850   1.101   2.913
17243WAT      O51970   5.104   2.185   4.669
17243WAT     H151971   5.025   2.246   4.662
17243WAT     H251972   5.086   2.116   4.739
17244WAT      O51973   8.063   0.005   9.835
17244WAT     H151974   8.073  -0.065   9.765
17244WAT     H251975   8.147   0.011   9.888
17245WAT      O51976   5.844   4.221   4.256
17245WAT     H151977   5.857   4.229   4.355
17245WAT     H251978   5.929   4.247   4.209
17246WAT      O51979   0.648   1.722   7.355
17246WAT     H151980   0.616   1.674   7.273
17246WAT     H251981   0.742   1.694   7.375
17247WAT      O51982   9.497   8.909   8.540
17247WAT     H151983   9.555   8.893   8.620
17247WAT     H251984   9.410   8.949   8.568
17248WAT      O51985   7.968   7.476   7.091
17248WAT     H151986   8.027   7.397   7.107
17248WAT     H251987   7.872   7.449   7.107
17249WAT      O51988   4.617   6.034   8.593
17249WAT     H151989   4.693   5.997   8.646
17249WAT     H251990   4.536   6.040   8.651
17250WAT      O51991   2.040   4.053   4.292
17250WAT     H151992   2.014   4.012   4.380
17250WAT     H251993   2.008   3.994   4.218
17251WAT      O51994   4.575   4.600   5.306
17251WAT     H151995   4.611   4.649   5.385
17251WAT     H251996   4.597   4.651   5.223
17252WAT      O51997   5.372   6.776   7.790
17252WAT     H151998   5.428   6.747   7.712
17252WAT     H251999   5.430   6.819   7.859
17253WAT      O52000   4.637   9.750   9.646
17253WAT     H152001   4.597   9.727   9.734
17253WAT     H252002   4.717   9.693   9.629
17254WAT      O52003   5.133   6.585   3.659
17254WAT     H152004   5.117   6.682   3.675
17254WAT     H252005   5.132   6.536   3.746
17255WAT      O52006   0.698   4.988   7.157
17255WAT     H152007   0.695   4.958   7.252
17255WAT     H252008   0.761   4.930   7.105
17256WAT      O52009   0.077   2.283   9.040
17256WAT     H152010   0.092   2.369   9.090
17256WAT     H252011  -0.020   2.262   9.037
17257WAT      O52012   1.405   3.724   8.063
17257WAT     H152013   1.505   3.714   8.060
17257WAT     H252014   1.379   3.767   8.150
17258WAT      O52015   3.545   1.414   1.707
17258WAT     H152016   3.583   1.359   1.780
17258WAT     H252017   3.599   1.497   1.695
17259WAT      O52018   7.770   2.318   2.059
17259WAT     H152019   7.825   2.236   2.046
17259WAT     H252020   7.767   2.342   2.156
17260WAT      O52021   4.171   1.948   4.489
17260WAT     H152022   4.082   1.944   4.535
17260WAT     H252023   4.243   1.926   4.555
17261WAT      O52024   9.364   4.671   7.845
17261WAT     H152025   9.430   4.598   7.826
17261WAT     H252026   9.273   4.630   7.859
17262WAT      O52027   1.558   9.475   0.520
17262WAT     H152028   1.508   9.394   0.489
17262WAT     H252029   1.540   9.489   0.618
17263WAT      O52030   4.579   4.246   4.863
17263WAT     H152031   4.551   4.229   4.957
17263WAT     H252032   4.675   4.221   4.852
17264WAT      O52033   4.865   0.285   1.992
17264WAT     H152034   4.846   0.273   1.895
17264WAT     H252035   4.844   0.379   2.019
17265WAT      O52036   8.804   9.412   1.052
17265WAT     H152037   8.789   9.375   0.961
17265WAT     H252038   8.890   9.377   1.089
17266WAT      O52039   7.836   7.551   9.407
17266WAT     H152040   7.925   7.552   9.362
17266WAT     H252041   7.764   7.571   9.339
17267WAT      O52042   8.374   3.824   9.627
17267WAT     H152043   8.425   3.854   9.546
17267WAT     H252044   8.280   3.803   9.601
17268WAT      O52045   8.668   7.214   3.584
17268WAT     H152046   8.756   7.215   3.536
17268WAT     H252047   8.599   7.257   3.525
17269WAT      O52048   3.718   6.497   1.283
17269WAT     H152049   3.732   6.582   1.335
17269WAT     H252050   3.711   6.420   1.347
17270WAT      O52051   0.320   7.998   9.688
17270WAT     H152052   0.345   7.901   9.693
17270WAT     H252053   0.389   8.052   9.736
17271WAT      O52054   9.067   1.609   0.371
17271WAT     H152055   9.097   1.514   0.362
17271WAT     H252056   9.146   1.670   0.365
17272WAT      O52057   3.713   7.200   0.420
17272WAT     H152058   3.778   7.125   0.409
17272WAT     H252059   3.743   7.260   0.494
17273WAT      O52060   1.760   6.500   5.645
17273WAT     H152061   1.695   6.430   5.676
17273WAT     H252062   1.729   6.538   5.558
17274WAT      O52063   9.824   6.977   7.399
17274WAT     H152064   9.898   6.954   7.335
17274WAT     H252065   9.856   7.047   7.462
17275WAT      O52066   7.347   9.148   0.450
17275WAT     H152067   7.444   9.172   0.454
17275WAT     H252068   7.331   9.085   0.374
17276WAT      O52069   6.846   9.167   5.265
17276WAT     H152070   6.800   9.255   5.256
17276WAT     H252071   6.896   9.164   5.352
17277WAT      O52072   0.817   0.658   6.628
17277WAT     H152073   0.723   0.669   6.659
17277WAT     H252074   0.865   0.745   6.633
17278WAT      O52075   0.507   1.167   5.099
17278WAT     H152076   0.510   1.123   5.009
17278WAT     H252077   0.564   1.249   5.098
17279WAT      O52078   0.347   3.866   8.397
17279WAT     H152079   0.257   3.842   8.435
17279WAT     H252080   0.400   3.915   8.466
17280WAT      O52081   9.305   4.067   4.600
17280WAT     H152082   9.362   4.074   4.682
17280WAT     H252083   9.358   4.096   4.521
17281WAT      O52084   6.105   6.453   8.168
17281WAT     H152085   6.094   6.536   8.224
17281WAT     H252086   6.030   6.390   8.186
17282WAT      O52087   2.141   4.226   0.675
17282WAT     H152088   2.122   4.248   0.770
17282WAT     H252089   2.210   4.155   0.669
17283WAT      O52090   4.650   2.670   6.907
17283WAT     H152091   4.708   2.744   6.872
17283WAT     H252092   4.639   2.680   7.006
17284WAT      O52093   7.855   6.245   2.391
17284WAT     H152094   7.869   6.205   2.482
17284WAT     H252095   7.793   6.187   2.338
17285WAT      O52096   6.928   9.590   7.377
17285WAT     H152097   6.848   9.534   7.397
17285WAT     H252098   7.004   9.530   7.350
17286WAT      O52099   6.954   4.143   6.768
17286WAT     H152100   6.855   4.143   6.759
17286WAT     H252101   6.990   4.234   6.745
17287WAT      O52102   1.486   0.722   0.748
17287WAT     H152103   1.431   0.778   0.810
17287WAT     H252104   1.435   0.705   0.664
17288WAT      O52105   7.151   5.458   2.991
17288WAT     H152106   7.079   5.458   3.059
17288WAT     H252107   7.147   5.542   2.937
17289WAT      O52108   2.504   6.046   7.097
17289WAT     H152109   2.599   6.013   7.099
17289WAT     H252110   2.468   6.036   7.004
17290WAT      O52111   5.707   1.437   5.017
17290WAT     H152112   5.638   1.504   4.988
17290WAT     H252113   5.785   1.439   4.954
17291WAT      O52114   6.742   9.461   0.048
17291WAT     H152115   6.673   9.481   0.117
17291WAT     H252116   6.771   9.546   0.003
17292WAT      O52117   7.944   4.082   1.491
17292WAT     H152118   7.897   4.170   1.499
17292WAT     H252119   7.917   4.023   1.568
17293WAT      O52120   3.960   8.747   2.394
17293WAT     H152121   4.054   8.773   2.418
17293WAT     H252122   3.958   8.649   2.374
17294WAT      O52123   5.053   7.831   3.815
17294WAT     H152124   5.134   7.820   3.872
17294WAT     H252125   5.012   7.742   3.797
17295WAT      O52126   7.594   8.139   7.813
17295WAT     H152127   7.553   8.048   7.823
17295WAT     H252128   7.627   8.170   7.902
17296WAT      O52129   5.592   5.776   6.148
17296WAT     H152130   5.604   5.696   6.090
17296WAT     H252131   5.663   5.777   6.219
17297WAT      O52132   9.791   6.136   1.143
17297WAT     H152133   9.855   6.208   1.169
17297WAT     H252134   9.697   6.166   1.164
17298WAT      O52135   4.564   8.229   9.171
17298WAT     H152136   4.628   8.276   9.110
17298WAT     H252137   4.526   8.293   9.237
17299WAT      O52138   6.568   2.149   8.134
17299WAT     H152139   6.504   2.224   8.145
17299WAT     H252140   6.518   2.064   8.115
17300WAT      O52141   5.706   3.088   3.277
17300WAT     H152142   5.614   3.050   3.268
17300WAT     H252143   5.703   3.187   3.260
17301WAT      O52144   8.875   0.684   0.307
17301WAT     H152145   8.864   0.588   0.282
17301WAT     H252146   8.935   0.692   0.386
17302WAT      O52147   8.604   7.424   5.734
17302WAT     H152148   8.612   7.472   5.646
17302WAT     H252149   8.693   7.424   5.779
17303WAT      O52150   6.322   0.748   0.980
17303WAT     H152151   6.258   0.692   0.927
17303WAT     H252152   6.333   0.708   1.071
17304WAT      O52153   7.957   1.391   6.341
17304WAT     H152154   7.888   1.327   6.308
17304WAT     H252155   8.013   1.347   6.411
17305WAT      O52156   6.393   2.203   9.555
17305WAT     H152157   6.379   2.241   9.646
17305WAT     H252158   6.396   2.277   9.488
17306WAT      O52159   3.510   7.771   6.779
17306WAT     H152160   3.525   7.711   6.700
17306WAT     H252161   3.506   7.717   6.862
17307WAT      O52162   8.620   7.180   0.147
17307WAT     H152163   8.619   7.101   0.208
17307WAT     H252164   8.526   7.205   0.123
17308WAT      O52165   5.516   0.934   2.656
17308WAT     H152166   5.519   0.970   2.749
17308WAT     H252167   5.603   0.952   2.611
17309WAT      O52168   6.452   7.862   3.780
17309WAT     H152169   6.366   7.820   3.809
17309WAT     H252170   6.435   7.925   3.704
17310WAT      O52171   2.391   2.594   4.446
17310WAT     H152172   2.387   2.561   4.352
17310WAT     H252173   2.480   2.571   4.487
17311WAT      O52174   0.573   2.934   4.879
17311WAT     H152175   0.670   2.954   4.890
17311WAT     H252176   0.519   2.998   4.934
17312WAT      O52177   1.259   1.768   2.603
17312WAT     H152178   1.306   1.788   2.517
17312WAT     H252179   1.267   1.670   2.623
17313WAT      O52180   3.419   1.426   3.004
17313WAT     H152181   3.430   1.439   2.905
17313WAT     H252182   3.450   1.334   3.028
17314WAT      O52183   5.766   3.264   0.270
17314WAT     H152184   5.862   3.243   0.287
17314WAT     H252185   5.719   3.278   0.357
17315WAT      O52186   8.732   0.834   0.640
17315WAT     H152187   8.831   0.822   0.649
17315WAT     H252188   8.699   0.896   0.711
17316WAT      O52189   8.494   6.892   1.905
17316WAT     H152190   8.480   6.800   1.870
17316WAT     H252191   8.459   6.899   1.998
17317WAT      O52192   4.863   8.480   7.209
17317WAT     H152193   4.776   8.495   7.161
17317WAT     H252194   4.867   8.539   7.289
17318WAT      O52195   9.185   2.846   6.491
17318WAT     H152196   9.096   2.845   6.537
17318WAT     H252197   9.258   2.847   6.560
17319WAT      O52198   7.976   9.381   5.078
17319WAT     H152199   7.894   9.432   5.103
17319WAT     H252200   8.049   9.445   5.055
17320WAT      O52201   8.086   6.347   2.282
17320WAT     H152202   8.079   6.447   2.285
17320WAT     H252203   7.996   6.307   2.298
17321WAT      O52204   6.947   5.910   5.800
17321WAT     H152205   7.031   5.895   5.853
17321WAT     H252206   6.942   5.843   5.726
17322WAT      O52207   8.768   9.394   9.774
17322WAT     H152208   8.847   9.346   9.737
17322WAT     H252209   8.684   9.349   9.742
17323WAT      O52210   6.745   5.181   6.804
17323WAT     H152211   6.672   5.205   6.740
17323WAT     H252212   6.739   5.084   6.826
17324WAT      O52213   5.429   9.741   2.965
17324WAT     H152214   5.398   9.647   2.953
17324WAT     H252215   5.404   9.795   2.885
17325WAT      O52216   5.196   0.020   4.180
17325WAT     H152217   5.131   0.025   4.255
17325WAT     H252218   5.160   0.069   4.101
17326WAT      O52219   6.842   8.816   7.834
17326WAT     H152220   6.938   8.789   7.829
17326WAT     H252221   6.804   8.822   7.742
17327WAT      O52222   2.545   5.257   4.382
17327WAT     H152223   2.610   5.247   4.307
17327WAT     H252224   2.452   5.247   4.346
17328WAT      O52225   5.340   3.373   4.460
17328WAT     H152226   5.360   3.304   4.391
17328WAT     H252227   5.425   3.406   4.500
17329WAT      O52228   5.034   1.002   5.775
17329WAT     H152229   5.069   0.912   5.801
17329WAT     H252230   5.022   1.058   5.857
17330WAT      O52231   8.482   3.433   7.285
17330WAT     H152232   8.444   3.355   7.234
17330WAT     H252233   8.462   3.517   7.235
17331WAT      O52234   0.728   8.273   6.640
17331WAT     H152235   0.796   8.238   6.704
17331WAT     H252236   0.637   8.244   6.669
17332WAT      O52237   3.690   6.806   1.323
17332WAT     H152238   3.600   6.762   1.324
17332WAT     H252239   3.688   6.886   1.383
17333WAT      O52240   4.250   6.146   4.695
17333WAT     H152241   4.184   6.200   4.748
17333WAT     H252242   4.296   6.205   4.629
17334WAT      O52243   5.481   2.520   0.497
17334WAT     H152244   5.395   2.470   0.499
17334WAT     H252245   5.464   2.617   0.513
17335WAT      O52246   6.157   6.525   5.743
17335WAT     H152247   6.120   6.459   5.678
17335WAT     H252248   6.122   6.504   5.835
17336WAT      O52249   3.553   1.381   0.005
17336WAT     H152250   3.492   1.460   0.018
17336WAT     H252251   3.633   1.390   0.064
17337WAT      O52252   0.387   0.205   9.281
17337WAT     H152253   0.441   0.217   9.198
17337WAT     H252254   0.394   0.110   9.312
17338WAT      O52255   1.098   6.472   5.332
17338WAT     H152256   1.130   6.407   5.263
17338WAT     H252257   1.103   6.430   5.423
17339WAT      O52258   1.002   8.469   2.683
17339WAT     H152259   1.086   8.414   2.684
17339WAT     H252260   0.968   8.478   2.590
17340WAT      O52261   2.654   3.053   5.271
17340WAT     H152262   2.664   3.152   5.280
17340WAT     H252263   2.584   3.033   5.202
17341WAT      O52264   7.348   3.826   7.297
17341WAT     H152265   7.391   3.823   7.387
17341WAT     H252266   7.378   3.907   7.248
17342WAT      O52267   8.051   8.377   6.182
17342WAT     H152268   8.140   8.336   6.161
17342WAT     H252269   8.062   8.444   6.255
17343WAT      O52270   2.750   6.130   0.029
17343WAT     H152271   2.755   6.220  -0.013
17343WAT     H252272   2.761   6.059  -0.041
17344WAT      O52273   0.523   6.461   5.683
17344WAT     H152274   0.441   6.492   5.634
17344WAT     H252275   0.510   6.475   5.781
17345WAT      O52276   5.735   3.722   5.449
17345WAT     H152277   5.809   3.677   5.499
17345WAT     H252278   5.765   3.741   5.355
17346WAT      O52279   8.683   9.475   8.898
17346WAT     H152280   8.747   9.494   8.823
17346WAT     H252281   8.670   9.559   8.951
17347WAT      O52282   7.174   3.067   0.231
17347WAT     H152283   7.201   3.136   0.164
17347WAT     H252284   7.170   2.978   0.187
17348WAT      O52285   3.508   1.395   8.193
17348WAT     H152286   3.446   1.335   8.243
17348WAT     H252287   3.489   1.390   8.095
17349WAT      O52288   9.160   3.788   1.335
17349WAT     H152289   9.060   3.784   1.337
17349WAT     H252290   9.189   3.875   1.294
17350WAT      O52291   3.065   1.693   9.426
17350WAT     H152292   3.106   1.753   9.495
17350WAT     H252293   3.112   1.605   9.426
17351WAT      O52294   3.767   0.332   9.014
17351WAT     H152295   3.697   0.360   9.080
17351WAT     H252296   3.849   0.389   9.027
17352WAT      O52297   4.476   6.687   3.502
17352WAT     H152298   4.398   6.698   3.563
17352WAT     H252299   4.472   6.755   3.429
17353WAT      O52300   7.093   3.228   6.837
17353WAT     H152301   7.159   3.152   6.832
17353WAT     H252302   7.110   3.281   6.921
17354WAT      O52303   4.788   6.650   1.609
17354WAT     H152304   4.834   6.737   1.626
17354WAT     H252305   4.802   6.624   1.513
17355WAT      O52306   4.122   3.074   6.065
17355WAT     H152307   4.023   3.080   6.075
17355WAT     H252308   4.165   3.148   6.116
17356WAT      O52309   5.618   6.711   7.949
17356WAT     H152310   5.551   6.645   7.984
17356WAT     H252311   5.607   6.797   7.997
17357WAT      O52312   6.260   5.616   3.531
17357WAT     H152313   6.270   5.664   3.443
17357WAT     H252314   6.242   5.520   3.514
17358WAT      O52315   2.099   4.123   1.819
17358WAT     H152316   2.168   4.185   1.781
17358WAT     H252317   2.135   4.030   1.818
17359WAT      O52318   0.144   8.645   5.290
17359WAT     H152319   0.163   8.743   5.291
17359WAT     H252320   0.217   8.596   5.337
17360WAT      O52321   5.529   1.261   5.787
17360WAT     H152322   5.551   1.309   5.702
17360WAT     H252323   5.467   1.316   5.842
17361WAT      O52324   0.171   9.290   8.496
17361WAT     H152325   0.092   9.230   8.480
17361WAT     H252326   0.230   9.250   8.566
17362WAT      O52327   0.736   9.833   3.205
17362WAT     H152328   0.752   9.891   3.285
17362WAT     H252329   0.638   9.817   3.194
17363WAT      O52330   4.558   3.087   9.004
17363WAT     H152331   4.640   3.071   8.950
17363WAT     H252332   4.477   3.066   8.949
17364WAT      O52333   1.303   3.760   4.877
17364WAT     H152334   1.242   3.773   4.955
17364WAT     H252335   1.398   3.771   4.908
17365WAT      O52336   7.907   7.898   4.776
17365WAT     H152337   7.994   7.896   4.827
17365WAT     H252338   7.911   7.831   4.702
17366WAT      O52339   0.841   5.407   5.032
17366WAT     H152340   0.928   5.434   4.993
17366WAT     H252341   0.768   5.418   4.964
17367WAT      O52342   8.965   7.957   1.181
17367WAT     H152343   8.903   7.879   1.186
17367WAT     H252344   8.932   8.031   1.239
17368WAT      O52345   1.367   2.427   2.752
17368WAT     H152346   1.370   2.506   2.691
17368WAT     H252347   1.396   2.455   2.844
17369WAT      O52348   3.555   2.273   9.335
17369WAT     H152349   3.478   2.252   9.275
17369WAT     H252350   3.523   2.272   9.430
17370WAT      O52351   5.731   3.597   6.306
17370WAT     H152352   5.796   3.607   6.381
17370WAT     H252353   5.713   3.687   6.265
17371WAT      O52354   8.433   6.167   1.880
17371WAT     H152355   8.358   6.231   1.895
17371WAT     H252356   8.399   6.073   1.892
17372WAT      O52357   4.312   2.569   7.401
17372WAT     H152358   4.214   2.565   7.419
17372WAT     H252359   4.337   2.496   7.337
17373WAT      O52360   4.466   7.013   0.679
17373WAT     H152361   4.544   7.015   0.742
17373WAT     H252362   4.415   7.099   0.686
17374WAT      O52363   3.727   1.536   8.544
17374WAT     H152364   3.680   1.563   8.460
17374WAT     H252365   3.720   1.611   8.611
17375WAT      O52366   4.635   8.275   1.140
17375WAT     H152367   4.606   8.371   1.130
17375WAT     H252368   4.671   8.242   1.054
17376WAT      O52369   6.989   0.200   4.104
17376WAT     H152370   7.044   0.160   4.178
17376WAT     H252371   7.019   0.162   4.017
17377WAT      O52372   5.049   4.830   0.627
17377WAT     H152373   4.953   4.839   0.600
17377WAT     H252374   5.093   4.919   0.622
17378WAT      O52375   4.923   7.649   7.483
17378WAT     H152376   4.868   7.567   7.498
17378WAT     H252377   4.864   7.723   7.449
17379WAT      O52378   1.894   4.426   2.093
17379WAT     H152379   1.919   4.473   2.177
17379WAT     H252380   1.908   4.327   2.104
17380WAT      O52381   6.796   8.795   7.062
17380WAT     H152382   6.878   8.747   7.031
17380WAT     H252383   6.792   8.793   7.162
17381WAT      O52384   0.304   2.758   7.863
17381WAT     H152385   0.266   2.829   7.804
17381WAT     H252386   0.231   2.696   7.892
17382WAT      O52387   8.090   3.617   8.763
17382WAT     H152388   8.170   3.563   8.788
17382WAT     H252389   8.094   3.640   8.666
17383WAT      O52390   8.323   1.536   8.122
17383WAT     H152391   8.235   1.527   8.076
17383WAT     H252392   8.313   1.595   8.202
17384WAT      O52393   0.442   8.283   2.224
17384WAT     H152394   0.347   8.297   2.197
17384WAT     H252395   0.492   8.239   2.149
17385WAT      O52396   7.694   3.021   0.420
17385WAT     H152397   7.750   3.062   0.348
17385WAT     H252398   7.597   3.028   0.395
17386WAT      O52399   8.283   1.967   3.623
17386WAT     H152400   8.248   1.919   3.542
17386WAT     H252401   8.382   1.964   3.623
17387WAT      O52402   6.872   7.427   3.321
17387WAT     H152403   6.958   7.397   3.363
17387WAT     H252404   6.891   7.461   3.229
17388WAT      O52405   4.345   1.964   6.268
17388WAT     H152406   4.290   2.047   6.272
17388WAT     H252407   4.422   1.972   6.332
17389WAT      O52408   9.881   8.267   1.741
17389WAT     H152409   9.871   8.279   1.642
17389WAT     H252410   9.805   8.312   1.787
17390WAT      O52411   6.011   3.439   8.454
17390WAT     H152412   5.964   3.431   8.367
17390WAT     H252413   6.040   3.533   8.468
17391WAT      O52414   6.385   1.623   6.909
17391WAT     H152415   6.380   1.557   6.984
17391WAT     H252416   6.470   1.676   6.917
17392WAT      O52417   6.770   0.066   1.711
17392WAT     H152418   6.717  -0.008   1.754
17392WAT     H252419   6.761   0.149   1.765
17393WAT      O52420   1.396   9.230   6.769
17393WAT     H152421   1.391   9.292   6.691
17393WAT     H252422   1.479   9.174   6.762
17394WAT      O52423   2.001   3.688   7.649
17394WAT     H152424   1.930   3.752   7.678
17394WAT     H252425   1.965   3.629   7.577
17395WAT      O52426   9.775   3.617   5.618
17395WAT     H152427   9.753   3.525   5.650
17395WAT     H252428   9.800   3.613   5.521
17396WAT      O52429   5.589   8.703   4.837
17396WAT     H152430   5.589   8.730   4.933
17396WAT     H252431   5.564   8.782   4.780
17397WAT      O52432   5.863   5.424   6.998
17397WAT     H152433   5.893   5.329   7.007
17397WAT     H252434   5.908   5.466   6.919
17398WAT      O52435   8.968   5.427   3.692
17398WAT     H152436   8.991   5.470   3.779
17398WAT     H252437   9.052   5.404   3.643
17399WAT      O52438   9.410   5.975   0.242
17399WAT     H152439   9.438   6.034   0.166
17399WAT     H252440   9.310   5.974   0.248
17400WAT      O52441   2.153   7.639   0.178
17400WAT     H152442   2.178   7.573   0.249
17400WAT     H252443   2.064   7.679   0.200
17401WAT      O52444   3.966   0.345   3.660
17401WAT     H152445   3.890   0.399   3.696
17401WAT     H252446   4.042   0.406   3.638
17402WAT      O52447   8.799   7.814   3.019
17402WAT     H152448   8.757   7.760   2.946
17402WAT     H252449   8.792   7.764   3.105
17403WAT      O52450   0.361   0.468   9.676
17403WAT     H152451   0.325   0.561   9.678
17403WAT     H252452   0.420   0.456   9.596
17404WAT      O52453   7.727   9.487   3.736
17404WAT     H152454   7.818   9.446   3.741
17404WAT     H252455   7.665   9.423   3.689
17405WAT      O52456   8.165   2.465   8.004
17405WAT     H152457   8.088   2.515   8.042
17405WAT     H252458   8.201   2.514   7.924
17406WAT      O52459   4.970   1.164   1.703
17406WAT     H152460   5.028   1.235   1.742
17406WAT     H252461   4.921   1.200   1.624
17407WAT      O52462   5.884   1.591   4.809
17407WAT     H152463   5.920   1.516   4.863
17407WAT     H252464   5.949   1.616   4.737
17408WAT      O52465   5.431   5.545   3.924
17408WAT     H152466   5.396   5.531   4.016
17408WAT     H252467   5.439   5.457   3.877
17409WAT      O52468   9.480   4.371   1.688
17409WAT     H152469   9.529   4.285   1.681
17409WAT     H252470   9.525   4.441   1.633
17410WAT      O52471   5.350   5.986   8.771
17410WAT     H152472   5.382   5.892   8.760
17410WAT     H252473   5.335   6.027   8.681
17411WAT      O52474   2.525   3.964   4.174
17411WAT     H152475   2.528   4.052   4.220
17411WAT     H252476   2.545   3.891   4.239
17412WAT      O52477   9.059   8.282   1.910
17412WAT     H152478   9.056   8.264   2.009
17412WAT     H252479   8.990   8.225   1.865
17413WAT      O52480   1.777   4.404   8.865
17413WAT     H152481   1.800   4.349   8.785
17413WAT     H252482   1.859   4.419   8.920
17414WAT      O52483   1.375   6.617   0.150
17414WAT     H152484   1.403   6.529   0.111
17414WAT     H252485   1.363   6.684   0.076
17415WAT      O52486   9.827   3.070   8.147
17415WAT     H152487   9.793   3.138   8.081
17415WAT     H252488   9.790   2.980   8.124
17416WAT      O52489   3.747   0.006   9.645
17416WAT     H152490   3.732   0.103   9.625
17416WAT     H252491   3.843  -0.016   9.630
17417WAT      O52492   0.627   1.760   3.571
17417WAT     H152493   0.638   1.698   3.648
17417WAT     H252494   0.713   1.808   3.555
17418WAT      O52495   4.050   9.714   3.984
17418WAT     H152496   4.053   9.775   4.064
17418WAT     H252497   4.066   9.620   4.014
17419WAT      O52498   1.227   6.296   7.197
17419WAT     H152499   1.179   6.282   7.284
17419WAT     H252500   1.206   6.387   7.161
17420WAT      O52501   5.076   8.245   6.088
17420WAT     H152502   4.984   8.224   6.055
17420WAT     H252503   5.143   8.206   6.025
17421WAT      O52504   8.816   3.861   9.191
17421WAT     H152505   8.789   3.882   9.285
17421WAT     H252506   8.746   3.895   9.128
17422WAT      O52507   7.271   3.508   3.132
17422WAT     H152508   7.338   3.578   3.155
17422WAT     H252509   7.236   3.525   3.040
17423WAT      O52510   9.011   5.377   4.930
17423WAT     H152511   9.010   5.389   4.830
17423WAT     H252512   9.029   5.281   4.951
17424WAT      O52513   3.348   3.553   9.034
17424WAT     H152514   3.420   3.620   9.049
17424WAT     H252515   3.363   3.507   8.947
17425WAT      O52516   9.113   7.951   2.435
17425WAT     H152517   9.042   8.017   2.459
17425WAT     H252518   9.157   7.978   2.350
17426WAT      O52519   9.721   3.070   1.481
17426WAT     H152520   9.710   3.074   1.382
17426WAT     H252521   9.710   2.976   1.512
17427WAT      O52522   8.379   9.565   2.869
17427WAT     H152523   8.369   9.476   2.915
17427WAT     H252524   8.316   9.630   2.910
17428WAT      O52525   8.717   5.666   3.990
17428WAT     H152526   8.641   5.700   4.045
17428WAT     H252527   8.776   5.608   4.047
17429WAT      O52528   9.180   8.265   5.978
17429WAT     H152529   9.120   8.332   5.934
17429WAT     H252530   9.275   8.282   5.951
17430WAT      O52531   7.415   6.257   6.009
17430WAT     H152532   7.471   6.181   5.975
17430WAT     H252533   7.320   6.244   5.981
17431WAT      O52534   5.243   2.781   4.919
17431WAT     H152535   5.283   2.785   4.828
17431WAT     H252536   5.232   2.685   4.946
17432WAT      O52537   0.233   2.911   8.696
17432WAT     H152538   0.146   2.959   8.701
17432WAT     H252539   0.218   2.814   8.716
17433WAT      O52540   1.048   4.944   2.013
17433WAT     H152541   0.955   4.937   1.977
17433WAT     H252542   1.050   5.006   2.091
17434WAT      O52543   4.968   0.944   4.412
17434WAT     H152544   4.959   0.852   4.373
17434WAT     H252545   5.060   0.955   4.449
17435WAT      O52546   2.708   6.859   9.805
17435WAT     H152547   2.734   6.944   9.851
17435WAT     H252548   2.722   6.869   9.706
17436WAT      O52549   7.622   7.548   5.911
17436WAT     H152550   7.636   7.450   5.925
17436WAT     H252551   7.559   7.562   5.835
17437WAT      O52552   0.379   2.430   5.912
17437WAT     H152553   0.370   2.526   5.887
17437WAT     H252554   0.290   2.385   5.904
17438WAT      O52555   2.673   2.493   2.307
17438WAT     H152556   2.755   2.506   2.252
17438WAT     H252557   2.695   2.439   2.388
17439WAT      O52558   1.820   0.907   6.928
17439WAT     H152559   1.873   0.992   6.929
17439WAT     H252560   1.726   0.926   6.901
17440WAT      O52561   3.595   8.200   0.598
17440WAT     H152562   3.586   8.296   0.622
17440WAT     H252563   3.585   8.190   0.499
17441WAT      O52564   1.275   3.249   5.516
17441WAT     H152565   1.279   3.319   5.445
17441WAT     H252566   1.367   3.217   5.537
17442WAT      O52567   4.245   3.143   7.112
17442WAT     H152568   4.320   3.164   7.048
17442WAT     H252569   4.235   3.044   7.120
17443WAT      O52570   7.386   4.566   2.768
17443WAT     H152571   7.318   4.537   2.701
17443WAT     H252572   7.344   4.629   2.833
17444WAT      O52573   4.154   0.298   2.674
17444WAT     H152574   4.172   0.365   2.602
17444WAT     H252575   4.203   0.324   2.757
17445WAT      O52576   0.123   1.419   3.390
17445WAT     H152577   0.159   1.399   3.481
17445WAT     H252578   0.125   1.337   3.334
17446WAT      O52579   0.157   2.145   7.109
17446WAT     H152580   0.231   2.091   7.151
17446WAT     H252581   0.095   2.084   7.060
17447WAT      O52582   3.301   2.110   2.603
17447WAT     H152583   3.302   2.145   2.697
17447WAT     H252584   3.336   2.179   2.541
17448WAT      O52585   8.962   0.600   3.668
17448WAT     H152586   9.034   0.565   3.607
17448WAT     H252587   8.978   0.566   3.761
17449WAT      O52588   8.387   6.565   9.050
17449WAT     H152589   8.411   6.483   9.000
17449WAT     H252590   8.425   6.560   9.143
17450WAT      O52591   3.017   9.806   7.227
17450WAT     H152592   3.058   9.718   7.202
17450WAT     H252593   3.089   9.875   7.235
17451WAT      O52594   9.125   8.540   3.866
17451WAT     H152595   9.125   8.474   3.791
17451WAT     H252596   9.030   8.559   3.892
17452WAT      O52597   2.965   1.245   0.778
17452WAT     H152598   3.055   1.203   0.794
17452WAT     H252599   2.916   1.253   0.866
17453WAT      O52600   5.303   4.107   3.172
17453WAT     H152601   5.363   4.105   3.252
17453WAT     H252602   5.325   4.186   3.116
17454WAT      O52603   1.123   2.911   3.655
17454WAT     H152604   1.036   2.954   3.677
17454WAT     H252605   1.123   2.816   3.689
17455WAT      O52606   0.469   9.544   9.298
17455WAT     H152607   0.539   9.550   9.226
17455WAT     H252608   0.467   9.451   9.334
17456WAT      O52609   9.028   0.294   5.641
17456WAT     H152610   9.104   0.273   5.702
17456WAT     H252611   9.027   0.229   5.565
17457WAT      O52612   2.603   3.018   4.599
17457WAT     H152613   2.604   2.945   4.668
17457WAT     H252614   2.568   2.982   4.513
17458WAT      O52615   7.640   8.877   1.783
17458WAT     H152616   7.669   8.933   1.860
17458WAT     H252617   7.711   8.809   1.762
17459WAT      O52618   8.833   0.784   9.842
17459WAT     H152619   8.815   0.847   9.918
17459WAT     H252620   8.914   0.729   9.862
17460WAT      O52621   4.707   3.377   1.299
17460WAT     H152622   4.774   3.435   1.344
17460WAT     H252623   4.748   3.338   1.216
17461WAT      O52624   6.304   9.138   4.177
17461WAT     H152625   6.341   9.092   4.257
17461WAT     H252626   6.374   9.144   4.106
17462WAT      O52627   9.842   6.246   3.267
17462WAT     H152628   9.875   6.338   3.291
17462WAT     H252629   9.917   6.193   3.229
17463WAT      O52630   0.988   4.517   6.614
17463WAT     H152631   0.989   4.436   6.556
17463WAT     H252632   1.024   4.494   6.705
17464WAT      O52633   3.624   7.783   1.803
17464WAT     H152634   3.666   7.692   1.813
17464WAT     H252635   3.581   7.790   1.713
17465WAT      O52636   8.600   1.288   1.169
17465WAT     H152637   8.500   1.284   1.167
17465WAT     H252638   8.631   1.383   1.173
17466WAT      O52639   3.037   2.331   7.291
17466WAT     H152640   3.131   2.361   7.277
17466WAT     H252641   2.984   2.346   7.208
17467WAT      O52642   0.741   0.982   9.652
17467WAT     H152643   0.731   0.884   9.633
17467WAT     H252644   0.729   1.034   9.568
17468WAT      O52645   8.391   2.432   0.709
17468WAT     H152646   8.355   2.369   0.778
17468WAT     H252647   8.453   2.382   0.648
17469WAT      O52648   6.907   2.179   3.562
17469WAT     H152649   7.003   2.187   3.589
17469WAT     H252650   6.849   2.180   3.643
17470WAT      O52651   2.898   5.033   8.923
17470WAT     H152652   2.934   5.063   8.834
17470WAT     H252653   2.799   5.019   8.916
17471WAT      O52654   2.005   6.987   2.060
17471WAT     H152655   1.921   7.036   2.083
17471WAT     H252656   2.062   7.046   2.002
17472WAT      O52657   6.134   5.324   3.074
17472WAT     H152658   6.228   5.306   3.103
17472WAT     H252659   6.075   5.248   3.102
17473WAT      O52660   5.150   0.388   3.567
17473WAT     H152661   5.197   0.300   3.573
17473WAT     H252662   5.182   0.448   3.640
17474WAT      O52663   1.962   7.961   6.980
17474WAT     H152664   1.974   8.027   7.054
17474WAT     H252665   1.940   7.871   7.018
17475WAT      O52666   1.212   3.262   8.240
17475WAT     H152667   1.122   3.292   8.209
17475WAT     H252668   1.221   3.279   8.338
17476WAT      O52669   2.768   5.461   1.128
17476WAT     H152670   2.761   5.384   1.065
17476WAT     H252671   2.840   5.524   1.099
17477WAT      O52672   9.432   2.368   4.018
17477WAT     H152673   9.438   2.309   3.938
17477WAT     H252674   9.401   2.314   4.097
17478WAT      O52675   8.589   4.842   0.621
17478WAT     H152676   8.541   4.889   0.547
17478WAT     H252677   8.680   4.881   0.632
17479WAT      O52678   8.109   2.913   5.009
17479WAT     H152679   8.091   2.833   5.066
17479WAT     H252680   8.170   2.887   4.934
17480WAT      O52681   4.743   2.323   4.830
17480WAT     H152682   4.718   2.228   4.848
17480WAT     H252683   4.661   2.375   4.804
17481WAT      O52684   1.036   0.367   4.154
17481WAT     H152685   0.978   0.290   4.182
17481WAT     H252686   1.123   0.332   4.121
17482WAT      O52687   9.178   2.399   3.396
17482WAT     H152688   9.191   2.301   3.383
17482WAT     H252689   9.080   2.420   3.403
17483WAT      O52690   3.547   3.465   7.764
17483WAT     H152691   3.475   3.413   7.717
17483WAT     H252692   3.528   3.466   7.863
17484WAT      O52693   4.433   5.440   9.567
17484WAT     H152694   4.336   5.417   9.577
17484WAT     H252695   4.473   5.385   9.494
17485WAT      O52696   3.984   5.236   9.699
17485WAT     H152697   4.008   5.202   9.789
17485WAT     H252698   3.935   5.166   9.648
17486WAT      O52699   8.032   5.683   8.929
17486WAT     H152700   8.111   5.734   8.894
17486WAT     H252701   8.051   5.585   8.924
17487WAT      O52702   6.446   4.367   4.432
17487WAT     H152703   6.405   4.430   4.366
17487WAT     H252704   6.509   4.306   4.384
17488WAT      O52705   8.549   2.419   6.279
17488WAT     H152706   8.466   2.471   6.261
17488WAT     H252707   8.542   2.329   6.235
17489WAT      O52708   5.531   6.603   9.412
17489WAT     H152709   5.435   6.584   9.434
17489WAT     H252710   5.589   6.568   9.486
17490WAT      O52711   7.419   9.486   2.184
17490WAT     H152712   7.326   9.467   2.215
17490WAT     H252713   7.430   9.584   2.171
17491WAT      O52714   7.804   7.061   6.118
17491WAT     H152715   7.859   6.978   6.102
17491WAT     H252716   7.727   7.062   6.055
17492WAT      O52717   6.853   8.315   5.318
17492WAT     H152718   6.754   8.321   5.301
17492WAT     H252719   6.884   8.399   5.363
17493WAT      O52720   0.483   2.648   7.693
17493WAT     H152721   0.416   2.699   7.748
17493WAT     H252722   0.573   2.654   7.736
17494WAT      O52723   3.287   0.640   7.653
17494WAT     H152724   3.386   0.647   7.671
17494WAT     H252725   3.236   0.660   7.736
17495WAT      O52726   2.080   7.208   7.552
17495WAT     H152727   2.072   7.123   7.604
17495WAT     H252728   2.082   7.187   7.454
17496WAT      O52729   2.788   6.260   3.915
17496WAT     H152730   2.691   6.241   3.936
17496WAT     H252731   2.828   6.180   3.870
17497WAT      O52732   7.092   6.057   0.357
17497WAT     H152733   7.170   5.997   0.335
17497WAT     H252734   7.126   6.148   0.379
17498WAT      O52735   0.476   2.486   1.537
17498WAT     H152736   0.503   2.562   1.478
17498WAT     H252737   0.463   2.404   1.482
17499WAT      O52738   9.598   7.474   7.141
17499WAT     H152739   9.555   7.445   7.227
17499WAT     H252740   9.527   7.507   7.078
17500WAT      O52741   3.398   3.521   2.883
17500WAT     H152742   3.493   3.515   2.914
17500WAT     H252743   3.388   3.475   2.796
17501WAT      O52744   6.929   1.746   8.819
17501WAT     H152745   6.844   1.711   8.779
17501WAT     H252746   6.982   1.671   8.858
17502WAT      O52747   7.069   3.190   1.784
17502WAT     H152748   6.979   3.230   1.765
17502WAT     H252749   7.120   3.250   1.845
17503WAT      O52750   4.205   4.738   6.591
17503WAT     H152751   4.273   4.747   6.663
17503WAT     H252752   4.209   4.645   6.552
17504WAT      O52753   6.212   7.890   8.236
17504WAT     H152754   6.118   7.916   8.213
17504WAT     H252755   6.274   7.924   8.166
17505WAT      O52756   4.047   2.740   0.434
17505WAT     H152757   4.139   2.714   0.465
17505WAT     H252758   4.046   2.836   0.409
17506WAT      O52759   0.179   0.142   3.500
17506WAT     H152760   0.095   0.091   3.517
17506WAT     H252761   0.249   0.114   3.566
17507WAT      O52762   2.962   1.847   7.929
17507WAT     H152763   2.999   1.755   7.941
17507WAT     H252764   3.019   1.912   7.980
17508WAT      O52765   2.573   3.142   0.065
17508WAT     H152766   2.615   3.053   0.084
17508WAT     H252767   2.634   3.197   0.009
17509WAT      O52768   7.541   1.610   8.246
17509WAT     H152769   7.507   1.558   8.325
17509WAT     H252770   7.638   1.629   8.258
17510WAT      O52771   4.045   8.258   2.329
17510WAT     H152772   4.040   8.222   2.422
17510WAT     H252773   3.977   8.331   2.318
17511WAT      O52774   5.000   3.346   7.562
17511WAT     H152775   4.981   3.443   7.547
17511WAT     H252776   4.990   3.296   7.476
17512WAT      O52777   8.820   1.165   3.873
17512WAT     H152778   8.823   1.123   3.964
17512WAT     H252779   8.903   1.140   3.823
17513WAT      O52780   1.769   9.153   2.937
17513WAT     H152781   1.832   9.105   2.999
17513WAT     H252782   1.804   9.244   2.917
17514WAT      O52783   7.236   4.190   7.000
17514WAT     H152784   7.230   4.182   6.901
17514WAT     H252785   7.267   4.282   7.024
17515WAT      O52786   9.119   2.778   6.250
17515WAT     H152787   9.159   2.689   6.228
17515WAT     H252788   9.147   2.805   6.342
17516WAT      O52789   8.562   1.259   8.919
17516WAT     H152790   8.535   1.334   8.980
17516WAT     H252791   8.656   1.275   8.888
17517WAT      O52792   4.649   1.686   6.021
17517WAT     H152793   4.631   1.604   6.075
17517WAT     H252794   4.694   1.754   6.078
17518WAT      O52795   2.106   1.686   6.074
17518WAT     H152796   2.122   1.717   5.981
17518WAT     H252797   2.058   1.598   6.073
17519WAT      O52798   6.873   0.593   0.983
17519WAT     H152799   6.927   0.550   1.055
17519WAT     H252800   6.775   0.576   0.999
17520WAT      O52801   5.541   0.665   8.583
17520WAT     H152802   5.499   0.707   8.664
17520WAT     H252803   5.478   0.598   8.543
17521WAT      O52804   1.873   4.701   8.838
17521WAT     H152805   1.919   4.789   8.825
17521WAT     H252806   1.790   4.715   8.892
17522WAT      O52807   4.493   8.843   1.685
17522WAT     H152808   4.576   8.794   1.658
17522WAT     H252809   4.427   8.840   1.611
17523WAT      O52810   5.193   1.603   9.831
17523WAT     H152811   5.227   1.544   9.904
17523WAT     H252812   5.270   1.645   9.784
17524WAT      O52813   1.851   7.820   1.960
17524WAT     H152814   1.805   7.767   1.888
17524WAT     H252815   1.783   7.856   2.023
17525WAT      O52816   6.452   7.763   1.280
17525WAT     H152817   6.460   7.842   1.341
17525WAT     H252818   6.541   7.720   1.269
17526WAT      O52819   7.961   9.259   4.822
17526WAT     H152820   7.931   9.341   4.773
17526WAT     H252821   7.959   9.278   4.921
17527WAT      O52822   8.997   2.939   3.667
17527WAT     H152823   9.070   2.986   3.618
17527WAT     H252824   9.031   2.851   3.701
17528WAT      O52825   4.567   3.178   4.978
17528WAT     H152826   4.554   3.196   5.076
17528WAT     H252827   4.496   3.226   4.926
17529WAT      O52828   0.984   1.429   5.308
17529WAT     H152829   0.904   1.416   5.248
17529WAT     H252830   0.957   1.483   5.387
17530WAT      O52831   6.228   8.104   4.607
17530WAT     H152832   6.306   8.069   4.556
17530WAT     H252833   6.229   8.067   4.700
17531WAT      O52834   0.386   3.284   7.133
17531WAT     H152835   0.292   3.275   7.102
17531WAT     H252836   0.392   3.357   7.201
17532WAT      O52837   9.014   5.227   0.950
17532WAT     H152838   8.930   5.189   0.988
17532WAT     H252839   9.067   5.154   0.906
17533WAT      O52840   9.030   7.779   1.816
17533WAT     H152841   8.983   7.822   1.894
17533WAT     H252842   9.020   7.836   1.735
17534WAT      O52843   4.518   2.622   2.967
17534WAT     H152844   4.614   2.608   2.942
17534WAT     H252845   4.491   2.716   2.943
17535WAT      O52846   4.758   2.172   4.163
17535WAT     H152847   4.772   2.194   4.066
17535WAT     H252848   4.670   2.126   4.174
17536WAT      O52849   7.964   6.194   1.521
17536WAT     H152850   7.978   6.186   1.422
17536WAT     H252851   7.895   6.128   1.550
17537WAT      O52852   7.317   8.166   7.204
17537WAT     H152853   7.263   8.083   7.218
17537WAT     H252854   7.274   8.221   7.133
17538WAT      O52855   9.352   7.084   2.215
17538WAT     H152856   9.383   7.149   2.146
17538WAT     H252857   9.252   7.084   2.219
17539WAT      O52858   4.869   6.733   6.752
17539WAT     H152859   4.839   6.661   6.689
17539WAT     H252860   4.916   6.692   6.830
17540WAT      O52861   9.265   8.426   6.682
17540WAT     H152862   9.356   8.454   6.710
17540WAT     H252863   9.240   8.473   6.597
17541WAT      O52864   1.241   3.163   3.692
17541WAT     H152865   1.243   3.171   3.792
17541WAT     H252866   1.179   3.089   3.666
17542WAT      O52867   9.823   6.959   4.000
17542WAT     H152868   9.895   6.994   4.061
17542WAT     H252869   9.743   7.019   4.005
17543WAT      O52870   5.305   3.628   2.323
17543WAT     H152871   5.223   3.666   2.279
17543WAT     H252872   5.372   3.701   2.337
17544WAT      O52873   2.718   1.451   7.037
17544WAT     H152874   2.621   1.428   7.045
17544WAT     H252875   2.734   1.540   7.080
17545WAT      O52876   4.305   1.937   2.468
17545WAT     H152877   4.266   1.909   2.380
17545WAT     H252878   4.233   1.978   2.525
17546WAT      O52879   1.080   2.968   7.603
17546WAT     H152880   1.003   2.927   7.554
17546WAT     H252881   1.048   3.047   7.655
17547WAT      O52882   6.385   1.418   5.035
17547WAT     H152883   6.312   1.350   5.035
17547WAT     H252884   6.352   1.503   5.077
17548WAT      O52885   2.593   6.629   3.296
17548WAT     H152886   2.665   6.696   3.274
17548WAT     H252887   2.557   6.648   3.387
17549WAT      O52888   9.037   7.459   3.568
17549WAT     H152889   9.084   7.421   3.647
17549WAT     H252890   9.100   7.517   3.516
17550WAT      O52891   0.331   1.128   9.001
17550WAT     H152892   0.356   1.034   9.025
17550WAT     H252893   0.375   1.153   8.915
17551WAT      O52894   5.950   1.650   4.071
17551WAT     H152895   5.968   1.748   4.069
17551WAT     H252896   5.851   1.635   4.068
17552WAT      O52897   2.504   2.831   5.917
17552WAT     H152898   2.591   2.782   5.927
17552WAT     H252899   2.499   2.870   5.825
17553WAT      O52900   4.693   7.587   0.625
17553WAT     H152901   4.714   7.494   0.595
17553WAT     H252902   4.775   7.629   0.663
17554WAT      O52903   9.711   6.403   8.853
17554WAT     H152904   9.708   6.332   8.924
17554WAT     H252905   9.784   6.382   8.788
17555WAT      O52906   1.134   2.102   1.487
17555WAT     H152907   1.098   2.129   1.576
17555WAT     H252908   1.058   2.090   1.423
17556WAT      O52909   4.920   0.687   6.728
17556WAT     H152910   4.903   0.745   6.809
17556WAT     H252911   4.833   0.655   6.692
17557WAT      O52912   8.674   1.387   3.925
17557WAT     H152913   8.624   1.365   4.009
17557WAT     H252914   8.726   1.307   3.896
17558WAT      O52915   2.244   3.629   4.484
17558WAT     H152916   2.243   3.679   4.397
17558WAT     H252917   2.262   3.692   4.559
17559WAT      O52918   5.685   9.768   4.748
17559WAT     H152919   5.749   9.840   4.721
17559WAT     H252920   5.703   9.685   4.695
17560WAT      O52921   9.037   6.303   2.041
17560WAT     H152922   9.132   6.292   2.012
17560WAT     H252923   8.977   6.274   1.966
17561WAT      O52924   7.402   7.250   6.807
17561WAT     H152925   7.453   7.327   6.847
17561WAT     H252926   7.431   7.165   6.850
17562WAT      O52927   7.013   3.161   3.614
17562WAT     H152928   7.077   3.215   3.558
17562WAT     H252929   7.045   3.160   3.709
17563WAT      O52930   1.039   9.467   6.418
17563WAT     H152931   1.075   9.526   6.489
17563WAT     H252932   0.974   9.402   6.458
17564WAT      O52933   4.055   4.182   4.746
17564WAT     H152934   3.989   4.160   4.818
17564WAT     H252935   4.116   4.105   4.731
17565WAT      O52936   6.173   3.549   8.842
17565WAT     H152937   6.164   3.453   8.867
17565WAT     H252938   6.164   3.605   8.924
17566WAT      O52939   5.678   5.642   9.151
17566WAT     H152940   5.592   5.600   9.124
17566WAT     H252941   5.660   5.717   9.216
17567WAT      O52942   2.483   6.320   3.021
17567WAT     H152943   2.456   6.417   3.024
17567WAT     H252944   2.545   6.305   2.944
17568WAT      O52945   5.250   1.489   1.371
17568WAT     H152946   5.255   1.458   1.466
17568WAT     H252947   5.281   1.584   1.365
17569WAT      O52948   2.596   9.170   3.364
17569WAT     H152949   2.530   9.180   3.439
17569WAT     H252950   2.676   9.119   3.397
17570WAT      O52951   4.858   1.519   1.645
17570WAT     H152952   4.852   1.429   1.602
17570WAT     H252953   4.842   1.590   1.576
17571WAT      O52954   7.967   2.009   8.780
17571WAT     H152955   7.961   1.962   8.692
17571WAT     H252956   8.002   1.947   8.849
17572WAT      O52957   7.862   5.846   3.529
17572WAT     H152958   7.827   5.907   3.599
17572WAT     H252959   7.845   5.751   3.556
17573WAT      O52960   1.402   9.258   2.662
17573WAT     H152961   1.471   9.193   2.632
17573WAT     H252962   1.331   9.211   2.713
17574WAT      O52963   1.970   6.218   8.424
17574WAT     H152964   2.043   6.225   8.492
17574WAT     H252965   1.907   6.144   8.450
17575WAT      O52966   9.491   0.450   1.565
17575WAT     H152967   9.394   0.454   1.540
17575WAT     H252968   9.547   0.475   1.486
17576WAT      O52969   0.042   5.154   6.397
17576WAT     H152970  -0.007   5.241   6.410
17576WAT     H252971  -0.025   5.080   6.387
17577WAT      O52972   2.362   8.247   1.345
17577WAT     H152973   2.415   8.213   1.423
17577WAT     H252974   2.396   8.204   1.261
17578WAT      O52975   8.209   7.128   9.193
17578WAT     H152976   8.230   7.115   9.290
17578WAT     H252977   8.218   7.041   9.145
17579WAT      O52978   5.567   6.302   8.261
17579WAT     H152979   5.521   6.390   8.275
17579WAT     H252980   5.592   6.293   8.165
17580WAT      O52981   1.154   3.770   9.783
17580WAT     H152982   1.084   3.702   9.805
17580WAT     H252983   1.176   3.823   9.865
17581WAT      O52984   1.931   4.548   5.579
17581WAT     H152985   1.876   4.466   5.594
17581WAT     H252986   2.017   4.541   5.630
17582WAT      O52987   1.529   9.509   6.116
17582WAT     H152988   1.515   9.573   6.040
17582WAT     H252989   1.570   9.424   6.082
17583WAT      O52990   3.404   4.661   2.271
17583WAT     H152991   3.375   4.640   2.364
17583WAT     H252992   3.369   4.751   2.244
17584WAT      O52993   9.128   9.143   2.114
17584WAT     H152994   9.215   9.155   2.163
17584WAT     H252995   9.054   9.184   2.167
17585WAT      O52996   2.879   1.658   6.667
17585WAT     H152997   2.943   1.716   6.717
17585WAT     H252998   2.789   1.664   6.710
17586WAT      O52999   4.085   9.737   8.173
17586WAT     H153000   4.165   9.734   8.233
17586WAT     H253001   4.076   9.649   8.125
17587WAT      O53002   0.764   2.891   3.972
17587WAT     H153003   0.860   2.868   3.958
17587WAT     H253004   0.718   2.816   4.021
17588WAT      O53005   3.602   3.336   4.274
17588WAT     H153006   3.570   3.282   4.197
17588WAT     H253007   3.659   3.411   4.241
17589WAT      O53008   7.890   3.181   2.043
17589WAT     H153009   7.822   3.224   2.101
17589WAT     H253010   7.946   3.251   1.999
17590WAT      O53011   8.464   2.894   9.359
17590WAT     H153012   8.406   2.964   9.399
17590WAT     H253013   8.458   2.810   9.413
17591WAT      O53014   5.564   1.946   1.887
17591WAT     H153015   5.508   2.022   1.922
17591WAT     H253016   5.640   1.982   1.834
17592WAT      O53017   9.403   3.940   9.429
17592WAT     H153018   9.330   3.933   9.496
17592WAT     H253019   9.491   3.949   9.476
17593WAT      O53020   3.136   7.067   6.382
17593WAT     H153021   3.220   7.013   6.380
17593WAT     H253022   3.152   7.152   6.432
17594WAT      O53023   7.496   5.795   3.889
17594WAT     H153024   7.558   5.865   3.856
17594WAT     H253025   7.402   5.820   3.864
17595WAT      O53026   8.789   0.813   7.902
17595WAT     H153027   8.839   0.749   7.962
17595WAT     H253028   8.847   0.892   7.882
17596WAT      O53029   7.636   1.113   8.310
17596WAT     H153030   7.594   1.069   8.230
17596WAT     H253031   7.707   1.177   8.279
17597WAT      O53032   1.738   0.575   9.821
17597WAT     H153033   1.836   0.579   9.838
17597WAT     H253034   1.697   0.503   9.876
17598WAT      O53035   0.495   1.271   9.160
17598WAT     H153036   0.444   1.220   9.091
17598WAT     H253037   0.434   1.337   9.204
17599WAT      O53038   1.383   0.745   4.984
17599WAT     H153039   1.469   0.726   4.936
17599WAT     H253040   1.359   0.841   4.972
17600WAT      O53041   7.701   8.028   9.665
17600WAT     H153042   7.667   8.038   9.571
17600WAT     H253043   7.793   8.066   9.671
17601WAT      O53044   7.717   7.818   8.079
17601WAT     H153045   7.770   7.852   8.156
17601WAT     H253046   7.709   7.719   8.084
17602WAT      O53047   5.568   4.627   0.133
17602WAT     H153048   5.562   4.527   0.121
17602WAT     H253049   5.535   4.672   0.051
17603WAT      O53050   5.598   8.561   6.321
17603WAT     H153051   5.650   8.476   6.322
17603WAT     H253052   5.504   8.542   6.292
17604WAT      O53053   9.434   6.883   7.528
17604WAT     H153054   9.425   6.785   7.512
17604WAT     H253055   9.379   6.909   7.607
17605WAT      O53056   3.290   6.067   0.778
17605WAT     H153057   3.329   5.980   0.747
17605WAT     H253058   3.256   6.118   0.699
17606WAT      O53059   6.162   8.913   7.059
17606WAT     H153060   6.161   8.988   7.125
17606WAT     H253061   6.231   8.846   7.086
17607WAT      O53062   6.725   3.694   3.888
17607WAT     H153063   6.721   3.757   3.966
17607WAT     H253064   6.781   3.734   3.816
17608WAT      O53065   5.219   7.997   1.357
17608WAT     H153066   5.299   7.984   1.417
17608WAT     H253067   5.196   7.910   1.314
17609WAT      O53068   3.687   7.879   0.041
17609WAT     H153069   3.698   7.837  -0.049
17609WAT     H253070   3.592   7.869   0.071
17610WAT      O53071   9.694   4.770   3.158
17610WAT     H153072   9.731   4.723   3.077
17610WAT     H253073   9.758   4.841   3.187
17611WAT      O53074   2.790   8.159   5.245
17611WAT     H153075   2.790   8.247   5.291
17611WAT     H253076   2.841   8.166   5.159
17612WAT      O53077   4.747   7.447   7.764
17612WAT     H153078   4.765   7.364   7.816
17612WAT     H253079   4.740   7.425   7.667
17613WAT      O53080   2.128   2.761   0.887
17613WAT     H153081   2.158   2.832   0.824
17613WAT     H253082   2.083   2.803   0.966
17614WAT      O53083   0.170   1.990   9.173
17614WAT     H153084   0.262   1.977   9.134
17614WAT     H253085   0.108   2.019   9.100
17615WAT      O53086   5.708   5.344   0.976
17615WAT     H153087   5.744   5.289   1.051
17615WAT     H253088   5.669   5.429   1.012
17616WAT      O53089   4.233   7.382   1.437
17616WAT     H153090   4.244   7.479   1.412
17616WAT     H253091   4.163   7.374   1.508
17617WAT      O53092   0.591   8.602   8.961
17617WAT     H153093   0.501   8.598   8.918
17617WAT     H253094   0.662   8.599   8.891
17618WAT      O53095   3.086   0.903   9.890
17618WAT     H153096   3.016   0.884   9.959
17618WAT     H253097   3.043   0.923   9.802
17619WAT      O53098   4.148   4.282   5.771
17619WAT     H153099   4.173   4.339   5.849
17619WAT     H253100   4.063   4.316   5.730
17620WAT      O53101   4.069   2.926   1.944
17620WAT     H153102   4.099   3.005   1.890
17620WAT     H253103   3.976   2.943   1.978
17621WAT      O53104   4.376   6.736   9.330
17621WAT     H153105   4.340   6.812   9.276
17621WAT     H253106   4.347   6.649   9.291
17622WAT      O53107   8.391   7.192   4.533
17622WAT     H153108   8.339   7.126   4.480
17622WAT     H253109   8.335   7.272   4.552
17623WAT      O53110   9.878   0.716   2.158
17623WAT     H153111   9.917   0.714   2.065
17623WAT     H253112   9.793   0.663   2.159
17624WAT      O53113   6.795   4.384   7.385
17624WAT     H153114   6.845   4.449   7.441
17624WAT     H253115   6.797   4.294   7.429
17625WAT      O53116   9.688   4.923   8.576
17625WAT     H153117   9.665   5.010   8.621
17625WAT     H253118   9.605   4.874   8.553
17626WAT      O53119   5.396   1.500   9.165
17626WAT     H153120   5.451   1.429   9.119
17626WAT     H253121   5.395   1.582   9.108
17627WAT      O53122   0.070   8.807   4.376
17627WAT     H153123   0.139   8.766   4.436
17627WAT     H253124   0.093   8.904   4.362
17628WAT      O53125   4.423   7.339   0.530
17628WAT     H153126   4.503   7.398   0.532
17628WAT     H253127   4.431   7.274   0.455
17629WAT      O53128   4.944   0.463   3.392
17629WAT     H153129   5.025   0.419   3.432
17629WAT     H253130   4.966   0.496   3.300
17630WAT      O53131   6.212   3.842   2.182
17630WAT     H153132   6.185   3.746   2.178
17630WAT     H253133   6.190   3.887   2.095
17631WAT      O53134   4.888   2.895   9.117
17631WAT     H153135   4.855   2.969   9.057
17631WAT     H253136   4.818   2.824   9.124
17632WAT      O53137   7.255   3.829   5.281
17632WAT     H153138   7.157   3.807   5.276
17632WAT     H253139   7.306   3.762   5.228
17633WAT      O53140   3.582   2.936   1.351
17633WAT     H153141   3.604   2.989   1.269
17633WAT     H253142   3.535   2.994   1.417
17634WAT      O53143   0.921   4.928   2.947
17634WAT     H153144   0.852   4.989   2.907
17634WAT     H253145   0.918   4.935   3.047
17635WAT      O53146   2.600   6.002   3.452
17635WAT     H153147   2.614   5.941   3.375
17635WAT     H253148   2.687   6.042   3.479
17636WAT      O53149   6.281   1.743   9.078
17636WAT     H153150   6.323   1.819   9.128
17636WAT     H253151   6.343   1.664   9.081
17637WAT      O53152   0.761   7.339   5.644
17637WAT     H153153   0.682   7.278   5.645
17637WAT     H253154   0.738   7.423   5.694
17638WAT      O53155   3.102   4.286   8.780
17638WAT     H153156   3.171   4.347   8.820
17638WAT     H253157   3.131   4.258   8.689
17639WAT      O53158   1.733   3.462   3.594
17639WAT     H153159   1.642   3.423   3.577
17639WAT     H253160   1.733   3.511   3.681
17640WAT      O53161   1.152   0.682   6.524
17640WAT     H153162   1.187   0.609   6.583
17640WAT     H253163   1.094   0.744   6.577
17641WAT      O53164   2.557   3.218   1.287
17641WAT     H153165   2.596   3.138   1.242
17641WAT     H253166   2.603   3.301   1.255
17642WAT      O53167   3.126   4.799   5.426
17642WAT     H153168   3.099   4.872   5.490
17642WAT     H253169   3.197   4.834   5.365
17643WAT      O53170   7.354   0.871   8.379
17643WAT     H153171   7.429   0.858   8.314
17643WAT     H253172   7.318   0.782   8.407
17644WAT      O53173   2.852   9.703   9.647
17644WAT     H153174   2.782   9.705   9.719
17644WAT     H253175   2.907   9.620   9.655
17645WAT      O53176   3.939   2.155   3.849
17645WAT     H153177   3.924   2.072   3.794
17645WAT     H253178   4.030   2.190   3.831
17646WAT      O53179   5.086   2.933   8.195
17646WAT     H153180   5.004   2.914   8.141
17646WAT     H253181   5.059   2.964   8.286
17647WAT      O53182   9.878   2.851   6.651
17647WAT     H153183   9.820   2.918   6.605
17647WAT     H253184   9.828   2.764   6.659
17648WAT      O53185   1.055   2.988   8.115
17648WAT     H153186   1.111   2.978   8.196
17648WAT     H253187   1.112   2.982   8.033
17649WAT      O53188   0.525   4.545   3.319
17649WAT     H153189   0.493   4.492   3.398
17649WAT     H253190   0.621   4.570   3.333
17650WAT      O53191   7.279   4.826   8.475
17650WAT     H153192   7.332   4.908   8.456
17650WAT     H253193   7.205   4.817   8.408
17651WAT      O53194   0.092   9.705   6.955
17651WAT     H153195   0.173   9.672   6.906
17651WAT     H253196   0.070   9.642   7.029
17652WAT      O53197   2.197   4.160   5.827
17652WAT     H153198   2.248   4.162   5.741
17652WAT     H253199   2.224   4.079   5.879
17653WAT      O53200   6.218   3.885   0.224
17653WAT     H153201   6.264   3.972   0.207
17653WAT     H253202   6.258   3.815   0.164
17654WAT      O53203   5.553   6.107   8.458
17654WAT     H153204   5.459   6.130   8.483
17654WAT     H253205   5.579   6.154   8.374
17655WAT      O53206   6.404   3.124   8.343
17655WAT     H153207   6.439   3.048   8.398
17655WAT     H253208   6.370   3.196   8.403
17656WAT      O53209   2.960   7.951   0.588
17656WAT     H153210   3.053   7.986   0.582
17656WAT     H253211   2.959   7.869   0.645
17657WAT      O53212   1.263   4.208   3.552
17657WAT     H153213   1.265   4.112   3.583
17657WAT     H253214   1.236   4.211   3.456
17658WAT      O53215   2.769   7.506   5.824
17658WAT     H153216   2.821   7.529   5.906
17658WAT     H253217   2.761   7.407   5.816
17659WAT      O53218   6.883   8.173   8.186
17659WAT     H153219   6.803   8.153   8.243
17659WAT     H253220   6.946   8.096   8.188
17660WAT      O53221   7.083   0.262   1.448
17660WAT     H153222   6.991   0.257   1.410
17660WAT     H253223   7.093   0.345   1.502
17661WAT      O53224   1.513   9.479   7.031
17661WAT     H153225   1.591   9.456   6.973
17661WAT     H253226   1.542   9.546   7.100
17662WAT      O53227   5.423   0.583   1.933
17662WAT     H153228   5.480   0.549   2.008
17662WAT     H253229   5.336   0.534   1.933
17663WAT      O53230   3.248   5.464   2.578
17663WAT     H153231   3.332   5.410   2.581
17663WAT     H253232   3.269   5.558   2.550
17664WAT      O53233   7.366   3.597   5.472
17664WAT     H153234   7.450   3.651   5.466
17664WAT     H253235   7.387   3.503   5.499
17665WAT      O53236   8.111   5.717   5.513
17665WAT     H153237   8.156   5.631   5.488
17665WAT     H253238   8.154   5.793   5.464
17666WAT      O53239   3.103   3.943   8.206
17666WAT     H153240   3.094   4.029   8.156
17666WAT     H253241   3.197   3.910   8.200
17667WAT      O53242   1.906   3.673   2.754
17667WAT     H153243   1.960   3.606   2.805
17667WAT     H253244   1.958   3.759   2.746
17668WAT      O53245   2.174   0.229   9.883
17668WAT     H153246   2.249   0.198   9.823
17668WAT     H253247   2.143   0.319   9.853
17669WAT      O53248   8.316   1.284   2.389
17669WAT     H153249   8.335   1.344   2.311
17669WAT     H253250   8.230   1.236   2.374
17670WAT      O53251   6.182   6.956   2.805
17670WAT     H153252   6.241   7.036   2.794
17670WAT     H253253   6.100   6.967   2.750
17671WAT      O53254   5.204   6.185   6.545
17671WAT     H153255   5.152   6.110   6.505
17671WAT     H253256   5.146   6.266   6.551
17672WAT      O53257   9.382   3.571   3.965
17672WAT     H153258   9.325   3.608   3.891
17672WAT     H253259   9.441   3.499   3.929
17673WAT      O53260   4.572   6.260   3.638
17673WAT     H153261   4.538   6.310   3.558
17673WAT     H253262   4.599   6.326   3.708
17674WAT      O53263   0.882   3.728   1.018
17674WAT     H153264   0.901   3.656   1.085
17674WAT     H253265   0.936   3.809   1.040
17675WAT      O53266   4.956   0.676   4.363
17675WAT     H153267   5.022   0.661   4.289
17675WAT     H253268   4.884   0.606   4.357
17676WAT      O53269   8.643   7.605   1.619
17676WAT     H153270   8.581   7.670   1.575
17676WAT     H253271   8.719   7.584   1.557
17677WAT      O53272   7.966   8.355   4.689
17677WAT     H153273   7.913   8.270   4.686
17677WAT     H253274   7.955   8.405   4.604
17678WAT      O53275   0.274   4.730   9.535
17678WAT     H153276   0.250   4.639   9.567
17678WAT     H253277   0.254   4.737   9.437
17679WAT      O53278   0.248   4.258   1.523
17679WAT     H153279   0.348   4.248   1.517
17679WAT     H253280   0.204   4.199   1.455
17680WAT      O53281   3.898   8.208   1.190
17680WAT     H153282   3.895   8.258   1.276
17680WAT     H253283   3.974   8.241   1.134
17681WAT      O53284   8.795   1.644   8.833
17681WAT     H153285   8.695   1.647   8.840
17681WAT     H253286   8.834   1.621   8.922
17682WAT      O53287   4.124   0.929   0.452
17682WAT     H153288   4.128   0.870   0.533
17682WAT     H253289   4.190   1.003   0.460
17683WAT      O53290   4.676   8.742   5.918
17683WAT     H153291   4.750   8.679   5.893
17683WAT     H253292   4.638   8.715   6.007
17684WAT      O53293   5.029   5.382   9.072
17684WAT     H153294   5.001   5.445   9.143
17684WAT     H253295   5.058   5.295   9.113
17685WAT      O53296   9.693   7.124   6.869
17685WAT     H153297   9.624   7.071   6.917
17685WAT     H253298   9.783   7.104   6.908
17686WAT      O53299   8.197   8.953   0.704
17686WAT     H153300   8.284   9.001   0.692
17686WAT     H253301   8.201   8.864   0.658
17687WAT      O53302   2.374   2.139   6.471
17687WAT     H153303   2.410   2.230   6.451
17687WAT     H253304   2.310   2.112   6.398
17688WAT      O53305   2.792   7.862   0.275
17688WAT     H153306   2.705   7.862   0.324
17688WAT     H253307   2.828   7.769   0.270
17689WAT      O53308   3.708   1.292   8.368
17689WAT     H153309   3.637   1.319   8.303
17689WAT     H253310   3.693   1.338   8.455
17690WAT      O53311   7.940   4.600   1.954
17690WAT     H153312   7.976   4.691   1.934
17690WAT     H253313   7.883   4.569   1.878
17691WAT      O53314   0.486   6.514   5.947
17691WAT     H153315   0.394   6.552   5.956
17691WAT     H253316   0.553   6.588   5.949
17692WAT      O53317   2.267   6.875   7.722
17692WAT     H153318   2.182   6.922   7.746
17692WAT     H253319   2.330   6.880   7.800
17693WAT      O53320   1.800   0.451   4.060
17693WAT     H153321   1.727   0.436   4.126
17693WAT     H253322   1.878   0.393   4.083
17694WAT      O53323   1.873   1.239   3.560
17694WAT     H153324   1.866   1.332   3.596
17694WAT     H253325   1.822   1.176   3.619
17695WAT      O53326   0.947   3.904   0.298
17695WAT     H153327   0.858   3.946   0.278
17695WAT     H253328   0.979   3.935   0.387
17696WAT      O53329   8.277   0.492   6.564
17696WAT     H153330   8.228   0.551   6.501
17696WAT     H253331   8.375   0.509   6.558
17697WAT      O53332   2.482   2.179   5.508
17697WAT     H153333   2.419   2.102   5.507
17697WAT     H253334   2.431   2.264   5.516
17698WAT      O53335   4.553   7.649   8.987
17698WAT     H153336   4.642   7.693   8.981
17698WAT     H253337   4.565   7.550   8.996
17699WAT      O53338   3.352   0.897   0.368
17699WAT     H153339   3.279   0.832   0.386
17699WAT     H253340   3.332   0.948   0.284
17700WAT      O53341   8.493   6.641   4.221
17700WAT     H153342   8.445   6.588   4.152
17700WAT     H253343   8.452   6.732   4.228
17701WAT      O53344   0.801   1.393   7.944
17701WAT     H153345   0.862   1.329   7.991
17701WAT     H253346   0.718   1.346   7.915
17702WAT      O53347   2.408   1.759   7.519
17702WAT     H153348   2.412   1.780   7.616
17702WAT     H253349   2.499   1.770   7.478
17703WAT      O53350   7.761   1.799   7.870
17703WAT     H153351   7.698   1.849   7.930
17703WAT     H253352   7.788   1.714   7.915
17704WAT      O53353   6.575   7.386   9.517
17704WAT     H153354   6.477   7.402   9.530
17704WAT     H253355   6.619   7.472   9.490
17705WAT      O53356   5.341   1.754   1.355
17705WAT     H153357   5.414   1.748   1.287
17705WAT     H253358   5.290   1.839   1.342
17706WAT      O53359   0.228   4.437   6.296
17706WAT     H153360   0.265   4.453   6.387
17706WAT     H253361   0.150   4.498   6.280
17707WAT      O53362   2.519   6.007   9.462
17707WAT     H153363   2.531   6.023   9.364
17707WAT     H253364   2.434   5.957   9.478
17708WAT      O53365   6.577   9.416   3.495
17708WAT     H153366   6.653   9.470   3.531
17708WAT     H253367   6.613   9.336   3.446
17709WAT      O53368   4.229   3.547   8.588
17709WAT     H153369   4.248   3.468   8.647
17709WAT     H253370   4.286   3.541   8.506
17710WAT      O53371   6.258   8.250   3.952
17710WAT     H153372   6.247   8.250   4.052
17710WAT     H253373   6.179   8.204   3.910
17711WAT      O53374   0.030   5.503   1.384
17711WAT     H153375   0.056   5.598   1.404
17711WAT     H253376   0.066   5.476   1.295
17712WAT      O53377   9.716   3.998   0.742
17712WAT     H153378   9.626   4.021   0.778
17712WAT     H253379   9.730   4.043   0.654
17713WAT      O53380   6.863   7.278   8.340
17713WAT     H153381   6.919   7.360   8.345
17713WAT     H253382   6.921   7.197   8.352
17714WAT      O53383   1.343   5.539   3.688
17714WAT     H153384   1.395   5.507   3.609
17714WAT     H253385   1.405   5.582   3.754
17715WAT      O53386   9.610   2.764   3.643
17715WAT     H153387   9.519   2.795   3.615
17715WAT     H253388   9.623   2.782   3.740
17716WAT      O53389   7.536   7.984   1.743
17716WAT     H153390   7.516   7.916   1.812
17716WAT     H253391   7.607   8.046   1.776
17717WAT      O53392   5.701   3.434   9.218
17717WAT     H153393   5.649   3.385   9.148
17717WAT     H253394   5.686   3.391   9.307
17718WAT      O53395   4.148   7.993   0.735
17718WAT     H153396   4.063   8.012   0.784
17718WAT     H253397   4.129   7.985   0.637
17719WAT      O53398   1.696   2.298   8.047
17719WAT     H153399   1.730   2.220   8.098
17719WAT     H253400   1.757   2.376   8.060
17720WAT      O53401   6.912   8.258   7.290
17720WAT     H153402   7.001   8.290   7.325
17720WAT     H253403   6.889   8.308   7.207
17721WAT      O53404   6.892   8.413   3.882
17721WAT     H153405   6.969   8.353   3.861
17721WAT     H253406   6.822   8.405   3.811
17722WAT      O53407   8.406   9.507   3.871
17722WAT     H153408   8.340   9.494   3.945
17722WAT     H253409   8.379   9.584   3.814
17723WAT      O53410   1.024   2.244   3.254
17723WAT     H153411   1.039   2.248   3.155
17723WAT     H253412   1.075   2.166   3.291
17724WAT      O53413   9.867   2.831   0.160
17724WAT     H153414   9.907   2.860   0.247
17724WAT     H253415   9.774   2.797   0.175
17725WAT      O53416   2.567   6.492   2.291
17725WAT     H153417   2.539   6.413   2.346
17725WAT     H253418   2.516   6.492   2.205
17726WAT      O53419   2.209   0.744   4.904
17726WAT     H153420   2.263   0.816   4.860
17726WAT     H253421   2.112   0.771   4.905
17727WAT      O53422   4.104   0.173   9.075
17727WAT     H153423   4.177   0.106   9.060
17727WAT     H253424   4.016   0.127   9.073
17728WAT      O53425   1.205   6.127   3.344
17728WAT     H153426   1.229   6.123   3.247
17728WAT     H253427   1.173   6.219   3.366
17729WAT      O53428   9.642   1.713   0.175
17729WAT     H153429   9.710   1.717   0.248
17729WAT     H253430   9.608   1.619   0.167
17730WAT      O53431   0.858   0.446   1.177
17730WAT     H153432   0.857   0.543   1.153
17730WAT     H253433   0.882   0.436   1.274
17731WAT      O53434   4.844   3.365   0.687
17731WAT     H153435   4.913   3.418   0.638
17731WAT     H253436   4.753   3.400   0.665
17732WAT      O53437   3.384   8.343   2.183
17732WAT     H153438   3.345   8.299   2.264
17732WAT     H253439   3.310   8.378   2.126
17733WAT      O53440   0.389   5.220   0.118
17733WAT     H153441   0.452   5.158   0.164
17733WAT     H253442   0.415   5.229   0.022
17734WAT      O53443   2.090   9.081   5.184
17734WAT     H153444   2.170   9.095   5.126
17734WAT     H253445   2.108   9.122   5.274
17735WAT      O53446   0.431   4.281   3.716
17735WAT     H153447   0.391   4.310   3.629
17735WAT     H253448   0.365   4.298   3.790
17736WAT      O53449   0.671   1.559   4.082
17736WAT     H153450   0.631   1.625   4.145
17736WAT     H253451   0.601   1.495   4.050
17737WAT      O53452   1.912   8.899   1.291
17737WAT     H153453   2.002   8.913   1.250
17737WAT     H253454   1.887   8.980   1.344
17738WAT      O53455   9.515   2.340   4.370
17738WAT     H153456   9.559   2.309   4.455
17738WAT     H253457   9.509   2.264   4.306
17739WAT      O53458   9.494   4.645   6.610
17739WAT     H153459   9.430   4.622   6.536
17739WAT     H253460   9.457   4.721   6.664
17740WAT      O53461   0.321   3.283   7.533
17740WAT     H153462   0.239   3.334   7.559
17740WAT     H253463   0.392   3.347   7.506
17741WAT      O53464   3.237   9.602   7.811
17741WAT     H153465   3.219   9.652   7.726
17741WAT     H253466   3.333   9.575   7.814
17742WAT      O53467   0.822   2.221   6.763
17742WAT     H153468   0.858   2.243   6.854
17742WAT     H253469   0.805   2.305   6.713
17743WAT      O53470   0.780   1.295   8.282
17743WAT     H153471   0.864   1.274   8.232
17743WAT     H253472   0.708   1.232   8.253
17744WAT      O53473   4.556   6.703   1.717
17744WAT     H153474   4.646   6.670   1.690
17744WAT     H253475   4.555   6.719   1.816
17745WAT      O53476   1.733   8.682   0.985
17745WAT     H153477   1.701   8.587   0.985
17745WAT     H253478   1.736   8.716   1.080
17746WAT      O53479   6.824   5.564   4.357
17746WAT     H153480   6.922   5.583   4.353
17746WAT     H253481   6.792   5.574   4.452
17747WAT      O53482   1.592   2.483   2.470
17747WAT     H153483   1.549   2.464   2.381
17747WAT     H253484   1.677   2.431   2.478
17748WAT      O53485   0.450   3.254   4.597
17748WAT     H153486   0.539   3.227   4.634
17748WAT     H253487   0.449   3.353   4.581
17749WAT      O53488   6.934   9.281   5.520
17749WAT     H153489   6.897   9.339   5.447
17749WAT     H253490   7.025   9.313   5.545
17750WAT      O53491   9.651   6.567   0.838
17750WAT     H153492   9.645   6.648   0.780
17750WAT     H253493   9.736   6.519   0.819
17751WAT      O53494   8.501   8.718   3.004
17751WAT     H153495   8.446   8.755   2.930
17751WAT     H253496   8.595   8.703   2.972
17752WAT      O53497   7.717   8.837   9.438
17752WAT     H153498   7.716   8.738   9.422
17752WAT     H253499   7.760   8.856   9.526
17753WAT      O53500   7.398   1.713   5.378
17753WAT     H153501   7.349   1.776   5.318
17753WAT     H253502   7.334   1.646   5.416
17754WAT      O53503   0.196   0.425   4.979
17754WAT     H153504   0.185   0.410   5.077
17754WAT     H253505   0.132   0.495   4.948
17755WAT      O53506   9.684   7.129   0.520
17755WAT     H153507   9.700   7.042   0.473
17755WAT     H253508   9.664   7.200   0.452
17756WAT      O53509   7.483   6.064   2.481
17756WAT     H153510   7.406   6.041   2.421
17756WAT     H253511   7.455   6.052   2.577
17757WAT      O53512   6.492   6.449   2.201
17757WAT     H153513   6.400   6.413   2.183
17757WAT     H253514   6.539   6.467   2.114
17758WAT      O53515   0.840   5.449   8.339
17758WAT     H153516   0.771   5.474   8.406
17758WAT     H253517   0.876   5.358   8.360
17759WAT      O53518   8.206   2.583   0.563
17759WAT     H153519   8.254   2.634   0.491
17759WAT     H253520   8.274   2.534   0.619
17760WAT      O53521   4.128   5.173   1.291
17760WAT     H153522   4.056   5.113   1.324
17760WAT     H253523   4.215   5.150   1.335
17761WAT      O53524   7.439   4.031   5.186
17761WAT     H153525   7.437   4.088   5.104
17761WAT     H253526   7.357   3.974   5.189
17762WAT      O53527   6.080   2.533   4.634
17762WAT     H153528   6.007   2.501   4.574
17762WAT     H253529   6.120   2.616   4.596
17763WAT      O53530   7.559   2.271   1.075
17763WAT     H153531   7.613   2.316   1.147
17763WAT     H253532   7.466   2.308   1.075
17764WAT      O53533   5.444   6.502   8.053
17764WAT     H153534   5.348   6.473   8.050
17764WAT     H253535   5.464   6.540   8.144
17765WAT      O53536   8.500   9.305   6.962
17765WAT     H153537   8.558   9.387   6.965
17765WAT     H253538   8.479   9.283   6.867
17766WAT      O53539   7.368   8.788   8.122
17766WAT     H153540   7.376   8.710   8.184
17766WAT     H253541   7.441   8.783   8.053
17767WAT      O53542   7.077   1.031   7.193
17767WAT     H153543   7.096   0.934   7.208
17767WAT     H253544   7.163   1.082   7.192
17768WAT      O53545   9.850   3.646   5.345
17768WAT     H153546   9.946   3.651   5.319
17768WAT     H253547   9.805   3.732   5.322
17769WAT      O53548   0.491   1.111   4.772
17769WAT     H153549   0.423   1.039   4.778
17769WAT     H253550   0.559   1.088   4.703
17770WAT      O53551   4.242   8.398   4.866
17770WAT     H153552   4.256   8.446   4.952
17770WAT     H253553   4.151   8.356   4.865
17771WAT      O53554   8.038   3.037   7.899
17771WAT     H153555   7.957   3.077   7.941
17771WAT     H253556   8.119   3.086   7.931
17772WAT      O53557   5.178   1.672   8.966
17772WAT     H153558   5.147   1.742   9.031
17772WAT     H253559   5.277   1.677   8.957
17773WAT      O53560   5.842   1.756   9.323
17773WAT     H153561   5.774   1.715   9.263
17773WAT     H253562   5.855   1.698   9.403
17774WAT      O53563   7.536   6.446   2.204
17774WAT     H153564   7.562   6.527   2.151
17774WAT     H253565   7.511   6.372   2.141
17775WAT      O53566   7.756   2.074   6.487
17775WAT     H153567   7.695   2.112   6.417
17775WAT     H253568   7.739   1.975   6.495
17776WAT      O53569   3.014   5.051   3.666
17776WAT     H153570   2.974   5.123   3.723
17776WAT     H253571   3.085   5.002   3.718
17777WAT      O53572   5.335   9.063   9.325
17777WAT     H153573   5.356   9.146   9.273
17777WAT     H253574   5.315   8.988   9.262
17778WAT      O53575   4.442   9.176   2.319
17778WAT     H153576   4.456   9.214   2.410
17778WAT     H253577   4.430   9.250   2.253
17779WAT      O53578   3.038   3.669   3.739
17779WAT     H153579   3.046   3.658   3.838
17779WAT     H253580   2.954   3.625   3.708
17780WAT      O53581   5.762   7.106   5.794
17780WAT     H153582   5.794   7.181   5.852
17780WAT     H253583   5.662   7.102   5.798
17781WAT      O53584   6.070   6.912   5.287
17781WAT     H153585   6.000   6.925   5.217
17781WAT     H253586   6.051   6.973   5.364
17782WAT      O53587   0.926   2.897   6.086
17782WAT     H153588   0.994   2.835   6.125
17782WAT     H253589   0.963   2.991   6.087
17783WAT      O53590   3.201   5.584   6.129
17783WAT     H153591   3.277   5.563   6.068
17783WAT     H253592   3.124   5.524   6.109
17784WAT      O53593   2.650   5.481   5.428
17784WAT     H153594   2.678   5.528   5.344
17784WAT     H253595   2.671   5.537   5.507
17785WAT      O53596   9.706   0.377   2.908
17785WAT     H153597   9.648   0.382   2.988
17785WAT     H253598   9.802   0.369   2.937
17786WAT      O53599   0.669   6.800   1.998
17786WAT     H153600   0.682   6.878   2.059
17786WAT     H253601   0.651   6.717   2.051
17787WAT      O53602   0.340   5.593   7.880
17787WAT     H153603   0.295   5.515   7.924
17787WAT     H253604   0.426   5.612   7.928
17788WAT      O53605   9.159   1.993   6.730
17788WAT     H153606   9.118   2.080   6.756
17788WAT     H253607   9.258   2.000   6.734
17789WAT      O53608   7.014   1.818   3.494
17789WAT     H153609   6.999   1.865   3.581
17789WAT     H253610   6.929   1.815   3.442
17790WAT      O53611   9.111   7.779   2.174
17790WAT     H153612   9.177   7.716   2.135
17790WAT     H253613   9.155   7.867   2.193
17791WAT      O53614   2.246   5.234   8.858
17791WAT     H153615   2.219   5.302   8.926
17791WAT     H253616   2.199   5.251   8.772
17792WAT      O53617   6.601   1.459   1.689
17792WAT     H153618   6.690   1.476   1.646
17792WAT     H253619   6.613   1.448   1.787
17793WAT      O53620   1.998   8.913   3.708
17793WAT     H153621   2.056   8.944   3.782
17793WAT     H253622   2.036   8.829   3.669
17794WAT      O53623   7.780   2.875   4.985
17794WAT     H153624   7.715   2.914   4.920
17794WAT     H253625   7.769   2.919   5.075
17795WAT      O53626   7.322   6.207   1.769
17795WAT     H153627   7.272   6.154   1.701
17795WAT     H253628   7.294   6.303   1.764
17796WAT      O53629   3.806   0.388   1.161
17796WAT     H153630   3.767   0.335   1.085
17796WAT     H253631   3.736   0.450   1.197
17797WAT      O53632   9.129   3.473   1.827
17797WAT     H153633   9.152   3.560   1.783
17797WAT     H253634   9.030   3.469   1.843
17798WAT      O53635   9.407   9.177   8.846
17798WAT     H153636   9.502   9.194   8.873
17798WAT     H253637   9.350   9.168   8.927
17799WAT      O53638   8.091   3.868   2.687
17799WAT     H153639   8.012   3.868   2.626
17799WAT     H253640   8.102   3.778   2.729
17800WAT      O53641   7.322   2.613   3.661
17800WAT     H153642   7.256   2.538   3.668
17800WAT     H253643   7.357   2.618   3.567
17801WAT      O53644   2.743   3.183   2.096
17801WAT     H153645   2.821   3.239   2.070
17801WAT     H253646   2.765   3.132   2.180
17802WAT      O53647   3.835   9.693   1.080
17802WAT     H153648   3.838   9.775   1.137
17802WAT     H253649   3.774   9.626   1.121
17803WAT      O53650   9.433   7.907   7.725
17803WAT     H153651   9.502   7.976   7.747
17803WAT     H253652   9.462   7.856   7.644
17804WAT      O53653   8.448   1.666   7.458
17804WAT     H153654   8.497   1.739   7.410
17804WAT     H253655   8.503   1.635   7.536
17805WAT      O53656   0.523   8.700   9.633
17805WAT     H153657   0.483   8.791   9.642
17805WAT     H253658   0.484   8.639   9.702
17806WAT      O53659   3.075   0.965   6.591
17806WAT     H153660   3.076   1.026   6.670
17806WAT     H253661   3.123   0.880   6.614
17807WAT      O53662   2.684   2.949   1.460
17807WAT     H153663   2.662   2.851   1.464
17807WAT     H253664   2.655   2.993   1.546
17808WAT      O53665   9.371   0.926   8.635
17808WAT     H153666   9.362   0.884   8.545
17808WAT     H253667   9.401   1.021   8.625
17809WAT      O53668   2.584   6.274   6.602
17809WAT     H153669   2.595   6.373   6.594
17809WAT     H253670   2.671   6.233   6.627
17810WAT      O53671   4.050   9.095   3.013
17810WAT     H153672   4.000   9.008   3.013
17810WAT     H253673   4.115   9.097   2.937
17811WAT      O53674   5.339   8.208   3.149
17811WAT     H153675   5.361   8.184   3.055
17811WAT     H253676   5.422   8.237   3.197
17812WAT      O53677   0.693   6.087   4.185
17812WAT     H153678   0.761   6.026   4.145
17812WAT     H253679   0.668   6.158   4.119
17813WAT      O53680   6.347   3.718   0.542
17813WAT     H153681   6.263   3.740   0.493
17813WAT     H253682   6.324   3.679   0.631
17814WAT      O53683   9.672   3.034   2.132
17814WAT     H153684   9.733   2.970   2.085
17814WAT     H253685   9.582   3.032   2.088
17815WAT      O53686   5.968   5.604   6.831
17815WAT     H153687   6.015   5.589   6.744
17815WAT     H253688   5.886   5.658   6.816
17816WAT      O53689   2.018   0.176   5.294
17816WAT     H153690   1.964   0.184   5.377
17816WAT     H253691   2.087   0.249   5.291
17817WAT      O53692   8.232   0.420   0.932
17817WAT     H153693   8.141   0.393   0.902
17817WAT     H253694   8.290   0.437   0.852
17818WAT      O53695   3.129   3.697   9.078
17818WAT     H153696   3.125   3.765   9.005
17818WAT     H253697   3.202   3.631   9.059
17819WAT      O53698   0.792   3.287   8.943
17819WAT     H153699   0.804   3.302   8.844
17819WAT     H253700   0.880   3.263   8.983
17820WAT      O53701   4.138   5.323   8.585
17820WAT     H153702   4.096   5.241   8.624
17820WAT     H253703   4.192   5.297   8.504
17821WAT      O53704   2.214   0.884   1.023
17821WAT     H153705   2.296   0.832   1.003
17821WAT     H253706   2.145   0.867   0.952
17822WAT      O53707   4.339   6.337   4.510
17822WAT     H153708   4.413   6.372   4.567
17822WAT     H253709   4.369   6.333   4.415
17823WAT      O53710   2.678   0.369   0.222
17823WAT     H153711   2.693   0.466   0.202
17823WAT     H253712   2.652   0.358   0.318
17824WAT      O53713   7.174   1.073   8.386
17824WAT     H153714   7.168   1.099   8.289
17824WAT     H253715   7.220   0.985   8.394
17825WAT      O53716   2.060   3.752   3.960
17825WAT     H153717   2.126   3.825   3.978
17825WAT     H253718   2.108   3.670   3.930
17826WAT      O53719   4.148   9.229   6.998
17826WAT     H153720   4.178   9.316   6.958
17826WAT     H253721   4.116   9.168   6.926
17827WAT      O53722   1.052   1.580   0.974
17827WAT     H153723   0.960   1.574   0.935
17827WAT     H253724   1.119   1.592   0.901
17828WAT      O53725   8.736   2.716   6.010
17828WAT     H153726   8.715   2.751   6.101
17828WAT     H253727   8.825   2.750   5.980
17829WAT      O53728   0.908   2.314   0.140
17829WAT     H153729   1.001   2.305   0.177
17829WAT     H253730   0.905   2.276   0.048
17830WAT      O53731   4.699   3.550   0.434
17830WAT     H153732   4.775   3.615   0.440
17830WAT     H253733   4.612   3.600   0.430
17831WAT      O53734   2.015   5.746   4.886
17831WAT     H153735   1.971   5.811   4.824
17831WAT     H253736   1.961   5.662   4.890
17832WAT      O53737   0.729   7.600   2.729
17832WAT     H153738   0.736   7.655   2.813
17832WAT     H253739   0.756   7.506   2.749
17833WAT      O53740   0.256   7.838   5.468
17833WAT     H153741   0.175   7.790   5.433
17833WAT     H253742   0.243   7.936   5.455
17834WAT      O53743   9.160   1.428   3.787
17834WAT     H153744   9.236   1.374   3.751
17834WAT     H253745   9.117   1.378   3.863
17835WAT      O53746   3.415   2.606   9.122
17835WAT     H153747   3.387   2.553   9.202
17835WAT     H253748   3.513   2.594   9.106
17836WAT      O53749   8.951   4.384   6.111
17836WAT     H153750   8.904   4.464   6.148
17836WAT     H253751   8.981   4.403   6.018
17837WAT      O53752   1.045   9.614   3.769
17837WAT     H153753   0.947   9.633   3.759
17837WAT     H253754   1.092   9.634   3.683
17838WAT      O53755   5.125   7.945   5.369
17838WAT     H153756   5.100   7.866   5.425
17838WAT     H253757   5.091   7.933   5.276
17839WAT      O53758   2.203   6.441   3.963
17839WAT     H153759   2.300   6.459   3.947
17839WAT     H253760   2.179   6.471   4.055
17840WAT      O53761   1.857   0.844   9.705
17840WAT     H153762   1.823   0.806   9.619
17840WAT     H253763   1.906   0.774   9.756
17841WAT      O53764   1.789   3.142   5.653
17841WAT     H153765   1.858   3.092   5.601
17841WAT     H253766   1.699   3.102   5.637
17842WAT      O53767   3.158   1.162   4.854
17842WAT     H153768   3.245   1.117   4.836
17842WAT     H253769   3.124   1.133   4.943
17843WAT      O53770   2.501   7.230   3.879
17843WAT     H153771   2.538   7.294   3.812
17843WAT     H253772   2.544   7.140   3.867
17844WAT      O53773   8.091   0.718   0.684
17844WAT     H153774   8.095   0.794   0.749
17844WAT     H253775   8.008   0.727   0.629
17845WAT      O53776   3.358   5.709   0.161
17845WAT     H153777   3.296   5.682   0.235
17845WAT     H253778   3.426   5.774   0.196
17846WAT      O53779   9.664   5.818   8.749
17846WAT     H153780   9.626   5.910   8.740
17846WAT     H253781   9.750   5.822   8.801
17847WAT      O53782   5.112   5.618   0.911
17847WAT     H153783   5.177   5.543   0.908
17847WAT     H253784   5.020   5.583   0.928
17848WAT      O53785   2.849   4.108   5.268
17848WAT     H153786   2.909   4.186   5.249
17848WAT     H253787   2.754   4.134   5.249
17849WAT      O53788   8.877   0.098   5.882
17849WAT     H153789   8.910   0.070   5.792
17849WAT     H253790   8.778   0.113   5.879
17850WAT      O53791   5.975   7.948   7.385
17850WAT     H153792   6.050   7.892   7.349
17850WAT     H253793   5.981   7.951   7.485
17851WAT      O53794   7.785   9.712   7.943
17851WAT     H153795   7.819   9.656   7.867
17851WAT     H253796   7.814   9.671   8.030
17852WAT      O53797   8.677   3.426   7.711
17852WAT     H153798   8.694   3.328   7.714
17852WAT     H253799   8.733   3.472   7.780
17853WAT      O53800   9.015   9.251   4.256
17853WAT     H153801   8.926   9.210   4.275
17853WAT     H253802   9.060   9.201   4.183
17854WAT      O53803   3.902   2.633   1.118
17854WAT     H153804   3.843   2.687   1.178
17854WAT     H253805   3.866   2.635   1.025
17855WAT      O53806   3.554   2.958   3.326
17855WAT     H153807   3.566   2.895   3.249
17855WAT     H253808   3.477   3.019   3.307
17856WAT      O53809   1.766   9.143   8.241
17856WAT     H153810   1.782   9.220   8.303
17856WAT     H253811   1.828   9.068   8.264
17857WAT      O53812   4.062   2.522   7.394
17857WAT     H153813   3.993   2.575   7.443
17857WAT     H253814   4.049   2.425   7.414
17858WAT      O53815   2.473   6.993   6.679
17858WAT     H153816   2.567   6.962   6.690
17858WAT     H253817   2.419   6.922   6.633
17859WAT      O53818   0.217   6.944   0.799
17859WAT     H153819   0.264   6.899   0.723
17859WAT     H253820   0.165   6.876   0.851
17860WAT      O53821   0.248   4.506   4.689
17860WAT     H153822   0.218   4.593   4.650
17860WAT     H253823   0.347   4.501   4.686
17861WAT      O53824   0.642   7.033   8.979
17861WAT     H153825   0.631   7.020   8.880
17861WAT     H253826   0.643   7.130   9.000
17862WAT      O53827   1.852   2.396   0.131
17862WAT     H153828   1.798   2.334   0.074
17862WAT     H253829   1.792   2.466   0.170
17863WAT      O53830   9.460   8.615   8.112
17863WAT     H153831   9.461   8.656   8.203
17863WAT     H253832   9.398   8.666   8.053
17864WAT      O53833   4.745   9.808   8.917
17864WAT     H153834   4.785   9.716   8.910
17864WAT     H253835   4.800   9.864   8.978
17865WAT      O53836   2.496   7.952   9.273
17865WAT     H153837   2.507   7.876   9.337
17865WAT     H253838   2.445   7.921   9.193
17866WAT      O53839   7.414   0.312   7.020
17866WAT     H153840   7.372   0.327   7.110
17866WAT     H253841   7.509   0.283   7.032
17867WAT      O53842   1.597   1.669   2.889
17867WAT     H153843   1.652   1.722   2.954
17867WAT     H253844   1.601   1.714   2.799
17868WAT      O53845   9.458   6.195   8.330
17868WAT     H153846   9.540   6.161   8.283
17868WAT     H253847   9.425   6.125   8.393
17869WAT      O53848   2.339   8.192   0.435
17869WAT     H153849   2.348   8.253   0.356
17869WAT     H253850   2.298   8.106   0.406
17870WAT      O53851   4.681   1.459   3.873
17870WAT     H153852   4.709   1.444   3.968
17870WAT     H253853   4.741   1.527   3.831
17871WAT      O53854   8.131   2.680   4.410
17871WAT     H153855   8.144   2.662   4.312
17871WAT     H253856   8.053   2.741   4.423
17872WAT      O53857   1.140   8.017   3.685
17872WAT     H153858   1.239   8.012   3.667
17872WAT     H253859   1.124   8.016   3.783
17873WAT      O53860   7.532   0.588   0.048
17873WAT     H153861   7.447   0.565   0.096
17873WAT     H253862   7.608   0.541   0.092
17874WAT      O53863   5.087   7.677   5.407
17874WAT     H153864   5.077   7.709   5.313
17874WAT     H253865   4.997   7.659   5.446
17875WAT      O53866   2.715   1.785   8.007
17875WAT     H153867   2.810   1.805   7.983
17875WAT     H253868   2.687   1.699   7.964
17876WAT      O53869   4.689   3.110   1.394
17876WAT     H153870   4.667   3.037   1.329
17876WAT     H253871   4.667   3.198   1.352
17877WAT      O53872   2.387   0.096   9.181
17877WAT     H153873   2.354   0.177   9.229
17877WAT     H253874   2.485   0.103   9.168
17878WAT      O53875   2.378   8.364   5.513
17878WAT     H153876   2.309   8.410   5.569
17878WAT     H253877   2.351   8.269   5.498
17879WAT      O53878   8.769   3.203   4.650
17879WAT     H153879   8.862   3.204   4.613
17879WAT     H253880   8.719   3.124   4.614
17880WAT      O53881   3.901   2.199   0.781
17880WAT     H153882   3.873   2.190   0.685
17880WAT     H253883   3.827   2.165   0.840
17881WAT      O53884   5.946   7.564   0.784
17881WAT     H153885   6.026   7.609   0.823
17881WAT     H253886   5.867   7.580   0.843
17882WAT      O53887   0.049   0.974   5.520
17882WAT     H153888   0.079   0.883   5.546
17882WAT     H253889   0.075   0.992   5.425
17883WAT      O53890   2.187   6.092   9.354
17883WAT     H153891   2.223   6.001   9.334
17883WAT     H253892   2.244   6.161   9.310
17884WAT      O53893   3.595   4.646   4.642
17884WAT     H153894   3.580   4.594   4.558
17884WAT     H253895   3.671   4.605   4.694
17885WAT      O53896   5.392   5.426   1.458
17885WAT     H153897   5.351   5.515   1.476
17885WAT     H253898   5.326   5.369   1.407
17886WAT      O53899   7.307   0.600   1.943
17886WAT     H153900   7.262   0.511   1.953
17886WAT     H253901   7.355   0.604   1.856
17887WAT      O53902   9.719   8.909   2.820
17887WAT     H153903   9.783   8.851   2.770
17887WAT     H253904   9.761   8.939   2.906
17888WAT      O53905   1.502   9.169   4.512
17888WAT     H153906   1.563   9.163   4.591
17888WAT     H253907   1.412   9.135   4.538
17889WAT      O53908   5.159   4.449   2.825
17889WAT     H153909   5.086   4.465   2.891
17889WAT     H253910   5.222   4.380   2.862
17890WAT      O53911   8.538   0.882   4.220
17890WAT     H153912   8.627   0.894   4.265
17890WAT     H253913   8.479   0.826   4.277
17891WAT      O53914   4.510   6.741   0.230
17891WAT     H153915   4.413   6.723   0.213
17891WAT     H253916   4.519   6.804   0.307
17892WAT      O53917   2.132   1.777   9.077
17892WAT     H153918   2.063   1.829   9.027
17892WAT     H253919   2.087   1.708   9.133
17893WAT      O53920   0.438   2.576   1.092
17893WAT     H153921   0.367   2.645   1.108
17893WAT     H253922   0.506   2.581   1.164
17894WAT      O53923   9.229   8.016   7.568
17894WAT     H153924   9.271   7.943   7.621
17894WAT     H253925   9.240   7.997   7.470
17895WAT      O53926   7.117   6.988   7.503
17895WAT     H153927   7.020   6.998   7.482
17895WAT     H253928   7.165   6.955   7.421
17896WAT      O53929   7.993   1.191   8.608
17896WAT     H153930   8.072   1.187   8.547
17896WAT     H253931   7.919   1.134   8.572
17897WAT      O53932   5.184   1.722   0.340
17897WAT     H153933   5.096   1.760   0.311
17897WAT     H253934   5.182   1.622   0.330
17898WAT      O53935   5.438   3.153   6.671
17898WAT     H153936   5.446   3.113   6.580
17898WAT     H253937   5.401   3.246   6.663
17899WAT      O53938   1.282   8.851   2.607
17899WAT     H153939   1.201   8.828   2.660
17899WAT     H253940   1.257   8.910   2.530
17900WAT      O53941   7.102   6.064   8.975
17900WAT     H153942   7.083   5.967   8.986
17900WAT     H253943   7.185   6.075   8.921
17901WAT      O53944   2.571   7.471   8.237
17901WAT     H153945   2.569   7.567   8.265
17901WAT     H253946   2.482   7.429   8.256
17902WAT      O53947   4.691   3.387   5.738
17902WAT     H153948   4.672   3.300   5.693
17902WAT     H253949   4.736   3.370   5.826
17903WAT      O53950   9.101   2.852   5.576
17903WAT     H153951   9.189   2.891   5.600
17903WAT     H253952   9.046   2.840   5.659
17904WAT      O53953   0.019   5.500   8.068
17904WAT     H153954  -0.009   5.581   8.017
17904WAT     H253955   0.108   5.469   8.036
17905WAT      O53956   6.855   7.908   4.975
17905WAT     H153957   6.807   7.982   4.927
17905WAT     H253958   6.802   7.823   4.967
17906WAT      O53959   8.382   9.735   7.486
17906WAT     H153960   8.282   9.737   7.487
17906WAT     H253961   8.414   9.649   7.527
17907WAT      O53962   6.412   8.032   2.611
17907WAT     H153963   6.312   8.044   2.606
17907WAT     H253964   6.457   8.104   2.559
17908WAT      O53965   2.145   3.325   5.099
17908WAT     H153966   2.084   3.379   5.157
17908WAT     H253967   2.137   3.356   5.004
17909WAT      O53968   6.736   4.752   2.808
17909WAT     H153969   6.808   4.818   2.785
17909WAT     H253970   6.734   4.679   2.739
17910WAT      O53971   4.936   4.346   1.374
17910WAT     H153972   5.025   4.384   1.348
17910WAT     H253973   4.925   4.351   1.473
17911WAT      O53974   1.284   2.936   7.964
17911WAT     H153975   1.320   3.011   7.908
17911WAT     H253976   1.300   2.849   7.918
17912WAT      O53977   6.233   7.401   5.735
17912WAT     H153978   6.304   7.337   5.703
17912WAT     H253979   6.247   7.489   5.691
17913WAT      O53980   8.510   2.701   2.298
17913WAT     H153981   8.478   2.622   2.349
17913WAT     H253982   8.433   2.742   2.249
17914WAT      O53983   0.646   6.019   7.144
17914WAT     H153984   0.680   5.981   7.229
17914WAT     H253985   0.565   5.968   7.114
17915WAT      O53986   7.630   1.508   6.991
17915WAT     H153987   7.552   1.472   6.940
17915WAT     H253988   7.661   1.440   7.058
17916WAT      O53989   4.501   0.813   4.914
17916WAT     H153990   4.476   0.904   4.882
17916WAT     H253991   4.575   0.819   4.981
17917WAT      O53992   1.904   3.371   2.645
17917WAT     H153993   1.926   3.274   2.644
17917WAT     H253994   1.988   3.424   2.635
17918WAT      O53995   2.681   7.152   4.587
17918WAT     H153996   2.772   7.183   4.616
17918WAT     H253997   2.690   7.070   4.531
17919WAT      O53998   8.503   8.148   0.178
17919WAT     H153999   8.566   8.126   0.103
17919WAT     H254000   8.440   8.219   0.149
17920WAT      O54001   9.318   7.649   3.964
17920WAT     H154002   9.340   7.683   4.055
17920WAT     H254003   9.353   7.712   3.895
17921WAT      O54004   4.039   2.682   6.510
17921WAT     H154005   4.083   2.657   6.597
17921WAT     H254006   4.022   2.780   6.508
17922WAT      O54007   8.699   5.403   4.359
17922WAT     H154008   8.662   5.392   4.451
17922WAT     H254009   8.659   5.334   4.298
17923WAT      O54010   7.176   1.351   3.261
17923WAT     H154011   7.159   1.337   3.359
17923WAT     H254012   7.089   1.361   3.213
17924WAT      O54013   7.965   5.233   7.697
17924WAT     H154014   7.948   5.307   7.632
17924WAT     H254015   8.064   5.217   7.704
17925WAT      O54016   2.646   0.134   0.662
17925WAT     H154017   2.578   0.070   0.698
17925WAT     H254018   2.681   0.192   0.736
17926WAT      O54019   5.921   8.492   9.037
17926WAT     H154020   6.005   8.436   9.041
17926WAT     H254021   5.945   8.588   9.047
17927WAT      O54022   0.406   1.919   1.690
17927WAT     H154023   0.391   1.895   1.786
17927WAT     H254024   0.319   1.914   1.640
17928WAT      O54025   8.845   3.132   9.624
17928WAT     H154026   8.770   3.169   9.679
17928WAT     H254027   8.909   3.206   9.601
17929WAT      O54028   3.101   3.557   8.676
17929WAT     H154029   3.045   3.517   8.749
17929WAT     H254030   3.042   3.605   8.611
17930WAT      O54031   8.648   6.134   0.374
17930WAT     H154032   8.662   6.159   0.470
17930WAT     H254033   8.558   6.090   0.364
17931WAT      O54034   7.518   6.101   4.278
17931WAT     H154035   7.427   6.072   4.249
17931WAT     H254036   7.566   6.143   4.201
17932WAT      O54037   4.870   0.476   7.213
17932WAT     H154038   4.891   0.572   7.192
17932WAT     H254039   4.835   0.469   7.306
17933WAT      O54040   7.108   6.824   4.629
17933WAT     H154041   7.102   6.807   4.728
17933WAT     H254042   7.043   6.765   4.581
17934WAT      O54043   9.546   2.888   0.733
17934WAT     H154044   9.470   2.896   0.669
17934WAT     H254045   9.632   2.879   0.681
17935WAT      O54046   3.614   6.440   7.598
17935WAT     H154047   3.620   6.375   7.522
17935WAT     H254048   3.571   6.395   7.677
17936WAT      O54049   9.804   1.697   0.389
17936WAT     H154050   9.833   1.640   0.465
17936WAT     H254051   9.846   1.788   0.397
17937WAT      O54052   2.857   5.229   7.384
17937WAT     H154053   2.955   5.222   7.405
17937WAT     H254054   2.804   5.220   7.468
17938WAT      O54055   9.031   0.293   4.609
17938WAT     H154056   9.067   0.201   4.625
17938WAT     H254057   8.953   0.288   4.546
17939WAT      O54058   8.278   6.934   2.092
17939WAT     H154059   8.204   6.986   2.050
17939WAT     H254060   8.263   6.926   2.190
17940WAT      O54061   1.237   2.397   3.533
17940WAT     H154062   1.267   2.414   3.439
17940WAT     H254063   1.155   2.339   3.533
17941WAT      O54064   1.766   2.685   2.524
17941WAT     H154065   1.736   2.631   2.445
17941WAT     H254066   1.866   2.682   2.529
17942WAT      O54067   7.858   5.000   3.875
17942WAT     H154068   7.838   4.903   3.857
17942WAT     H254069   7.798   5.057   3.817
17943WAT      O54070   3.927   6.925   9.287
17943WAT     H154071   3.862   6.851   9.270
17943WAT     H254072   3.932   6.984   9.206
17944WAT      O54073   4.244   9.689   3.281
17944WAT     H154074   4.147   9.712   3.279
17944WAT     H254075   4.294   9.749   3.218
17945WAT      O54076   8.442   8.198   5.112
17945WAT     H154077   8.500   8.203   5.031
17945WAT     H254078   8.351   8.233   5.090
17946WAT      O54079   0.442   8.071   5.155
17946WAT     H154080   0.435   8.116   5.244
17946WAT     H254081   0.522   8.104   5.106
17947WAT      O54082   4.610   5.703   9.712
17947WAT     H154083   4.701   5.689   9.753
17947WAT     H254084   4.619   5.764   9.634
17948WAT      O54085   0.864   0.740   8.169
17948WAT     H154086   0.779   0.740   8.115
17948WAT     H254087   0.853   0.684   8.250
17949WAT      O54088   5.380   3.159   9.116
17949WAT     H154089   5.437   3.231   9.076
17949WAT     H254090   5.342   3.102   9.043
17950WAT      O54091   5.559   2.639   7.414
17950WAT     H154092   5.470   2.595   7.427
17950WAT     H254093   5.610   2.638   7.499
17951WAT      O54094   0.966   5.092   5.906
17951WAT     H154095   0.985   5.000   5.872
17951WAT     H254096   1.046   5.128   5.953
17952WAT      O54097   6.582   2.717   1.698
17952WAT     H154098   6.572   2.620   1.674
17952WAT     H254099   6.569   2.773   1.616
17953WAT      O54100   2.713   5.428   8.779
17953WAT     H154101   2.799   5.437   8.830
17953WAT     H254102   2.730   5.448   8.682
17954WAT      O54103   2.804   2.262   0.334
17954WAT     H154104   2.739   2.318   0.386
17954WAT     H254105   2.884   2.317   0.310
17955WAT      O54106   7.661   6.138   7.757
17955WAT     H154107   7.594   6.102   7.691
17955WAT     H254108   7.627   6.225   7.794
17956WAT      O54109   4.044   0.025   5.386
17956WAT     H154110   4.043  -0.074   5.374
17956WAT     H254111   4.126   0.063   5.342
17957WAT      O54112   9.793   0.939   6.047
17957WAT     H154113   9.709   0.986   6.073
17957WAT     H254114   9.820   0.876   6.119
17958WAT      O54115   3.351   4.183   9.854
17958WAT     H154116   3.274   4.120   9.860
17958WAT     H254117   3.433   4.133   9.826
17959WAT      O54118   2.693   8.630   6.267
17959WAT     H154119   2.677   8.693   6.191
17959WAT     H254120   2.732   8.545   6.232
17960WAT      O54121   7.623   5.681   5.610
17960WAT     H154122   7.719   5.655   5.623
17960WAT     H254123   7.598   5.666   5.515
17961WAT      O54124   6.406   5.584   4.917
17961WAT     H154125   6.344   5.516   4.877
17961WAT     H254126   6.351   5.658   4.957
17962WAT      O54127   4.265   4.959   9.744
17962WAT     H154128   4.214   4.929   9.663
17962WAT     H254129   4.360   4.975   9.718
17963WAT      O54130   1.148   9.761   6.123
17963WAT     H154131   1.117   9.848   6.086
17963WAT     H254132   1.172   9.699   6.047
17964WAT      O54133   3.209   3.817   6.683
17964WAT     H154134   3.258   3.900   6.709
17964WAT     H254135   3.114   3.841   6.661
17965WAT      O54136   8.578   2.030   0.082
17965WAT     H154137   8.594   2.125   0.059
17965WAT     H254138   8.664   1.987   0.108
17966WAT      O54139   9.293   6.129   7.529
17966WAT     H154140   9.393   6.120   7.520
17966WAT     H254141   9.266   6.223   7.508
17967WAT      O54142   6.374   1.831   0.135
17967WAT     H154143   6.326   1.755   0.091
17967WAT     H254144   6.308   1.886   0.186
17968WAT      O54145   7.194   1.598   6.935
17968WAT     H154146   7.197   1.673   7.001
17968WAT     H254147   7.126   1.530   6.964
17969WAT      O54148   5.606   9.281   3.074
17969WAT     H154149   5.545   9.245   3.003
17969WAT     H254150   5.700   9.252   3.055
17970WAT      O54151   9.193   3.305   3.755
17970WAT     H154152   9.280   3.314   3.705
17970WAT     H254153   9.117   3.311   3.691
17971WAT      O54154   9.197   4.796   6.645
17971WAT     H154155   9.281   4.804   6.700
17971WAT     H254156   9.222   4.778   6.549
17972WAT      O54157   4.564   3.971   9.069
17972WAT     H154158   4.577   4.070   9.058
17972WAT     H254159   4.500   3.939   8.999
17973WAT      O54160   3.347   6.149   5.693
17973WAT     H154161   3.338   6.051   5.709
17973WAT     H254162   3.357   6.167   5.595
17974WAT      O54163   9.401   0.747   8.822
17974WAT     H154164   9.403   0.808   8.743
17974WAT     H254165   9.494   0.724   8.850
17975WAT      O54166   0.776   6.398   5.915
17975WAT     H154167   0.679   6.377   5.905
17975WAT     H254168   0.794   6.432   6.007
17976WAT      O54169   7.048   5.130   8.566
17976WAT     H154170   6.952   5.126   8.593
17976WAT     H254171   7.096   5.049   8.601
17977WAT      O54172   0.847   8.594   2.239
17977WAT     H154173   0.925   8.611   2.178
17977WAT     H254174   0.762   8.601   2.187
17978WAT      O54175   3.817   3.336   9.012
17978WAT     H154176   3.894   3.274   9.024
17978WAT     H254177   3.822   3.409   9.080
17979WAT      O54178   5.971   6.652   2.385
17979WAT     H154179   5.892   6.632   2.443
17979WAT     H254180   5.952   6.622   2.291
17980WAT      O54181   4.436   1.972   6.961
17980WAT     H154182   4.522   1.963   6.911
17980WAT     H254183   4.394   1.882   6.972
17981WAT      O54184   6.509   1.117   4.302
17981WAT     H154185   6.422   1.120   4.252
17981WAT     H254186   6.491   1.122   4.401
17982WAT      O54187   1.131   2.684   6.190
17982WAT     H154188   1.153   2.586   6.186
17982WAT     H254189   1.208   2.734   6.229
17983WAT      O54190   5.588   4.830   8.267
17983WAT     H154191   5.638   4.744   8.260
17983WAT     H254192   5.635   4.900   8.214
17984WAT      O54193   6.914   2.250   8.806
17984WAT     H154194   6.928   2.241   8.707
17984WAT     H254195   6.908   2.159   8.847
17985WAT      O54196   9.523   3.882   7.384
17985WAT     H154197   9.541   3.941   7.306
17985WAT     H254198   9.425   3.860   7.388
17986WAT      O54199   1.934   4.156   2.027
17986WAT     H154200   1.881   4.072   2.036
17986WAT     H254201   1.999   4.147   1.952
17987WAT      O54202   2.319   3.178   0.435
17987WAT     H154203   2.419   3.183   0.431
17987WAT     H254204   2.281   3.212   0.349
17988WAT      O54205   4.942   2.290   8.086
17988WAT     H154206   4.941   2.190   8.079
17988WAT     H254207   4.937   2.316   8.183
17989WAT      O54208   9.148   9.476   6.989
17989WAT     H154209   9.236   9.485   6.943
17989WAT     H254210   9.075   9.474   6.920
17990WAT      O54211   9.493   1.364   5.918
17990WAT     H154212   9.552   1.413   5.982
17990WAT     H254213   9.549   1.320   5.848
17991WAT      O54214   8.466   9.133   4.860
17991WAT     H154215   8.380   9.094   4.894
17991WAT     H254216   8.462   9.233   4.867
17992WAT      O54217   1.270   6.218   4.697
17992WAT     H154218   1.306   6.312   4.692
17992WAT     H254219   1.301   6.174   4.781
17993WAT      O54220   8.869   6.527   8.528
17993WAT     H154221   8.829   6.453   8.475
17993WAT     H254222   8.969   6.526   8.518
17994WAT      O54223   2.501   1.338   1.123
17994WAT     H154224   2.419   1.352   1.068
17994WAT     H254225   2.555   1.263   1.084
17995WAT      O54226   6.970   7.115   0.035
17995WAT     H154227   6.979   7.076   0.127
17995WAT     H254228   6.882   7.161   0.026
17996WAT      O54229   4.717   0.077   5.718
17996WAT     H154230   4.691  -0.008   5.765
17996WAT     H254231   4.812   0.070   5.687
17997WAT      O54232   7.166   2.417   5.161
17997WAT     H154233   7.247   2.445   5.212
17997WAT     H254234   7.116   2.348   5.213
17998WAT      O54235   4.322   0.441   6.098
17998WAT     H154236   4.263   0.516   6.068
17998WAT     H254237   4.305   0.360   6.042
17999WAT      O54238   7.746   3.613   8.540
17999WAT     H154239   7.788   3.686   8.485
17999WAT     H254240   7.806   3.533   8.540
18000WAT      O54241   9.154   4.134   8.913
18000WAT     H154242   9.094   4.079   8.971
18000WAT     H254243   9.244   4.141   8.956
18001WAT      O54244   5.823   0.437   4.631
18001WAT     H154245   5.861   0.486   4.710
18001WAT     H254246   5.846   0.486   4.547
18002WAT      O54247   7.260   2.726   2.484
18002WAT     H154248   7.318   2.645   2.473
18002WAT     H254249   7.315   2.802   2.518
18003WAT      O54250   4.812   2.515   4.176
18003WAT     H154251   4.714   2.497   4.167
18003WAT     H254252   4.829   2.564   4.261
18004WAT      O54253   9.646   7.353   4.994
18004WAT     H154254   9.578   7.284   4.969
18004WAT     H254255   9.661   7.415   4.917
18005WAT      O54256   3.201   0.334   7.598
18005WAT     H154257   3.207   0.432   7.618
18005WAT     H254258   3.292   0.298   7.580
18006WAT      O54259   3.421   7.424   3.715
18006WAT     H154260   3.477   7.379   3.785
18006WAT     H254261   3.325   7.422   3.743
18007WAT      O54262   2.412   3.502   4.949
18007WAT     H154263   2.452   3.413   4.930
18007WAT     H254264   2.450   3.539   5.034
18008WAT      O54265   1.572   4.812   3.459
18008WAT     H154266   1.478   4.812   3.423
18008WAT     H254267   1.585   4.731   3.517
18009WAT      O54268   8.172   1.872   6.345
18009WAT     H154269   8.163   1.958   6.295
18009WAT     H254270   8.096   1.811   6.322
18010WAT      O54271   3.285   4.900   5.955
18010WAT     H154272   3.197   4.868   5.921
18010WAT     H254273   3.325   4.830   6.014
18011WAT      O54274   4.211   2.603   8.909
18011WAT     H154275   4.144   2.676   8.897
18011WAT     H254276   4.274   2.627   8.982
18012WAT      O54277   0.434   6.481   6.691
18012WAT     H154278   0.452   6.470   6.789
18012WAT     H254279   0.344   6.443   6.669
18013WAT      O54280   9.029   8.095   5.607
18013WAT     H154281   9.065   8.129   5.520
18013WAT     H254282   8.932   8.117   5.614
18014WAT      O54283   5.479   9.245   3.301
18014WAT     H154284   5.534   9.172   3.340
18014WAT     H254285   5.515   9.269   3.211
18015WAT      O54286   0.030   3.554   7.848
18015WAT     H154287   0.059   3.637   7.800
18015WAT     H254288  -0.070   3.551   7.851
18016WAT      O54289   2.840   3.149   0.436
18016WAT     H154290   2.885   3.100   0.510
18016WAT     H254291   2.908   3.201   0.384
18017WAT      O54292   1.338   3.299   2.171
18017WAT     H154293   1.248   3.330   2.201
18017WAT     H254294   1.392   3.377   2.140
18018WAT      O54295   8.168   9.600   6.898
18018WAT     H154296   8.124   9.552   6.974
18018WAT     H254297   8.218   9.679   6.932
18019WAT      O54298   0.478   2.489   0.529
18019WAT     H154299   0.435   2.541   0.455
18019WAT     H254300   0.570   2.461   0.501
18020WAT      O54301   0.517   3.619   2.772
18020WAT     H154302   0.617   3.615   2.773
18020WAT     H254303   0.480   3.531   2.803
18021WAT      O54304   0.229   4.171   5.208
18021WAT     H154305   0.205   4.151   5.113
18021WAT     H254306   0.204   4.093   5.265
18022WAT      O54307   7.307   5.782   8.173
18022WAT     H154308   7.391   5.747   8.131
18022WAT     H254309   7.279   5.719   8.246
18023WAT      O54310   2.117   9.109   1.972
18023WAT     H154311   2.136   9.038   1.905
18023WAT     H254312   2.041   9.081   2.030
18024WAT      O54313   4.011   3.710   6.176
18024WAT     H154314   3.920   3.681   6.146
18024WAT     H254315   4.055   3.761   6.103
18025WAT      O54316   1.524   4.964   4.392
18025WAT     H154317   1.502   5.037   4.327
18025WAT     H254318   1.521   4.875   4.346
18026WAT      O54319   7.649   6.272   4.100
18026WAT     H154320   7.667   6.285   4.003
18026WAT     H254321   7.721   6.215   4.140
18027WAT      O54322   7.917   3.579   7.997
18027WAT     H154323   7.928   3.503   8.060
18027WAT     H254324   7.884   3.660   8.047
18028WAT      O54325   4.948   8.901   0.196
18028WAT     H154326   4.994   8.928   0.281
18028WAT     H254327   5.017   8.871   0.129
18029WAT      O54328   4.863   3.362   5.291
18029WAT     H154329   4.863   3.410   5.379
18029WAT     H254330   4.917   3.414   5.225
18030WAT      O54331   4.501   2.082   4.211
18030WAT     H154332   4.472   1.990   4.237
18030WAT     H254333   4.420   2.139   4.194
18031WAT      O54334   2.403   3.518   0.615
18031WAT     H154335   2.306   3.512   0.642
18031WAT     H254336   2.445   3.427   0.621
18032WAT      O54337   3.815   3.721   3.329
18032WAT     H154338   3.840   3.626   3.309
18032WAT     H254339   3.715   3.728   3.333
18033WAT      O54340   8.213   8.734   8.249
18033WAT     H154341   8.242   8.799   8.179
18033WAT     H254342   8.204   8.643   8.209
18034WAT      O54343   8.402   1.220   6.032
18034WAT     H154344   8.374   1.173   6.116
18034WAT     H254345   8.321   1.245   5.979
18035WAT      O54346   3.451   4.655   9.193
18035WAT     H154347   3.510   4.658   9.274
18035WAT     H254348   3.360   4.622   9.218
18036WAT      O54349   8.107   4.797   6.075
18036WAT     H154350   8.170   4.791   5.998
18036WAT     H254351   8.016   4.768   6.045
18037WAT      O54352   1.847   9.381   0.350
18037WAT     H154353   1.765   9.409   0.399
18037WAT     H254354   1.828   9.374   0.252
18038WAT      O54355   8.341   3.396   0.569
18038WAT     H154356   8.316   3.472   0.629
18038WAT     H254357   8.420   3.423   0.513
18039WAT      O54358   2.328   6.738   5.767
18039WAT     H154359   2.286   6.694   5.687
18039WAT     H254360   2.398   6.803   5.736
18040WAT      O54361   2.698   9.114   8.121
18040WAT     H154362   2.641   9.106   8.039
18040WAT     H254363   2.788   9.149   8.095
18041WAT      O54364   0.593   2.324   9.068
18041WAT     H154365   0.541   2.371   8.996
18041WAT     H254366   0.628   2.391   9.133
18042WAT      O54367   1.650   7.531   9.367
18042WAT     H154368   1.642   7.630   9.375
18042WAT     H254369   1.742   7.502   9.394
18043WAT      O54370   5.245   2.370   0.529
18043WAT     H154371   5.304   2.290   0.515
18043WAT     H254372   5.181   2.378   0.452
18044WAT      O54373   5.018   3.923   4.144
18044WAT     H154374   4.926   3.944   4.110
18044WAT     H254375   5.085   3.945   4.073
18045WAT      O54376   6.694   1.342   3.598
18045WAT     H154377   6.698   1.437   3.629
18045WAT     H254378   6.666   1.341   3.502
18046WAT      O54379   1.177   4.147   0.750
18046WAT     H154380   1.212   4.059   0.716
18046WAT     H254381   1.161   4.208   0.673
18047WAT      O54382   2.800   7.162   1.832
18047WAT     H154383   2.859   7.221   1.777
18047WAT     H254384   2.853   7.086   1.868
18048WAT      O54385   8.880   1.365   7.382
18048WAT     H154386   8.944   1.334   7.312
18048WAT     H254387   8.833   1.286   7.422
18049WAT      O54388   1.072   2.531   2.818
18049WAT     H154389   1.093   2.604   2.883
18049WAT     H254390   1.156   2.507   2.768
18050WAT      O54391   1.426   8.583   0.483
18050WAT     H154392   1.417   8.542   0.573
18050WAT     H254393   1.466   8.517   0.420
18051WAT      O54394   9.313   4.009   1.306
18051WAT     H154395   9.371   3.981   1.229
18051WAT     H254396   9.341   3.960   1.389
18052WAT      O54397   2.380   9.115   6.575
18052WAT     H154398   2.378   9.215   6.577
18052WAT     H254399   2.472   9.084   6.551
18053WAT      O54400   3.125   5.188   2.470
18053WAT     H154401   3.029   5.161   2.478
18053WAT     H254402   3.131   5.284   2.443
18054WAT      O54403   2.716   0.582   2.328
18054WAT     H154404   2.773   0.501   2.310
18054WAT     H254405   2.647   0.590   2.256
18055WAT      O54406   9.020   0.897   5.067
18055WAT     H154407   9.004   0.992   5.039
18055WAT     H254408   9.105   0.891   5.118
18056WAT      O54409   0.474   0.910   0.852
18056WAT     H154410   0.391   0.883   0.803
18056WAT     H254411   0.504   1.000   0.821
18057WAT      O54412   8.176   7.999   6.599
18057WAT     H154413   8.149   7.903   6.590
18057WAT     H254414   8.201   8.035   6.510
18058WAT      O54415   1.619   6.210   3.495
18058WAT     H154416   1.568   6.226   3.411
18058WAT     H254417   1.688   6.139   3.479
18059WAT      O54418   5.749   5.758   5.369
18059WAT     H154419   5.728   5.677   5.423
18059WAT     H254420   5.668   5.816   5.361
18060WAT      O54421   8.864   7.733   4.582
18060WAT     H154422   8.775   7.687   4.581
18060WAT     H254423   8.937   7.666   4.571
18061WAT      O54424   3.600   0.504   3.403
18061WAT     H154425   3.689   0.487   3.362
18061WAT     H254426   3.604   0.587   3.459
18062WAT      O54427   4.565   2.133   2.230
18062WAT     H154428   4.587   2.036   2.237
18062WAT     H254429   4.529   2.166   2.317
18063WAT      O54430   0.599   8.176   2.013
18063WAT     H154431   0.698   8.163   2.014
18063WAT     H254432   0.576   8.247   1.947
18064WAT      O54433   0.038   7.529   0.347
18064WAT     H154434   0.022   7.581   0.264
18064WAT     H254435   0.129   7.551   0.383
18065WAT      O54436   1.073   9.612   9.449
18065WAT     H154437   1.139   9.683   9.473
18065WAT     H254438   1.099   9.571   9.361
18066WAT      O54439   0.867   1.070   6.474
18066WAT     H154440   0.913   1.158   6.467
18066WAT     H254441   0.864   1.026   6.384
18067WAT      O54442   1.144   6.764   5.871
18067WAT     H154443   1.131   6.850   5.919
18067WAT     H254444   1.123   6.776   5.774
18068WAT      O54445   5.521   8.889   7.432
18068WAT     H154446   5.583   8.823   7.389
18068WAT     H254447   5.449   8.915   7.367
18069WAT      O54448   0.546   0.028   7.277
18069WAT     H154449   0.576   0.060   7.367
18069WAT     H254450   0.626   0.017   7.218
18070WAT      O54451   6.955   7.748   1.545
18070WAT     H154452   7.013   7.674   1.513
18070WAT     H254453   6.992   7.836   1.513
18071WAT      O54454   0.876   9.546   3.216
18071WAT     H154455   0.799   9.608   3.231
18071WAT     H254456   0.914   9.560   3.125
18072WAT      O54457   4.433   5.173   1.425
18072WAT     H154458   4.491   5.092   1.433
18072WAT     H254459   4.468   5.233   1.353
18073WAT      O54460   8.681   5.763   4.399
18073WAT     H154461   8.778   5.747   4.420
18073WAT     H254462   8.638   5.677   4.372
18074WAT      O54463   6.929   4.924   2.698
18074WAT     H154464   6.970   4.855   2.638
18074WAT     H254465   6.845   4.959   2.655
18075WAT      O54466   3.705   5.793   2.040
18075WAT     H154467   3.795   5.823   2.069
18075WAT     H254468   3.640   5.806   2.115
18076WAT      O54469   4.626   3.697   2.668
18076WAT     H154470   4.679   3.769   2.622
18076WAT     H254471   4.665   3.680   2.759
18077WAT      O54472   3.762   7.556   7.129
18077WAT     H154473   3.741   7.650   7.156
18077WAT     H254474   3.800   7.556   7.036
18078WAT      O54475   5.128   4.963   3.433
18078WAT     H154476   5.081   5.021   3.500
18078WAT     H254477   5.227   4.976   3.441
18079WAT      O54478   1.268   5.924   7.606
18079WAT     H154479   1.238   5.829   7.616
18079WAT     H254480   1.342   5.929   7.540
18080WAT      O54481   6.910   9.245   1.721
18080WAT     H154482   6.836   9.269   1.657
18080WAT     H254483   6.990   9.215   1.669
18081WAT      O54484   2.781   3.082   9.076
18081WAT     H154485   2.864   3.078   9.132
18081WAT     H254486   2.759   3.178   9.056
18082WAT      O54487   1.427   7.223   8.535
18082WAT     H154488   1.438   7.124   8.550
18082WAT     H254489   1.502   7.271   8.579
18083WAT      O54490   6.623   6.706   3.360
18083WAT     H154491   6.658   6.783   3.307
18083WAT     H254492   6.570   6.742   3.438
18084WAT      O54493   1.985   2.804   8.166
18084WAT     H154494   2.069   2.815   8.113
18084WAT     H254495   1.910   2.777   8.105
18085WAT      O54496   1.303   2.762   0.611
18085WAT     H154497   1.337   2.841   0.661
18085WAT     H254498   1.203   2.758   0.618
18086WAT      O54499   2.899   8.821   5.104
18086WAT     H154500   2.942   8.834   5.015
18086WAT     H254501   2.969   8.825   5.176
18087WAT      O54502   3.592   7.050   3.645
18087WAT     H154503   3.529   6.998   3.587
18087WAT     H254504   3.656   7.100   3.588
18088WAT      O54505   6.843   1.438   9.852
18088WAT     H154506   6.891   1.368   9.799
18088WAT     H254507   6.905   1.477   9.919
18089WAT      O54508   5.486   0.090   5.204
18089WAT     H154509   5.506   0.056   5.113
18089WAT     H254510   5.463   0.188   5.199
18090WAT      O54511   5.259   8.332   1.481
18090WAT     H154512   5.283   8.383   1.399
18090WAT     H254513   5.166   8.357   1.510
18091WAT      O54514   4.702   9.459   9.796
18091WAT     H154515   4.764   9.489   9.723
18091WAT     H254516   4.620   9.516   9.796
18092WAT      O54517   2.886   2.724   4.291
18092WAT     H154518   2.940   2.728   4.207
18092WAT     H254519   2.933   2.667   4.358
18093WAT      O54520   2.483   9.049   6.187
18093WAT     H154521   2.429   8.966   6.175
18093WAT     H254522   2.574   9.036   6.147
18094WAT      O54523   9.596   8.273   0.098
18094WAT     H154524   9.662   8.345   0.076
18094WAT     H254525   9.619   8.233   0.186
18095WAT      O54526   9.798   0.574   8.888
18095WAT     H154527   9.848   0.526   8.816
18095WAT     H254528   9.771   0.665   8.855
18096WAT      O54529   4.557   1.154   6.384
18096WAT     H154530   4.609   1.200   6.313
18096WAT     H254531   4.508   1.221   6.439
18097WAT      O54532   2.061   0.649   0.771
18097WAT     H154533   2.108   0.605   0.695
18097WAT     H254534   2.043   0.582   0.843
18098WAT      O54535   9.003   8.853   0.360
18098WAT     H154536   9.028   8.774   0.304
18098WAT     H254537   8.903   8.860   0.364
18099WAT      O54538   3.645   5.322   7.912
18099WAT     H154539   3.726   5.263   7.911
18099WAT     H254540   3.668   5.411   7.871
18100WAT      O54541   0.221   4.716   0.554
18100WAT     H154542   0.134   4.755   0.583
18100WAT     H254543   0.204   4.634   0.499
18101WAT      O54544   2.133   4.499   8.234
18101WAT     H154545   2.176   4.559   8.301
18101WAT     H254546   2.148   4.404   8.260
18102WAT      O54547   3.133   9.338   2.901
18102WAT     H154548   3.095   9.333   2.809
18102WAT     H254549   3.232   9.351   2.896
18103WAT      O54550   0.135   8.550   8.271
18103WAT     H154551   0.062   8.483   8.282
18103WAT     H254552   0.103   8.639   8.304
18104WAT      O54553   0.168   7.648   1.093
18104WAT     H154554   0.068   7.648   1.089
18104WAT     H254555   0.201   7.556   1.112
18105WAT      O54556   8.491   7.380   6.843
18105WAT     H154557   8.396   7.395   6.872
18105WAT     H254558   8.551   7.445   6.889
18106WAT      O54559   7.888   4.209   4.962
18106WAT     H154560   7.930   4.171   5.044
18106WAT     H254561   7.960   4.246   4.903
18107WAT      O54562   3.674   5.397   5.598
18107WAT     H154563   3.683   5.454   5.680
18107WAT     H254564   3.752   5.335   5.593
18108WAT      O54565   0.672   8.322   7.889
18108WAT     H154566   0.605   8.248   7.889
18108WAT     H254567   0.701   8.341   7.795
18109WAT      O54568   5.096   5.201   7.584
18109WAT     H154569   5.098   5.107   7.550
18109WAT     H254570   5.018   5.213   7.646
18110WAT      O54571   3.462   7.934   3.220
18110WAT     H154572   3.374   7.895   3.248
18110WAT     H254573   3.528   7.924   3.294
18111WAT      O54574   4.165   1.373   0.384
18111WAT     H154575   4.095   1.317   0.429
18111WAT     H254576   4.178   1.457   0.436
18112WAT      O54577   6.144   8.236   8.062
18112WAT     H154578   6.153   8.328   8.025
18112WAT     H254579   6.234   8.202   8.090
18113WAT      O54580   7.409   8.177   2.699
18113WAT     H154581   7.462   8.191   2.782
18113WAT     H254582   7.376   8.265   2.665
18114WAT      O54583   9.638   1.987   6.847
18114WAT     H154584   9.721   1.946   6.809
18114WAT     H254585   9.602   1.928   6.919
18115WAT      O54586   5.294   7.100   3.067
18115WAT     H154587   5.361   7.049   3.121
18115WAT     H254588   5.211   7.115   3.121
18116WAT      O54589   2.429   6.397   7.744
18116WAT     H154590   2.334   6.424   7.727
18116WAT     H254591   2.485   6.478   7.760
18117WAT      O54592   7.405   6.992   5.692
18117WAT     H154593   7.348   6.981   5.774
18117WAT     H254594   7.396   7.085   5.658
18118WAT      O54595   7.279   1.649   6.674
18118WAT     H154596   7.330   1.567   6.649
18118WAT     H254597   7.226   1.632   6.757
18119WAT      O54598   5.296   7.387   9.316
18119WAT     H154599   5.198   7.385   9.334
18119WAT     H254600   5.340   7.310   9.361
18120WAT      O54601   7.080   7.069   6.477
18120WAT     H154602   7.142   7.011   6.529
18120WAT     H254603   7.034   7.133   6.539
18121WAT      O54604   4.779   9.798   8.515
18121WAT     H154605   4.780   9.884   8.567
18121WAT     H254606   4.733   9.727   8.568
18122WAT      O54607   7.603   6.334   5.678
18122WAT     H154608   7.684   6.277   5.668
18122WAT     H254609   7.606   6.382   5.766
18123WAT      O54610   8.444   0.677   4.385
18123WAT     H154611   8.347   0.657   4.367
18123WAT     H254612   8.459   0.683   4.483
18124WAT      O54613   9.186   0.420   1.910
18124WAT     H154614   9.200   0.352   1.982
18124WAT     H254615   9.232   0.505   1.935
18125WAT      O54616   0.293   6.561   0.700
18125WAT     H154617   0.319   6.521   0.788
18125WAT     H254618   0.232   6.498   0.652
18126WAT      O54619   4.152   3.782   9.291
18126WAT     H154620   4.188   3.851   9.354
18126WAT     H254621   4.214   3.703   9.290
18127WAT      O54622   6.345   2.799   8.893
18127WAT     H154623   6.384   2.818   8.803
18127WAT     H254624   6.247   2.782   8.884
18128WAT      O54625   1.107   1.730   5.535
18128WAT     H154626   1.109   1.819   5.488
18128WAT     H254627   1.013   1.697   5.539
18129WAT      O54628   1.277   4.350   4.827
18129WAT     H154629   1.224   4.298   4.893
18129WAT     H254630   1.282   4.446   4.856
18130WAT      O54631   5.717   5.664   7.034
18130WAT     H154632   5.753   5.570   7.028
18130WAT     H254633   5.693   5.684   7.129
18131WAT      O54634   4.977   7.031   7.310
18131WAT     H154635   4.977   7.000   7.405
18131WAT     H254636   4.891   7.005   7.266
18132WAT      O54637   9.721   1.747   2.123
18132WAT     H154638   9.818   1.731   2.104
18132WAT     H254639   9.667   1.732   2.040
18133WAT      O54640   5.864   5.471   1.808
18133WAT     H154641   5.803   5.396   1.835
18133WAT     H254642   5.871   5.474   1.708
18134WAT      O54643   1.931   6.943   3.940
18134WAT     H154644   1.856   6.884   3.910
18134WAT     H254645   1.962   6.998   3.863
18135WAT      O54646   4.211   1.543   3.981
18135WAT     H154647   4.149   1.470   3.951
18135WAT     H254648   4.289   1.547   3.920
18136WAT      O54649   0.883   4.833   5.803
18136WAT     H154650   0.799   4.782   5.784
18136WAT     H254651   0.933   4.847   5.717
18137WAT      O54652   5.816   1.586   1.975
18137WAT     H154653   5.755   1.514   1.941
18137WAT     H254654   5.846   1.563   2.068
18138WAT      O54655   5.901   0.694   1.223
18138WAT     H154656   5.855   0.691   1.312
18138WAT     H254657   5.918   0.789   1.197
18139WAT      O54658   5.713   7.654   4.714
18139WAT     H154659   5.806   7.690   4.720
18139WAT     H254660   5.704   7.599   4.631
18140WAT      O54661   6.925   6.623   1.120
18140WAT     H154662   6.867   6.651   1.196
18140WAT     H254663   6.870   6.618   1.036
18141WAT      O54664   0.648   5.565   9.796
18141WAT     H154665   0.705   5.488   9.768
18141WAT     H254666   0.706   5.642   9.823
18142WAT      O54667   6.091   3.182   8.454
18142WAT     H154668   6.159   3.134   8.510
18142WAT     H254669   6.066   3.267   8.499
18143WAT      O54670   6.302   3.173   5.552
18143WAT     H154671   6.307   3.129   5.462
18143WAT     H254672   6.249   3.258   5.544
18144WAT      O54673   7.798   3.507   5.533
18144WAT     H154674   7.842   3.540   5.616
18144WAT     H254675   7.866   3.500   5.460
18145WAT      O54676   1.762   7.947   8.307
18145WAT     H154677   1.710   7.878   8.357
18145WAT     H254678   1.752   8.036   8.352
18146WAT      O54679   3.932   7.116   7.396
18146WAT     H154680   3.857   7.141   7.334
18146WAT     H254681   4.019   7.117   7.346
18147WAT      O54682   9.560   6.451   6.405
18147WAT     H154683   9.639   6.482   6.457
18147WAT     H254684   9.487   6.519   6.412
18148WAT      O54685   9.103   7.827   9.767
18148WAT     H154686   9.146   7.830   9.677
18148WAT     H254687   9.110   7.735   9.804
18149WAT      O54688   6.859   8.996   5.824
18149WAT     H154689   6.818   8.975   5.913
18149WAT     H254690   6.823   9.083   5.791
18150WAT      O54691   3.831   0.498   4.133
18150WAT     H154692   3.761   0.527   4.067
18150WAT     H254693   3.889   0.576   4.157
18151WAT      O54694   8.173   3.699   8.469
18151WAT     H154695   8.124   3.628   8.418
18151WAT     H254696   8.119   3.782   8.471
18152WAT      O54697   5.332   1.436   3.125
18152WAT     H154698   5.270   1.389   3.187
18152WAT     H254699   5.318   1.403   3.032
18153WAT      O54700   4.246   4.503   8.553
18153WAT     H154701   4.175   4.436   8.533
18153WAT     H254702   4.336   4.462   8.544
18154WAT      O54703   0.484   5.123   5.425
18154WAT     H154704   0.536   5.089   5.346
18154WAT     H254705   0.501   5.064   5.504
18155WAT      O54706   6.069   7.556   7.598
18155WAT     H154707   6.157   7.581   7.560
18155WAT     H254708   5.997   7.572   7.531
18156WAT      O54709   8.540   3.891   2.940
18156WAT     H154710   8.587   3.826   2.880
18156WAT     H254711   8.459   3.926   2.893
18157WAT      O54712   1.296   0.056   4.649
18157WAT     H154713   1.373   0.003   4.614
18157WAT     H254714   1.268   0.019   4.738
18158WAT      O54715   8.445   4.741   7.872
18158WAT     H154716   8.490   4.709   7.789
18158WAT     H254717   8.503   4.809   7.917
18159WAT      O54718   8.561   1.949   1.109
18159WAT     H154719   8.630   2.022   1.104
18159WAT     H254720   8.478   1.979   1.062
18160WAT      O54721   7.995   1.166   3.465
18160WAT     H154722   8.093   1.149   3.469
18160WAT     H254723   7.952   1.131   3.548
18161WAT      O54724   9.522   7.315   6.769
18161WAT     H154725   9.576   7.242   6.812
18161WAT     H254726   9.581   7.395   6.755
18162WAT      O54727   6.161   8.917   0.188
18162WAT     H154728   6.163   8.928   0.288
18162WAT     H254729   6.151   9.007   0.146
18163WAT      O54730   1.573   3.577   7.483
18163WAT     H154731   1.620   3.544   7.402
18163WAT     H254732   1.588   3.513   7.559
18164WAT      O54733   5.025   3.082   3.243
18164WAT     H154734   5.071   3.030   3.172
18164WAT     H254735   5.080   3.162   3.267
18165WAT      O54736   4.148   7.598   2.715
18165WAT     H154737   4.245   7.573   2.710
18165WAT     H254738   4.112   7.577   2.805
18166WAT      O54739   3.048   6.782   7.600
18166WAT     H154740   2.953   6.783   7.632
18166WAT     H254741   3.062   6.858   7.537
18167WAT      O54742   0.186   4.087   7.638
18167WAT     H154743   0.240   4.051   7.714
18167WAT     H254744   0.184   4.187   7.643
18168WAT      O54745   1.312   9.309   7.019
18168WAT     H154746   1.334   9.271   6.929
18168WAT     H254747   1.378   9.381   7.042
18169WAT      O54748   4.544   1.630   2.635
18169WAT     H154749   4.483   1.550   2.636
18169WAT     H254750   4.635   1.602   2.667
18170WAT      O54751   9.029   1.865   0.644
18170WAT     H154752   9.114   1.815   0.661
18170WAT     H254753   9.051   1.956   0.610
18171WAT      O54754   3.850   3.119   6.177
18171WAT     H154755   3.804   3.031   6.173
18171WAT     H254756   3.793   3.184   6.227
18172WAT      O54757   9.318   3.111   0.322
18172WAT     H154758   9.341   3.208   0.332
18172WAT     H254759   9.260   3.098   0.242
18173WAT      O54760   0.318   0.619   1.824
18173WAT     H154761   0.393   0.685   1.825
18173WAT     H254762   0.335   0.550   1.754
18174WAT      O54763   3.270   2.565   8.194
18174WAT     H154764   3.188   2.612   8.159
18174WAT     H254765   3.278   2.475   8.150
18175WAT      O54766   1.624   8.491   4.937
18175WAT     H154767   1.664   8.405   4.968
18175WAT     H254768   1.550   8.518   4.999
18176WAT      O54769   5.899   7.836   2.703
18176WAT     H154770   5.955   7.801   2.628
18176WAT     H254771   5.877   7.762   2.766
18177WAT      O54772   2.437   7.937   3.580
18177WAT     H154773   2.449   7.847   3.537
18177WAT     H254774   2.482   7.938   3.669
18178WAT      O54775   4.565   5.925   7.038
18178WAT     H154776   4.660   5.904   7.017
18178WAT     H254777   4.538   6.009   6.989
18179WAT      O54778   0.158   8.905   8.856
18179WAT     H154779   0.233   8.930   8.918
18179WAT     H254780   0.096   8.842   8.903
18180WAT      O54781   1.294   9.207   8.937
18180WAT     H154782   1.313   9.304   8.954
18180WAT     H254783   1.205   9.184   8.975
18181WAT      O54784   4.447   3.469   6.807
18181WAT     H154785   4.467   3.566   6.791
18181WAT     H254786   4.369   3.441   6.752
18182WAT      O54787   7.552   0.645   1.004
18182WAT     H154788   7.647   0.616   1.009
18182WAT     H254789   7.530   0.670   0.910
18183WAT      O54790   1.864   9.229   7.739
18183WAT     H154791   1.851   9.263   7.832
18183WAT     H254792   1.776   9.226   7.692
18184WAT      O54793   5.220   2.504   3.156
18184WAT     H154794   5.239   2.601   3.170
18184WAT     H254795   5.264   2.472   3.072
18185WAT      O54796   8.830   3.652   4.484
18185WAT     H154797   8.804   3.705   4.565
18185WAT     H254798   8.784   3.563   4.487
18186WAT      O54799   8.019   6.477   0.057
18186WAT     H154800   8.050   6.436  -0.029
18186WAT     H254801   8.010   6.407   0.127
18187WAT      O54802   3.241   0.403   6.553
18187WAT     H154803   3.221   0.337   6.480
18187WAT     H254804   3.173   0.476   6.552
18188WAT      O54805   5.642   0.193   6.539
18188WAT     H154806   5.637   0.162   6.445
18188WAT     H254807   5.678   0.120   6.597
18189WAT      O54808   3.098   5.857   6.098
18189WAT     H154809   3.060   5.833   6.187
18189WAT     H254810   3.136   5.775   6.055
18190WAT      O54811   2.596   9.543   4.451
18190WAT     H154812   2.547   9.468   4.406
18190WAT     H254813   2.678   9.566   4.398
18191WAT      O54814   3.051   9.507   9.224
18191WAT     H154815   2.977   9.550   9.275
18191WAT     H254816   3.090   9.573   9.159
18192WAT      O54817   5.644   3.869   0.149
18192WAT     H154818   5.714   3.819   0.098
18192WAT     H254819   5.636   3.830   0.241
18193WAT      O54820   7.620   8.861   6.364
18193WAT     H154821   7.684   8.785   6.354
18193WAT     H254822   7.553   8.858   6.290
18194WAT      O54823   2.751   0.457   5.003
18194WAT     H154824   2.817   0.382   5.008
18194WAT     H254825   2.698   0.460   5.087
18195WAT      O54826   8.811   9.611   7.502
18195WAT     H154827   8.820   9.694   7.447
18195WAT     H254828   8.735   9.556   7.468
18196WAT      O54829   0.031   5.877   2.040
18196WAT     H154830  -0.026   5.834   2.111
18196WAT     H254831   0.126   5.847   2.053
18197WAT      O54832   0.513   6.323   1.104
18197WAT     H154833   0.569   6.316   1.021
18197WAT     H254834   0.571   6.348   1.181
18198WAT      O54835   9.467   8.703   8.361
18198WAT     H154836   9.499   8.761   8.436
18198WAT     H254837   9.449   8.611   8.396
18199WAT      O54838   7.955   8.536   9.266
18199WAT     H154839   7.972   8.554   9.169
18199WAT     H254840   8.042   8.527   9.314
18200WAT      O54841   6.576   3.849   0.474
18200WAT     H154842   6.589   3.822   0.378
18200WAT     H254843   6.489   3.812   0.507
18201WAT      O54844   0.690   0.630   1.365
18201WAT     H154845   0.596   0.642   1.396
18201WAT     H254846   0.752   0.639   1.443
18202WAT      O54847   8.832   3.477   9.792
18202WAT     H154848   8.919   3.458   9.746
18202WAT     H254849   8.829   3.572   9.820
18203WAT      O54850   9.821   2.175   4.693
18203WAT     H154851   9.847   2.136   4.781
18203WAT     H254852   9.872   2.129   4.620
18204WAT      O54853   8.616   5.246   4.982
18204WAT     H154854   8.617   5.322   5.047
18204WAT     H254855   8.706   5.204   4.979
18205WAT      O54856   5.874   6.441   0.147
18205WAT     H154857   5.905   6.515   0.207
18205WAT     H254858   5.864   6.357   0.200
18206WAT      O54859   7.761   3.850   1.130
18206WAT     H154860   7.727   3.927   1.184
18206WAT     H254861   7.694   3.776   1.132
18207WAT      O54862   0.741   8.100   1.542
18207WAT     H154863   0.811   8.065   1.605
18207WAT     H254864   0.660   8.128   1.594
18208WAT      O54865   5.842   5.428   9.198
18208WAT     H154866   5.766   5.364   9.184
18208WAT     H254867   5.809   5.522   9.187
18209WAT      O54868   1.787   5.715   9.527
18209WAT     H154869   1.758   5.809   9.544
18209WAT     H254870   1.709   5.654   9.536
18210WAT      O54871   2.915   7.139   4.125
18210WAT     H154872   2.911   7.214   4.190
18210WAT     H254873   2.928   7.176   4.032
18211WAT      O54874   6.541   5.099   1.984
18211WAT     H154875   6.489   5.123   1.902
18211WAT     H254876   6.560   5.182   2.037
18212WAT      O54877   8.198   6.968   0.559
18212WAT     H154878   8.294   6.971   0.532
18212WAT     H254879   8.175   6.876   0.590
18213WAT      O54880   5.245   8.812   4.207
18213WAT     H154881   5.242   8.714   4.191
18213WAT     H254882   5.152   8.849   4.213
18214WAT      O54883   3.462   6.283   9.761
18214WAT     H154884   3.548   6.259   9.717
18214WAT     H254885   3.481   6.338   9.843
18215WAT      O54886   9.441   9.813   6.722
18215WAT     H154887   9.419   9.747   6.650
18215WAT     H254888   9.540   9.819   6.734
18216WAT      O54889   0.476   5.053   7.003
18216WAT     H154890   0.553   5.020   7.057
18216WAT     H254891   0.428   5.125   7.055
18217WAT      O54892   6.644   7.312   5.221
18217WAT     H154893   6.550   7.345   5.206
18217WAT     H254894   6.669   7.326   5.317
18218WAT      O54895   3.954   9.008   4.533
18218WAT     H154896   4.001   9.065   4.600
18218WAT     H254897   3.855   9.017   4.546
18219WAT      O54898   2.106   9.275   2.902
18219WAT     H154899   2.051   9.246   2.823
18219WAT     H254900   2.203   9.264   2.880
18220WAT      O54901   4.972   7.158   5.362
18220WAT     H154902   5.007   7.189   5.273
18220WAT     H254903   4.878   7.127   5.352
18221WAT      O54904   3.788   8.626   2.059
18221WAT     H154905   3.693   8.648   2.035
18221WAT     H254906   3.843   8.623   1.975
18222WAT      O54907   9.196   8.381   7.113
18222WAT     H154908   9.187   8.455   7.047
18222WAT     H254909   9.292   8.357   7.125
18223WAT      O54910   6.282   2.714   7.476
18223WAT     H154911   6.182   2.712   7.480
18223WAT     H254912   6.313   2.643   7.412
18224WAT      O54913   7.671   8.329   9.778
18224WAT     H154914   7.708   8.420   9.763
18224WAT     H254915   7.746   8.265   9.796
18225WAT      O54916   9.227   6.105   6.486
18225WAT     H154917   9.160   6.177   6.503
18225WAT     H254918   9.296   6.138   6.422
18226WAT      O54919   7.020   2.673   6.265
18226WAT     H154920   6.968   2.746   6.308
18226WAT     H254921   7.055   2.704   6.176
18227WAT      O54922   1.187   4.731   0.448
18227WAT     H154923   1.152   4.684   0.367
18227WAT     H254924   1.176   4.830   0.436
18228WAT      O54925   5.308   7.629   5.564
18228WAT     H154926   5.248   7.654   5.489
18228WAT     H254927   5.402   7.621   5.531
18229WAT      O54928   5.939   6.214   8.517
18229WAT     H154929   5.981   6.166   8.441
18229WAT     H254930   5.865   6.159   8.555
18230WAT      O54931   1.661   7.765   4.848
18230WAT     H154932   1.590   7.831   4.871
18230WAT     H254933   1.620   7.686   4.802
18231WAT      O54934   3.293   2.601   9.378
18231WAT     H154935   3.229   2.674   9.399
18231WAT     H254936   3.380   2.618   9.424
18232WAT      O54937   5.499   7.905   3.710
18232WAT     H154938   5.402   7.920   3.733
18232WAT     H254939   5.519   7.947   3.622
18233WAT      O54940   1.416   0.009   5.702
18233WAT     H154941   1.401  -0.061   5.772
18233WAT     H254942   1.508   0.047   5.712
18234WAT      O54943   3.654   0.446   7.003
18234WAT     H154944   3.665   0.348   6.991
18234WAT     H254945   3.601   0.465   7.085
18235WAT      O54946   2.006   6.537   9.602
18235WAT     H154947   2.001   6.438   9.587
18235WAT     H254948   2.100   6.563   9.621
18236WAT      O54949   4.123   3.043   9.137
18236WAT     H154950   4.202   3.015   9.191
18236WAT     H254951   4.039   3.010   9.179
18237WAT      O54952   7.124   0.335   6.393
18237WAT     H154953   7.160   0.385   6.472
18237WAT     H254954   7.195   0.332   6.322
18238WAT      O54955   8.217   5.566   4.993
18238WAT     H154956   8.250   5.536   4.904
18238WAT     H254957   8.121   5.538   5.004
18239WAT      O54958   6.246   3.906   1.434
18239WAT     H154959   6.307   3.960   1.493
18239WAT     H254960   6.293   3.884   1.349
18240WAT      O54961   2.125   8.069   2.694
18240WAT     H154962   2.204   8.100   2.641
18240WAT     H254963   2.144   8.078   2.792
18241WAT      O54964   1.627   0.979   8.887
18241WAT     H154965   1.600   0.908   8.822
18241WAT     H254966   1.606   1.069   8.849
18242WAT      O54967   0.704   8.948   3.757
18242WAT     H154968   0.778   8.914   3.700
18242WAT     H254969   0.717   9.045   3.775
18243WAT      O54970   1.452   6.402   5.521
18243WAT     H154971   1.488   6.366   5.434
18243WAT     H254972   1.418   6.327   5.577
18244WAT      O54973   0.205   8.645   8.672
18244WAT     H154974   0.184   8.622   8.576
18244WAT     H254975   0.283   8.707   8.675
18245WAT      O54976   7.067   1.375   7.073
18245WAT     H154977   7.046   1.352   6.978
18245WAT     H254978   7.109   1.297   7.119
18246WAT      O54979   3.368   8.687   7.945
18246WAT     H154980   3.290   8.642   7.989
18246WAT     H254981   3.429   8.618   7.907
18247WAT      O54982   8.662   7.017   6.958
18247WAT     H154983   8.661   6.928   6.912
18247WAT     H254984   8.604   7.013   7.039
18248WAT      O54985   0.521   8.301   9.248
18248WAT     H154986   0.428   8.274   9.220
18248WAT     H254987   0.536   8.275   9.343
18249WAT      O54988   2.103   9.371   6.600
18249WAT     H154989   2.092   9.296   6.664
18249WAT     H254990   2.196   9.371   6.563
18250WAT      O54991   0.251   8.558   9.802
18250WAT     H154992   0.196   8.630   9.761
18250WAT     H254993   0.295   8.504   9.730
18251WAT      O54994   6.418   9.398   6.069
18251WAT     H154995   6.342   9.441   6.021
18251WAT     H254996   6.502   9.449   6.050
18252WAT      O54997   5.499   5.076   7.483
18252WAT     H154998   5.591   5.108   7.462
18252WAT     H254999   5.438   5.155   7.495
18253WAT      O55000   6.109   3.524   6.132
18253WAT     H155001   6.018   3.482   6.136
18253WAT     H255002   6.116   3.595   6.202
18254WAT      O55003   4.439   9.572   1.066
18254WAT     H155004   4.419   9.572   1.164
18254WAT     H255005   4.525   9.620   1.049
18255WAT      O55006   8.851   1.088   1.371
18255WAT     H155007   8.781   1.020   1.394
18255WAT     H255008   8.941   1.051   1.394
18256WAT      O55009   5.684   1.015   1.229
18256WAT     H155010   5.778   1.003   1.199
18256WAT     H255011   5.642   1.090   1.177
18257WAT      O55012   4.418   1.644   9.673
18257WAT     H155013   4.401   1.551   9.639
18257WAT     H255014   4.510   1.648   9.713
18258WAT      O55015   3.942   4.154   8.682
18258WAT     H155016   3.843   4.161   8.668
18258WAT     H255017   3.965   4.060   8.709
18259WAT      O55018   0.225   0.261   8.173
18259WAT     H155019   0.130   0.257   8.140
18259WAT     H255020   0.280   0.193   8.123
18260WAT      O55021   4.523   1.348   8.977
18260WAT     H155022   4.591   1.410   9.017
18260WAT     H255023   4.447   1.402   8.940
18261WAT      O55024   2.322   3.723   7.291
18261WAT     H155025   2.334   3.817   7.323
18261WAT     H255026   2.254   3.721   7.218
18262WAT      O55027   0.848   9.837   5.272
18262WAT     H155028   0.869   9.905   5.203
18262WAT     H255029   0.755   9.802   5.258
18263WAT      O55030   4.060   6.715   1.754
18263WAT     H155031   4.120   6.647   1.713
18263WAT     H255032   4.071   6.803   1.707
18264WAT      O55033   2.942   4.310   1.824
18264WAT     H155034   2.898   4.220   1.829
18264WAT     H255035   3.014   4.307   1.754
18265WAT      O55036   2.858   0.820   3.762
18265WAT     H155037   2.837   0.861   3.851
18265WAT     H255038   2.832   0.884   3.689
18266WAT      O55039   9.028   2.680   9.678
18266WAT     H155040   9.060   2.713   9.589
18266WAT     H255041   9.106   2.665   9.739
18267WAT      O55042   1.230   8.772   2.068
18267WAT     H155043   1.163   8.847   2.067
18267WAT     H255044   1.317   8.805   2.105
18268WAT      O55045   4.965   0.713   2.838
18268WAT     H155046   4.987   0.616   2.824
18268WAT     H255047   4.896   0.721   2.910
18269WAT      O55048   4.108   5.567   4.429
18269WAT     H155049   4.200   5.548   4.461
18269WAT     H255050   4.094   5.524   4.340
18270WAT      O55051   8.310   9.831   3.310
18270WAT     H155052   8.279   9.800   3.400
18270WAT     H255053   8.231   9.864   3.258
18271WAT      O55054   9.197   8.354   3.644
18271WAT     H155055   9.109   8.310   3.627
18271WAT     H255056   9.271   8.290   3.619
18272WAT      O55057   9.705   1.214   3.446
18272WAT     H155058   9.763   1.213   3.528
18272WAT     H255059   9.745   1.154   3.377
18273WAT      O55060   5.852   1.779   2.263
18273WAT     H155061   5.811   1.810   2.178
18273WAT     H255062   5.841   1.680   2.271
18274WAT      O55063   3.577   0.634   0.990
18274WAT     H155064   3.506   0.582   0.943
18274WAT     H255065   3.617   0.578   1.063
18275WAT      O55066   3.546   0.754   7.740
18275WAT     H155067   3.589   0.813   7.808
18275WAT     H255068   3.564   0.790   7.648
18276WAT      O55069   4.644   9.338   5.944
18276WAT     H155070   4.715   9.402   5.975
18276WAT     H255071   4.584   9.384   5.879
18277WAT      O55072   7.374   6.272   2.895
18277WAT     H155073   7.300   6.305   2.954
18277WAT     H255074   7.336   6.215   2.822
18278WAT      O55075   3.749   6.722   9.255
18278WAT     H155076   3.767   6.650   9.188
18278WAT     H255077   3.761   6.686   9.347
18279WAT      O55078   9.193   3.481   2.102
18279WAT     H155079   9.124   3.440   2.163
18279WAT     H255080   9.169   3.461   2.007
18280WAT      O55081   9.754   6.899   1.084
18280WAT     H155082   9.737   6.900   0.986
18280WAT     H255083   9.767   6.805   1.116
18281WAT      O55084   3.730   7.876   7.125
18281WAT     H155085   3.737   7.909   7.030
18281WAT     H255086   3.728   7.954   7.187
18282WAT      O55087   6.367   7.147   8.493
18282WAT     H155088   6.326   7.227   8.537
18282WAT     H255089   6.326   7.133   8.403
18283WAT      O55090   6.762   6.819   1.542
18283WAT     H155091   6.856   6.845   1.561
18283WAT     H255092   6.761   6.737   1.484
18284WAT      O55093   0.992   7.319   7.868
18284WAT     H155094   1.056   7.286   7.936
18284WAT     H255095   0.974   7.416   7.881
18285WAT      O55096   7.021   3.739   1.949
18285WAT     H155097   6.981   3.789   2.026
18285WAT     H255098   6.951   3.726   1.878
18286WAT      O55099   3.051   8.272   6.967
18286WAT     H155100   3.034   8.231   6.878
18286WAT     H255101   3.143   8.247   6.998
18287WAT      O55102   5.860   2.683   1.486
18287WAT     H155103   5.855   2.767   1.540
18287WAT     H255104   5.779   2.676   1.428
18288WAT      O55105   3.631   5.626   2.617
18288WAT     H155106   3.724   5.641   2.651
18288WAT     H255107   3.635   5.577   2.530
18289WAT      O55108   0.478   6.376   8.533
18289WAT     H155109   0.431   6.367   8.621
18289WAT     H255110   0.573   6.403   8.549
18290WAT      O55111   1.700   4.673   6.103
18290WAT     H155112   1.609   4.642   6.128
18290WAT     H255113   1.762   4.595   6.098
18291WAT      O55114   8.924   1.647   4.998
18291WAT     H155115   8.999   1.673   5.059
18291WAT     H255116   8.846   1.707   5.015
18292WAT      O55117   7.985   0.695   9.384
18292WAT     H155118   8.075   0.727   9.416
18292WAT     H255119   7.917   0.713   9.455
18293WAT      O55120   0.054   1.855   0.666
18293WAT     H155121   0.052   1.892   0.573
18293WAT     H255122  -0.016   1.901   0.721
18294WAT      O55123   1.202   5.550   1.025
18294WAT     H155124   1.199   5.579   1.121
18294WAT     H255125   1.110   5.553   0.986
18295WAT      O55126   1.709   3.343   8.093
18295WAT     H155127   1.742   3.287   8.169
18295WAT     H255128   1.611   3.327   8.081
18296WAT      O55129   7.852   3.957   0.369
18296WAT     H155130   7.866   3.952   0.270
18296WAT     H255131   7.763   3.919   0.393
18297WAT      O55132   5.190   8.870   2.983
18297WAT     H155133   5.107   8.815   2.995
18297WAT     H255134   5.176   8.960   3.025
18298WAT      O55135   1.679   2.607   0.288
18298WAT     H155136   1.610   2.661   0.335
18298WAT     H255137   1.676   2.627   0.190
18299WAT      O55138   6.886   4.165   8.349
18299WAT     H155139   6.923   4.079   8.315
18299WAT     H255140   6.942   4.198   8.425
18300WAT      O55141   1.176   9.371   8.096
18300WAT     H155142   1.187   9.272   8.088
18300WAT     H255143   1.226   9.403   8.177
18301WAT      O55144   4.000   4.537   6.667
18301WAT     H155145   4.027   4.634   6.665
18301WAT     H255146   4.043   4.489   6.591
18302WAT      O55147   7.571   1.141   3.078
18302WAT     H155148   7.477   1.148   3.113
18302WAT     H255149   7.610   1.053   3.107
18303WAT      O55150   8.387   6.920   5.075
18303WAT     H155151   8.330   6.978   5.134
18303WAT     H255152   8.414   6.838   5.126
18304WAT      O55153   7.586   4.115   0.286
18304WAT     H155154   7.681   4.098   0.313
18304WAT     H255155   7.532   4.033   0.303
18305WAT      O55156   7.606   1.720   7.656
18305WAT     H155157   7.676   1.764   7.712
18305WAT     H255158   7.650   1.668   7.583
18306WAT      O55159   3.615   6.164   9.229
18306WAT     H155160   3.596   6.227   9.304
18306WAT     H255161   3.664   6.084   9.264
18307WAT      O55162   0.052   0.734   3.069
18307WAT     H155163   0.127   0.733   3.135
18307WAT     H255164   0.002   0.647   3.074
18308WAT      O55165   0.211   6.689   3.980
18308WAT     H155166   0.231   6.687   3.882
18308WAT     H255167   0.265   6.761   4.024
18309WAT      O55168   7.651   9.516   4.890
18309WAT     H155169   7.714   9.546   4.819
18309WAT     H255170   7.558   9.517   4.855
18310WAT      O55171   8.824   6.988   8.741
18310WAT     H155172   8.781   6.898   8.735
18310WAT     H255173   8.915   6.979   8.780
18311WAT      O55174   3.713   6.169   9.632
18311WAT     H155175   3.702   6.228   9.552
18311WAT     H255176   3.697   6.074   9.606
18312WAT      O55177   5.816   3.444   3.572
18312WAT     H155178   5.839   3.406   3.662
18312WAT     H255179   5.815   3.544   3.577
18313WAT      O55180   9.867   4.219   2.149
18313WAT     H155181   9.774   4.183   2.160
18313WAT     H255182   9.930   4.166   2.205
18314WAT      O55183   3.724   8.895   4.738
18314WAT     H155184   3.725   8.799   4.712
18314WAT     H255185   3.704   8.951   4.657
18315WAT      O55186   1.672   9.799   1.754
18315WAT     H155187   1.620   9.746   1.688
18315WAT     H255188   1.766   9.765   1.757
18316WAT      O55189   3.523   7.196   8.766
18316WAT     H155190   3.554   7.235   8.680
18316WAT     H255191   3.436   7.148   8.752
18317WAT      O55192   6.922   0.435   6.753
18317WAT     H155193   6.913   0.467   6.659
18317WAT     H255194   6.840   0.384   6.778
18318WAT      O55195   2.967   8.387   1.167
18318WAT     H155196   2.879   8.376   1.214
18318WAT     H255197   2.989   8.484   1.159
18319WAT      O55198   4.366   1.526   3.143
18319WAT     H155199   4.389   1.566   3.232
18319WAT     H255200   4.382   1.594   3.071
18320WAT      O55201   7.234   3.911   8.890
18320WAT     H155202   7.191   3.990   8.934
18320WAT     H255203   7.201   3.903   8.796
18321WAT      O55204   3.466   7.655   2.841
18321WAT     H155205   3.500   7.740   2.881
18321WAT     H255206   3.403   7.676   2.766
18322WAT      O55207   3.996   3.898   8.766
18322WAT     H155208   4.040   3.847   8.840
18322WAT     H255209   3.993   3.842   8.683
18323WAT      O55210   3.904   3.155   5.769
18323WAT     H155211   3.825   3.096   5.783
18323WAT     H255212   3.986   3.099   5.755
18324WAT      O55213   9.621   4.977   0.516
18324WAT     H155214   9.574   4.890   0.504
18324WAT     H255215   9.556   5.046   0.549
18325WAT      O55216   4.025   3.499   9.097
18325WAT     H155217   3.973   3.518   9.013
18325WAT     H255218   4.118   3.533   9.087
18326WAT      O55219   7.492   9.771   9.786
18326WAT     H155220   7.552   9.780   9.706
18326WAT     H255221   7.484   9.674   9.810
18327WAT      O55222   9.873   9.591   4.924
18327WAT     H155223   9.791   9.606   4.978
18327WAT     H255224   9.884   9.665   4.858
18328WAT      O55225   8.561   8.645   0.541
18328WAT     H155226   8.517   8.680   0.624
18328WAT     H255227   8.498   8.584   0.494
18329WAT      O55228   0.079   5.301   0.737
18329WAT     H155229   0.153   5.271   0.796
18329WAT     H255230   0.104   5.286   0.641
18330WAT      O55231   9.610   7.258   2.390
18330WAT     H155232   9.520   7.301   2.388
18330WAT     H255233   9.681   7.328   2.397
18331WAT      O55234   6.893   6.684   4.475
18331WAT     H155235   6.803   6.668   4.434
18331WAT     H255236   6.906   6.621   4.552
18332WAT      O55237   5.853   2.286   3.913
18332WAT     H155238   5.838   2.294   4.012
18332WAT     H255239   5.855   2.190   3.888
18333WAT      O55240   2.768   8.999   7.116
18333WAT     H155241   2.851   8.954   7.148
18333WAT     H255242   2.701   9.001   7.191
18334WAT      O55243   6.199   1.983   1.880
18334WAT     H155244   6.102   2.003   1.897
18334WAT     H255245   6.216   1.982   1.782
18335WAT      O55246   2.034   1.884   6.263
18335WAT     H155247   1.998   1.831   6.340
18335WAT     H255248   2.057   1.822   6.188
18336WAT      O55249   6.569   4.909   9.160
18336WAT     H155250   6.608   4.989   9.116
18336WAT     H255251   6.537   4.933   9.251
18337WAT      O55252   2.936   0.432   5.718
18337WAT     H155253   2.873   0.361   5.751
18337WAT     H255254   2.885   0.517   5.703
18338WAT      O55255   5.860   6.989   7.823
18338WAT     H155256   5.930   6.931   7.864
18338WAT     H255257   5.822   6.943   7.742
18339WAT      O55258   9.227   6.644   0.325
18339WAT     H155259   9.320   6.673   0.349
18339WAT     H255260   9.207   6.557   0.368
18340WAT      O55261   6.623   0.896   1.642
18340WAT     H155262   6.702   0.914   1.700
18340WAT     H255263   6.612   0.797   1.630
18341WAT      O55264   4.014   6.223   0.583
18341WAT     H155265   3.967   6.288   0.523
18341WAT     H255266   4.080   6.170   0.529
18342WAT      O55267   0.470   0.330   3.820
18342WAT     H155268   0.432   0.345   3.911
18342WAT     H255269   0.484   0.418   3.774
18343WAT      O55270   7.763   4.092   6.166
18343WAT     H155271   7.714   4.177   6.183
18343WAT     H255272   7.713   4.036   6.100
18344WAT      O55273   8.927   5.013   5.890
18344WAT     H155274   8.975   5.061   5.963
18344WAT     H255275   8.860   4.951   5.931
18345WAT      O55276   9.668   2.063   2.293
18345WAT     H155277   9.599   2.121   2.337
18345WAT     H255278   9.653   2.061   2.194
18346WAT      O55279   2.245   5.326   0.009
18346WAT     H155280   2.312   5.252   0.000
18346WAT     H255281   2.250   5.385  -0.071
18347WAT      O55282   8.110   7.855   0.124
18347WAT     H155283   8.062   7.802   0.055
18347WAT     H255284   8.055   7.857   0.208
18348WAT      O55285   9.377   4.614   1.059
18348WAT     H155286   9.327   4.572   1.134
18348WAT     H255287   9.340   4.705   1.040
18349WAT      O55288   7.938   0.118   6.916
18349WAT     H155289   8.000   0.111   6.838
18349WAT     H255290   7.869   0.046   6.910
18350WAT      O55291   0.545   4.712   9.527
18350WAT     H155292   0.455   4.723   9.570
18350WAT     H255293   0.540   4.742   9.432
18351WAT      O55294   3.083   1.278   4.628
18351WAT     H155295   3.031   1.354   4.667
18351WAT     H255296   3.125   1.226   4.703
18352WAT      O55297   3.694   2.230   9.710
18352WAT     H155298   3.771   2.192   9.657
18352WAT     H255299   3.616   2.168   9.703
18353WAT      O55300   8.273   7.502   4.291
18353WAT     H155301   8.175   7.508   4.310
18353WAT     H255302   8.303   7.583   4.241
18354WAT      O55303   2.411   0.713   0.729
18354WAT     H155304   2.409   0.778   0.805
18354WAT     H255305   2.433   0.622   0.764
18355WAT      O55306   6.585   5.657   7.385
18355WAT     H155307   6.539   5.743   7.364
18355WAT     H255308   6.518   5.583   7.385
18356WAT      O55309   3.797   2.780   3.682
18356WAT     H155310   3.789   2.742   3.589
18356WAT     H255311   3.751   2.719   3.746
18357WAT      O55312   3.831   1.296   6.895
18357WAT     H155313   3.852   1.376   6.838
18357WAT     H255314   3.750   1.315   6.950
18358WAT      O55315   7.876   6.467   0.872
18358WAT     H155316   7.843   6.561   0.879
18358WAT     H255317   7.862   6.420   0.960
18359WAT      O55318   7.087   5.387   5.919
18359WAT     H155319   7.052   5.453   5.986
18359WAT     H255320   7.100   5.298   5.963
18360WAT      O55321   8.117   9.018   5.808
18360WAT     H155322   8.049   9.037   5.879
18360WAT     H255323   8.200   8.983   5.851
18361WAT      O55324   0.815   7.524   6.139
18361WAT     H155325   0.785   7.598   6.079
18361WAT     H255326   0.765   7.529   6.226
18362WAT      O55327   0.476   9.473   2.222
18362WAT     H155328   0.540   9.456   2.297
18362WAT     H255329   0.420   9.553   2.243
18363WAT      O55330   5.711   7.386   5.462
18363WAT     H155331   5.641   7.340   5.408
18363WAT     H255332   5.761   7.318   5.516
18364WAT      O55333   9.824   3.688   3.227
18364WAT     H155334   9.880   3.770   3.224
18364WAT     H255335   9.836   3.642   3.315
18365WAT      O55336   5.204   8.626   9.423
18365WAT     H155337   5.259   8.598   9.344
18365WAT     H255338   5.264   8.654   9.497
18366WAT      O55339   6.781   7.282   9.874
18366WAT     H155340   6.789   7.382   9.867
18366WAT     H255341   6.741   7.246   9.790
18367WAT      O55342   3.583   7.770   0.542
18367WAT     H155343   3.532   7.725   0.470
18367WAT     H255344   3.529   7.846   0.578
18368WAT      O55345   5.153   1.070   3.658
18368WAT     H155346   5.196   1.141   3.602
18368WAT     H255347   5.181   0.980   3.625
18369WAT      O55348   2.444   6.633   7.361
18369WAT     H155349   2.428   6.541   7.324
18369WAT     H255350   2.386   6.646   7.441
18370WAT      O55351   3.204   6.446   3.361
18370WAT     H155352   3.194   6.350   3.333
18370WAT     H255353   3.118   6.479   3.399
18371WAT      O55354   3.219   0.688   9.801
18371WAT     H155355   3.174   0.773   9.830
18371WAT     H255356   3.317   0.704   9.793
18372WAT      O55357   2.607   2.113   7.678
18372WAT     H155358   2.638   2.177   7.608
18372WAT     H255359   2.507   2.116   7.683
18373WAT      O55360   5.252   8.193   4.980
18373WAT     H155361   5.282   8.203   4.885
18373WAT     H255362   5.155   8.219   4.987
18374WAT      O55363   2.492   7.059   8.072
18374WAT     H155364   2.481   6.988   8.003
18374WAT     H255365   2.490   7.149   8.028
18375WAT      O55366   2.052   0.133   0.982
18375WAT     H155367   1.963   0.116   0.941
18375WAT     H255368   2.047   0.123   1.081
18376WAT      O55369   1.197   1.296   3.202
18376WAT     H155370   1.274   1.234   3.188
18376WAT     H255371   1.219   1.386   3.164
18377WAT      O55372   7.789   3.146   7.976
18377WAT     H155373   7.699   3.172   7.939
18377WAT     H255374   7.781   3.060   8.026
18378WAT      O55375   3.227   3.022   0.453
18378WAT     H155376   3.158   2.996   0.520
18378WAT     H255377   3.232   2.953   0.381
18379WAT      O55378   8.059   6.248   0.245
18379WAT     H155379   8.134   6.239   0.310
18379WAT     H255380   7.979   6.287   0.291
18380WAT      O55381   7.642   0.189   4.434
18380WAT     H155382   7.687   0.221   4.517
18380WAT     H255383   7.543   0.188   4.448
18381WAT      O55384   8.516   8.654   5.191
18381WAT     H155385   8.428   8.634   5.148
18381WAT     H255386   8.502   8.681   5.286
18382WAT      O55387   1.950   6.027   1.855
18382WAT     H155388   1.911   5.977   1.778
18382WAT     H255389   2.040   5.988   1.878
18383WAT      O55390   9.790   6.872   4.497
18383WAT     H155391   9.771   6.908   4.588
18383WAT     H255392   9.888   6.880   4.478
18384WAT      O55393   3.725   5.155   5.774
18384WAT     H155394   3.696   5.203   5.856
18384WAT     H255395   3.755   5.063   5.798
18385WAT      O55396   3.561   7.245   7.641
18385WAT     H155397   3.471   7.287   7.647
18385WAT     H255398   3.577   7.190   7.723
18386WAT      O55399   8.495   3.241   5.501
18386WAT     H155400   8.483   3.339   5.484
18386WAT     H255401   8.592   3.221   5.516
18387WAT      O55402   5.369   6.335   0.480
18387WAT     H155403   5.337   6.325   0.385
18387WAT     H255404   5.394   6.430   0.496
18388WAT      O55405   0.804   9.287   1.262
18388WAT     H155406   0.872   9.298   1.189
18388WAT     H255407   0.716   9.322   1.230
18389WAT      O55408   9.262   4.906   0.400
18389WAT     H155409   9.191   4.915   0.470
18389WAT     H255410   9.294   4.996   0.373
18390WAT      O55411   7.830   2.784   5.305
18390WAT     H155412   7.823   2.770   5.404
18390WAT     H255413   7.816   2.881   5.285
18391WAT      O55414   7.690   2.045   8.707
18391WAT     H155415   7.628   2.054   8.785
18391WAT     H255416   7.784   2.052   8.739
18392WAT      O55417   5.906   3.397   0.646
18392WAT     H155418   5.837   3.345   0.596
18392WAT     H255419   5.991   3.345   0.651
18393WAT      O55420   4.372   5.611   6.264
18393WAT     H155421   4.447   5.668   6.230
18393WAT     H255422   4.408   5.524   6.297
18394WAT      O55423   8.011   2.183   4.362
18394WAT     H155424   8.069   2.103   4.348
18394WAT     H255425   8.033   2.253   4.294
18395WAT      O55426   4.045   6.293   3.340
18395WAT     H155427   3.999   6.382   3.340
18395WAT     H255428   4.022   6.243   3.257
18396WAT      O55429   9.508   0.028   5.157
18396WAT     H155430   9.462   0.083   5.087
18396WAT     H255431   9.575   0.085   5.205
18397WAT      O55432   8.585   6.375   3.529
18397WAT     H155433   8.580   6.407   3.434
18397WAT     H255434   8.640   6.292   3.533
18398WAT      O55435   8.191   1.798   3.418
18398WAT     H155436   8.144   1.845   3.342
18398WAT     H255437   8.138   1.718   3.444
18399WAT      O55438   3.347   1.800   3.705
18399WAT     H155439   3.285   1.848   3.766
18399WAT     H255440   3.321   1.817   3.610
18400WAT      O55441   7.597   0.277   2.700
18400WAT     H155442   7.672   0.242   2.645
18400WAT     H255443   7.540   0.337   2.644
18401WAT      O55444   5.862   8.591   9.349
18401WAT     H155445   5.800   8.646   9.292
18401WAT     H255446   5.933   8.551   9.291
18402WAT      O55447   2.986   0.380   7.194
18402WAT     H155448   3.020   0.474   7.188
18402WAT     H255449   3.062   0.316   7.189
18403WAT      O55450   3.344   2.695   7.422
18403WAT     H155451   3.250   2.706   7.391
18403WAT     H255452   3.385   2.784   7.439
18404WAT      O55453   0.599   7.151   2.721
18404WAT     H155454   0.558   7.069   2.681
18404WAT     H255455   0.635   7.130   2.812
18405WAT      O55456   2.115   6.514   4.187
18405WAT     H155457   2.130   6.578   4.263
18405WAT     H255458   2.019   6.489   4.183
18406WAT      O55459   4.109   5.468   2.549
18406WAT     H155460   4.069   5.376   2.558
18406WAT     H255461   4.143   5.481   2.456
18407WAT      O55462   3.942   0.027   6.277
18407WAT     H155463   3.950  -0.016   6.188
18407WAT     H255464   3.891   0.113   6.268
18408WAT      O55465   0.419   2.739   8.355
18408WAT     H155466   0.328   2.768   8.326
18408WAT     H255467   0.484   2.747   8.279
18409WAT      O55468   1.502   7.993   3.993
18409WAT     H155469   1.569   7.920   4.006
18409WAT     H255470   1.550   8.081   3.983
18410WAT      O55471   9.814   1.390   9.340
18410WAT     H155472   9.723   1.371   9.378
18410WAT     H255473   9.876   1.418   9.413
18411WAT      O55474   0.551   5.006   3.486
18411WAT     H155475   0.510   5.096   3.475
18411WAT     H255476   0.569   4.966   3.396
18412WAT      O55477   9.544   0.999   0.238
18412WAT     H155478   9.563   0.934   0.165
18412WAT     H255479   9.489   0.955   0.309
18413WAT      O55480   8.850   2.461   6.039
18413WAT     H155481   8.900   2.488   5.957
18413WAT     H255482   8.777   2.527   6.057
18414WAT      O55483   3.662   1.649   5.401
18414WAT     H155484   3.576   1.630   5.352
18414WAT     H255485   3.641   1.690   5.489
18415WAT      O55486   1.436   9.116   0.238
18415WAT     H155487   1.428   9.151   0.145
18415WAT     H255488   1.391   9.179   0.302
18416WAT      O55489   1.548   3.403   9.257
18416WAT     H155490   1.504   3.314   9.268
18416WAT     H255491   1.567   3.418   9.160
18417WAT      O55492   2.411   2.238   9.839
18417WAT     H155493   2.380   2.143   9.835
18417WAT     H255494   2.466   2.252   9.921
18418WAT      O55495   2.817   7.602   9.104
18418WAT     H155496   2.897   7.547   9.078
18418WAT     H255497   2.778   7.643   9.022
18419WAT      O55498   4.802   0.667   4.051
18419WAT     H155499   4.776   0.616   4.133
18419WAT     H255500   4.749   0.634   3.973
18420WAT      O55501   3.564   5.007   4.498
18420WAT     H155502   3.554   5.043   4.405
18420WAT     H255503   3.560   5.083   4.563
18421WAT      O55504   5.563   4.343   3.767
18421WAT     H155505   5.508   4.341   3.850
18421WAT     H255506   5.574   4.438   3.736
18422WAT      O55507   6.061   3.703   6.853
18422WAT     H155508   6.059   3.620   6.797
18422WAT     H255509   6.092   3.780   6.797
18423WAT      O55510   8.931   4.966   5.161
18423WAT     H155511   8.845   4.945   5.114
18423WAT     H255512   8.950   4.894   5.228
18424WAT      O55513   9.068   8.595   8.586
18424WAT     H155514   9.147   8.539   8.562
18424WAT     H255515   9.099   8.683   8.622
18425WAT      O55516   2.613   9.503   8.033
18425WAT     H155517   2.578   9.428   8.088
18425WAT     H255518   2.568   9.588   8.060
18426WAT      O55519   1.243   4.222   2.956
18426WAT     H155520   1.157   4.261   2.988
18426WAT     H255521   1.311   4.224   3.029
18427WAT      O55522   0.293   7.698   2.143
18427WAT     H155523   0.369   7.752   2.180
18427WAT     H255524   0.249   7.748   2.069
18428WAT      O55525   0.862   8.501   6.510
18428WAT     H155526   0.960   8.487   6.492
18428WAT     H255527   0.825   8.420   6.556
18429WAT      O55528   9.591   1.412   8.090
18429WAT     H155529   9.528   1.404   8.167
18429WAT     H255530   9.673   1.463   8.118
18430WAT      O55531   3.262   4.194   4.918
18430WAT     H155532   3.339   4.237   4.872
18430WAT     H255533   3.292   4.158   5.006
18431WAT      O55534   2.832   8.713   8.327
18431WAT     H155535   2.788   8.802   8.315
18431WAT     H255536   2.778   8.659   8.392
18432WAT      O55537   2.490   6.923   8.426
18432WAT     H155538   2.446   6.884   8.507
18432WAT     H255539   2.470   7.021   8.420
18433WAT      O55540   7.543   6.465   4.898
18433WAT     H155541   7.516   6.368   4.902
18433WAT     H255542   7.528   6.507   4.988
18434WAT      O55543   2.904   7.016   0.466
18434WAT     H155544   2.907   6.946   0.537
18434WAT     H255545   2.859   6.979   0.384
18435WAT      O55546   5.353   5.550   1.198
18435WAT     H155547   5.446   5.548   1.236
18435WAT     H255548   5.350   5.615   1.123
18436WAT      O55549   8.475   6.724   7.540
18436WAT     H155550   8.544   6.770   7.597
18436WAT     H255551   8.496   6.739   7.443
18437WAT      O55552   9.134   8.860   2.157
18437WAT     H155553   9.216   8.863   2.215
18437WAT     H255554   9.119   8.950   2.116
18438WAT      O55555   9.056   3.069   7.739
18438WAT     H155556   8.972   3.069   7.685
18438WAT     H255557   9.041   3.017   7.823
18439WAT      O55558   4.695   5.154   1.207
18439WAT     H155559   4.672   5.059   1.190
18439WAT     H255560   4.772   5.181   1.148
18440WAT      O55561   0.677   9.519   0.573
18440WAT     H155562   0.648   9.468   0.493
18440WAT     H255563   0.765   9.563   0.555
18441WAT      O55564   7.768   2.194   5.815
18441WAT     H155565   7.776   2.154   5.724
18441WAT     H255566   7.677   2.235   5.825
18442WAT      O55567   6.505   6.259   5.328
18442WAT     H155568   6.419   6.310   5.318
18442WAT     H255569   6.524   6.244   5.425
18443WAT      O55570   7.731   2.589   5.747
18443WAT     H155571   7.690   2.531   5.817
18443WAT     H255572   7.818   2.549   5.718
18444WAT      O55573   6.051   7.853   4.937
18444WAT     H155574   6.021   7.838   4.843
18444WAT     H255575   6.016   7.780   4.995
18445WAT      O55576   8.127   6.013   2.161
18445WAT     H155577   8.052   6.062   2.206
18445WAT     H255578   8.211   6.025   2.214
18446WAT      O55579   5.954   3.734   1.787
18446WAT     H155580   5.942   3.649   1.735
18446WAT     H255581   6.051   3.749   1.804
18447WAT      O55582   2.955   0.930   9.663
18447WAT     H155583   2.935   1.014   9.613
18447WAT     H255584   2.885   0.915   9.733
18448WAT      O55585   9.568   4.370   0.669
18448WAT     H155586   9.611   4.409   0.750
18448WAT     H255587   9.530   4.280   0.691
18449WAT      O55588   4.145   4.694   2.052
18449WAT     H155589   4.209   4.763   2.085
18449WAT     H255590   4.094   4.656   2.129
18450WAT      O55591   1.842   1.220   1.209
18450WAT     H155592   1.907   1.155   1.248
18450WAT     H255593   1.836   1.301   1.268
18451WAT      O55594   7.080   4.925   1.728
18451WAT     H155595   6.995   4.941   1.778
18451WAT     H255596   7.087   4.991   1.653
18452WAT      O55597   7.599   3.976   5.949
18452WAT     H155598   7.552   4.049   5.898
18452WAT     H255599   7.536   3.936   6.016
18453WAT      O55600   7.836   5.238   3.517
18453WAT     H155601   7.807   5.329   3.490
18453WAT     H255602   7.779   5.206   3.593
18454WAT      O55603   3.362   0.225   5.727
18454WAT     H155604   3.268   0.211   5.696
18454WAT     H255605   3.406   0.294   5.669
18455WAT      O55606   1.585   9.529   7.908
18455WAT     H155607   1.615   9.446   7.956
18455WAT     H255608   1.485   9.534   7.911
18456WAT      O55609   8.830   8.456   3.698
18456WAT     H155610   8.803   8.392   3.770
18456WAT     H255611   8.790   8.546   3.716
18457WAT      O55612  -0.003   4.705   5.295
18457WAT     H155613   0.047   4.765   5.232
18457WAT     H255614   0.057   4.630   5.323
18458WAT      O55615   7.023   4.153   1.849
18458WAT     H155616   7.057   4.204   1.770
18458WAT     H255617   6.960   4.211   1.901
18459WAT      O55618   2.204   1.071   9.746
18459WAT     H155619   2.109   1.073   9.713
18459WAT     H255620   2.211   1.002   9.819
18460WAT      O55621   1.659   2.715   4.747
18460WAT     H155622   1.720   2.794   4.742
18460WAT     H255623   1.567   2.742   4.718
18461WAT      O55624   5.388   5.312   1.891
18461WAT     H155625   5.327   5.291   1.814
18461WAT     H255626   5.351   5.390   1.942
18462WAT      O55627   7.719   5.102   5.573
18462WAT     H155628   7.669   5.076   5.656
18462WAT     H255629   7.737   5.200   5.574
18463WAT      O55630   3.336   1.024   7.648
18463WAT     H155631   3.272   0.965   7.697
18463WAT     H255632   3.337   1.000   7.551
18464WAT      O55633   4.260   3.356   6.657
18464WAT     H155634   4.222   3.269   6.690
18464WAT     H255635   4.342   3.338   6.603
18465WAT      O55636   8.847   0.298   5.036
18465WAT     H155637   8.865   0.369   5.106
18465WAT     H255638   8.764   0.322   4.986
18466WAT      O55639   5.017   8.830   9.641
18466WAT     H155640   5.022   8.756   9.575
18466WAT     H255641   5.080   8.903   9.614
18467WAT      O55642   1.052   2.912   1.350
18467WAT     H155643   0.954   2.930   1.360
18467WAT     H255644   1.076   2.831   1.403
18468WAT      O55645   4.149   8.655   3.752
18468WAT     H155646   4.125   8.712   3.831
18468WAT     H255647   4.129   8.559   3.773
18469WAT      O55648   1.981   6.686   3.424
18469WAT     H155649   1.916   6.665   3.497
18469WAT     H255650   1.986   6.785   3.412
18470WAT      O55651   5.473   4.889   7.693
18470WAT     H155652   5.501   4.795   7.675
18470WAT     H255653   5.513   4.950   7.624
18471WAT      O55654   1.780   6.623   6.102
18471WAT     H155655   1.703   6.561   6.089
18471WAT     H255656   1.835   6.627   6.018
18472WAT      O55657   9.050   2.261   7.806
18472WAT     H155658   9.113   2.227   7.736
18472WAT     H255659   8.956   2.255   7.771
18473WAT      O55660   6.881   8.848   3.890
18473WAT     H155661   6.861   8.776   3.956
18473WAT     H255662   6.980   8.861   3.884
18474WAT      O55663   5.623   3.156   5.484
18474WAT     H155664   5.688   3.225   5.517
18474WAT     H255665   5.534   3.198   5.470
18475WAT      O55666   6.021   8.458   9.851
18475WAT     H155667   5.995   8.387   9.785
18475WAT     H255668   5.943   8.478   9.910
18476WAT      O55669   3.103   8.210   8.619
18476WAT     H155670   3.113   8.303   8.583
18476WAT     H255671   3.192   8.166   8.623
18477WAT      O55672   0.244   5.304   1.970
18477WAT     H155673   0.279   5.384   1.922
18477WAT     H255674   0.318   5.237   1.980
18478WAT      O55675   9.877   4.977   5.753
18478WAT     H155676   9.780   4.959   5.740
18478WAT     H255677   9.931   4.907   5.706
18479WAT      O55678   9.252   5.072   6.171
18479WAT     H155679   9.302   5.136   6.113
18479WAT     H255680   9.155   5.093   6.167
18480WAT      O55681   0.789   4.453   8.531
18480WAT     H155682   0.761   4.504   8.613
18480WAT     H255683   0.714   4.394   8.502
18481WAT      O55684   3.376   2.382   5.637
18481WAT     H155685   3.291   2.331   5.626
18481WAT     H255686   3.441   2.328   5.690
18482WAT      O55687   0.482   4.597   2.424
18482WAT     H155688   0.455   4.683   2.380
18482WAT     H255689   0.543   4.546   2.363
18483WAT      O55690   6.147   0.877   7.974
18483WAT     H155691   6.137   0.800   8.038
18483WAT     H255692   6.122   0.847   7.882
18484WAT      O55693   5.941   9.234   1.284
18484WAT     H155694   5.980   9.324   1.268
18484WAT     H255695   5.939   9.183   1.198
18485WAT      O55696   9.537   9.620   8.902
18485WAT     H155697   9.633   9.595   8.915
18485WAT     H255698   9.490   9.550   8.849
18486WAT      O55699   1.792   2.220   0.611
18486WAT     H155700   1.710   2.228   0.668
18486WAT     H255701   1.766   2.223   0.515
18487WAT      O55702   5.745   2.315   2.159
18487WAT     H155703   5.665   2.275   2.204
18487WAT     H255704   5.787   2.383   2.219
18488WAT      O55705   6.122   6.758   4.049
18488WAT     H155706   6.217   6.733   4.069
18488WAT     H255707   6.084   6.810   4.125
18489WAT      O55708   9.854   8.755   2.620
18489WAT     H155709   9.930   8.820   2.624
18489WAT     H255710   9.886   8.670   2.578
18490WAT      O55711   4.946   1.537   0.740
18490WAT     H155712   4.882   1.495   0.676
18490WAT     H255713   4.937   1.637   0.735
18491WAT      O55714   4.425   7.290   5.899
18491WAT     H155715   4.508   7.292   5.954
18491WAT     H255716   4.447   7.312   5.804
18492WAT      O55717   0.782   3.585   2.760
18492WAT     H155718   0.784   3.622   2.667
18492WAT     H255719   0.812   3.490   2.759
18493WAT      O55720   6.620   3.646   2.733
18493WAT     H155721   6.612   3.563   2.788
18493WAT     H255722   6.674   3.627   2.652
18494WAT      O55723   2.263   6.542   8.355
18494WAT     H155724   2.303   6.572   8.442
18494WAT     H255725   2.167   6.569   8.351
18495WAT      O55726   3.445   2.730   6.197
18495WAT     H155727   3.397   2.703   6.281
18495WAT     H255728   3.514   2.661   6.175
18496WAT      O55729   1.307   5.058   5.394
18496WAT     H155730   1.313   5.010   5.307
18496WAT     H255731   1.211   5.071   5.420
18497WAT      O55732   2.885   9.538   8.034
18497WAT     H155733   2.943   9.471   8.078
18497WAT     H255734   2.790   9.525   8.063
18498WAT      O55735   0.427   5.323   6.746
18498WAT     H155736   0.383   5.350   6.831
18498WAT     H255737   0.516   5.368   6.739
18499WAT      O55738   8.295   2.336   8.209
18499WAT     H155739   8.394   2.343   8.194
18499WAT     H255740   8.247   2.393   8.142
18500WAT      O55741   7.627   4.005   0.873
18500WAT     H155742   7.665   4.087   0.917
18500WAT     H255743   7.560   3.963   0.935
18501WAT      O55744   2.158   7.826   4.343
18501WAT     H155745   2.121   7.746   4.389
18501WAT     H255746   2.113   7.908   4.378
18502WAT      O55747   4.417   7.553   3.269
18502WAT     H155748   4.497   7.548   3.328
18502WAT     H255749   4.394   7.461   3.236
18503WAT      O55750   2.786   7.489   4.897
18503WAT     H155751   2.763   7.392   4.887
18503WAT     H255752   2.749   7.540   4.819
18504WAT      O55753   1.043   8.483   5.337
18504WAT     H155754   1.135   8.490   5.377
18504WAT     H255755   1.003   8.574   5.329
18505WAT      O55756   4.493   0.254   8.785
18505WAT     H155757   4.502   0.224   8.690
18505WAT     H255758   4.491   0.354   8.789
18506WAT      O55759   3.659   7.294   4.535
18506WAT     H155760   3.587   7.229   4.513
18506WAT     H255761   3.722   7.302   4.457
18507WAT      O55762   5.606   5.032   9.706
18507WAT     H155763   5.631   4.937   9.721
18507WAT     H255764   5.547   5.063   9.781
18508WAT      O55765   7.158   6.371   2.070
18508WAT     H155766   7.110   6.453   2.039
18508WAT     H255767   7.114   6.290   2.030
18509WAT      O55768   8.059   0.586   5.803
18509WAT     H155769   8.104   0.608   5.716
18509WAT     H255770   8.122   0.606   5.878
18510WAT      O55771   5.842   7.332   3.081
18510WAT     H155772   5.783   7.270   3.131
18510WAT     H255773   5.786   7.402   3.036
18511WAT      O55774   2.278   2.778   1.876
18511WAT     H155775   2.196   2.819   1.916
18511WAT     H255776   2.255   2.739   1.786
18512WAT      O55777   1.927   6.311   0.546
18512WAT     H155778   1.873   6.376   0.492
18512WAT     H255779   2.017   6.349   0.565
18513WAT      O55780   9.454   3.932   3.244
18513WAT     H155781   9.525   3.865   3.222
18513WAT     H255782   9.387   3.936   3.170
18514WAT      O55783   6.216   7.681   9.091
18514WAT     H155784   6.254   7.606   9.037
18514WAT     H255785   6.280   7.758   9.092
18515WAT      O55786   4.495   7.216   5.145
18515WAT     H155787   4.398   7.209   5.167
18515WAT     H255788   4.528   7.308   5.165
18516WAT      O55789   1.119   6.721   7.639
18516WAT     H155790   1.169   6.805   7.615
18516WAT     H255791   1.066   6.690   7.560
18517WAT      O55792   4.485   9.123   3.494
18517WAT     H155793   4.447   9.114   3.586
18517WAT     H255794   4.573   9.170   3.499
18518WAT      O55795   0.451   8.755   8.672
18518WAT     H155796   0.476   8.704   8.589
18518WAT     H255797   0.530   8.761   8.733
18519WAT      O55798   0.732   0.417   5.108
18519WAT     H155799   0.668   0.414   5.185
18519WAT     H255800   0.747   0.512   5.081
18520WAT      O55801   9.123   5.044   6.975
18520WAT     H155802   9.121   5.037   7.075
18520WAT     H255803   9.166   5.130   6.948
18521WAT      O55804   0.409   8.141   3.892
18521WAT     H155805   0.360   8.054   3.893
18521WAT     H255806   0.369   8.203   3.960
18522WAT      O55807   9.211   5.917   8.012
18522WAT     H155808   9.161   5.968   8.082
18522WAT     H255809   9.304   5.952   8.006
18523WAT      O55810   3.681   0.129   6.869
18523WAT     H155811   3.622   0.186   6.812
18523WAT     H255812   3.650   0.133   6.964
18524WAT      O55813   1.616   9.636   2.601
18524WAT     H155814   1.714   9.617   2.608
18524WAT     H255815   1.581   9.598   2.515
18525WAT      O55816   9.549   5.547   1.247
18525WAT     H155817   9.605   5.501   1.317
18525WAT     H255818   9.609   5.599   1.186
18526WAT      O55819   1.656   3.204   9.523
18526WAT     H155820   1.637   3.235   9.616
18526WAT     H255821   1.571   3.205   9.470
18527WAT      O55822   4.115   6.904   1.578
18527WAT     H155823   4.213   6.903   1.561
18527WAT     H255824   4.066   6.910   1.490
18528WAT      O55825   6.926   9.147   3.813
18528WAT     H155826   7.022   9.134   3.838
18528WAT     H255827   6.898   9.074   3.751
18529WAT      O55828   7.401   7.205   4.931
18529WAT     H155829   7.492   7.217   4.971
18529WAT     H255830   7.356   7.127   4.975
18530WAT      O55831   3.796   5.071   9.311
18530WAT     H155832   3.870   5.134   9.287
18530WAT     H255833   3.815   4.980   9.273
18531WAT      O55834   1.338   0.538   7.742
18531WAT     H155835   1.427   0.550   7.699
18531WAT     H255836   1.270   0.516   7.672
18532WAT      O55837   8.454   7.691   6.766
18532WAT     H155838   8.549   7.661   6.777
18532WAT     H255839   8.394   7.611   6.768
18533WAT      O55840   0.314   5.604   6.737
18533WAT     H155841   0.275   5.514   6.721
18533WAT     H255842   0.379   5.600   6.812
18534WAT      O55843   2.054   3.966   5.005
18534WAT     H155844   2.022   3.903   5.076
18534WAT     H255845   2.137   4.011   5.035
18535WAT      O55846   7.701   8.371   0.279
18535WAT     H155847   7.635   8.423   0.225
18535WAT     H255848   7.699   8.275   0.251
18536WAT      O55849   4.736   2.475   2.352
18536WAT     H155850   4.818   2.447   2.302
18536WAT     H255851   4.681   2.536   2.295
18537WAT      O55852   5.113   8.170   7.272
18537WAT     H155853   5.135   8.259   7.312
18537WAT     H255854   5.062   8.184   7.187
18538WAT      O55855   6.951   1.054   3.741
18538WAT     H155856   7.031   0.995   3.725
18538WAT     H255857   6.978   1.150   3.732
18539WAT      O55858   8.167   5.155   2.841
18539WAT     H155859   8.154   5.080   2.906
18539WAT     H255860   8.078   5.196   2.819
18540WAT      O55861   3.607   4.160   3.948
18540WAT     H155862   3.618   4.188   3.852
18540WAT     H255863   3.509   4.153   3.969
18541WAT      O55864   2.391   1.595   1.701
18541WAT     H155865   2.307   1.555   1.664
18541WAT     H255866   2.445   1.634   1.626
18542WAT      O55867   9.556   6.648   4.034
18542WAT     H155868   9.645   6.676   4.001
18542WAT     H255869   9.535   6.556   4.001
18543WAT      O55870   9.294   0.883   5.173
18543WAT     H155871   9.291   0.787   5.201
18543WAT     H255872   9.347   0.936   5.239
18544WAT      O55873   3.161   5.614   8.552
18544WAT     H155874   3.258   5.636   8.552
18544WAT     H255875   3.115   5.665   8.625
18545WAT      O55876   1.775   5.571   0.323
18545WAT     H155877   1.682   5.569   0.361
18545WAT     H255878   1.828   5.495   0.361
18546WAT      O55879   3.345   1.601   1.610
18546WAT     H155880   3.364   1.530   1.678
18546WAT     H255881   3.386   1.687   1.639
18547WAT      O55882   8.157   3.570   2.459
18547WAT     H155883   8.143   3.636   2.386
18547WAT     H255884   8.072   3.556   2.509
18548WAT      O55885   9.730   9.050   9.704
18548WAT     H155886   9.683   9.103   9.775
18548WAT     H255887   9.705   8.954   9.713
18549WAT      O55888   7.151   2.039   2.822
18549WAT     H155889   7.218   2.091   2.874
18549WAT     H255890   7.156   1.942   2.847
18550WAT      O55891   7.649   7.381   1.483
18550WAT     H155892   7.567   7.329   1.503
18550WAT     H255893   7.695   7.406   1.569
18551WAT      O55894   7.872   2.279   8.815
18551WAT     H155895   7.945   2.314   8.755
18551WAT     H255896   7.899   2.190   8.852
18552WAT      O55897   9.715   7.992   2.821
18552WAT     H155898   9.739   7.930   2.747
18552WAT     H255899   9.706   8.085   2.786
18553WAT      O55900   1.895   8.864   6.798
18553WAT     H155901   1.826   8.925   6.836
18553WAT     H255902   1.852   8.779   6.767
18554WAT      O55903   7.375   0.953   5.977
18554WAT     H155904   7.346   1.026   5.916
18554WAT     H255905   7.454   0.983   6.030
18555WAT      O55906   3.475   5.195   9.660
18555WAT     H155907   3.499   5.102   9.690
18555WAT     H255908   3.556   5.253   9.662
18556WAT      O55909   4.317   4.626   5.244
18556WAT     H155910   4.403   4.595   5.285
18556WAT     H255911   4.327   4.629   5.145
18557WAT      O55912   9.517   4.184   2.662
18557WAT     H155913   9.551   4.278   2.652
18557WAT     H255914   9.586   4.128   2.708
18558WAT      O55915   0.972   7.554   6.714
18558WAT     H155916   1.033   7.478   6.736
18558WAT     H255917   1.018   7.617   6.652
18559WAT      O55918   7.940   2.700   9.759
18559WAT     H155919   7.912   2.659   9.846
18559WAT     H255920   7.995   2.634   9.708
18560WAT      O55921   9.437   8.585   9.005
18560WAT     H155922   9.406   8.654   9.070
18560WAT     H255923   9.428   8.494   9.047
18561WAT      O55924   7.330   5.481   3.514
18561WAT     H155925   7.352   5.567   3.468
18561WAT     H255926   7.230   5.472   3.521
18562WAT      O55927   1.810   9.571   5.633
18562WAT     H155928   1.770   9.601   5.546
18562WAT     H255929   1.783   9.634   5.705
18563WAT      O55930   1.496   5.338   9.274
18563WAT     H155931   1.588   5.325   9.311
18563WAT     H255932   1.459   5.249   9.245
18564WAT      O55933   0.154   3.753   7.387
18564WAT     H155934   0.077   3.725   7.331
18564WAT     H255935   0.153   3.853   7.398
18565WAT      O55936   5.343   6.726   3.973
18565WAT     H155937   5.413   6.787   4.009
18565WAT     H255938   5.298   6.678   4.048
18566WAT      O55939   3.241   0.420   9.217
18566WAT     H155940   3.246   0.507   9.265
18566WAT     H255941   3.242   0.436   9.118
18567WAT      O55942   7.929   5.043   6.538
18567WAT     H155943   8.003   4.975   6.538
18567WAT     H255944   7.951   5.116   6.473
18568WAT      O55945   7.644   1.817   5.294
18568WAT     H155946   7.562   1.770   5.327
18568WAT     H255947   7.705   1.835   5.370
18569WAT      O55948   5.662   5.593   7.798
18569WAT     H155949   5.715   5.678   7.787
18569WAT     H255950   5.594   5.605   7.870
18570WAT      O55951   8.274   4.896   1.909
18570WAT     H155952   8.174   4.896   1.904
18570WAT     H255953   8.303   4.942   1.993
18571WAT      O55954   1.062   2.546   5.752
18571WAT     H155955   1.023   2.631   5.786
18571WAT     H255956   0.998   2.471   5.770
18572WAT      O55957   4.758   2.011   1.454
18572WAT     H155958   4.660   1.993   1.443
18572WAT     H255959   4.783   2.092   1.401
18573WAT      O55960   1.190   1.573   2.030
18573WAT     H155961   1.139   1.547   2.113
18573WAT     H255962   1.284   1.540   2.037
18574WAT      O55963   0.945   3.401   2.046
18574WAT     H155964   0.933   3.337   2.121
18574WAT     H255965   0.875   3.472   2.051
18575WAT      O55966   0.741   7.797   9.701
18575WAT     H155967   0.735   7.699   9.719
18575WAT     H255968   0.683   7.847   9.766
18576WAT      O55969   1.638   6.928   0.257
18576WAT     H155970   1.648   6.955   0.161
18576WAT     H255971   1.638   7.009   0.315
18577WAT      O55972   1.091   0.936   0.528
18577WAT     H155973   1.111   0.902   0.620
18577WAT     H255974   0.999   0.974   0.526
18578WAT      O55975   6.821   6.012   1.185
18578WAT     H155976   6.761   6.032   1.263
18578WAT     H255977   6.908   5.976   1.219
18579WAT      O55978   6.032   3.785   0.775
18579WAT     H155979   6.084   3.740   0.848
18579WAT     H255980   6.089   3.854   0.731
18580WAT      O55981   1.452   5.400   8.854
18580WAT     H155982   1.397   5.427   8.933
18580WAT     H255983   1.484   5.482   8.806
18581WAT      O55984   3.194   3.216   9.488
18581WAT     H155985   3.174   3.291   9.425
18581WAT     H255986   3.269   3.243   9.549
18582WAT      O55987   7.247   3.709   4.976
18582WAT     H155988   7.249   3.648   4.897
18582WAT     H255989   7.302   3.671   5.050
18583WAT      O55990   3.797   2.657   5.499
18583WAT     H155991   3.876   2.719   5.501
18583WAT     H255992   3.828   2.564   5.519
18584WAT      O55993   2.261   8.479   1.408
18584WAT     H155994   2.194   8.512   1.342
18584WAT     H255995   2.306   8.397   1.372
18585WAT      O55996   2.807   6.847   4.790
18585WAT     H155997   2.887   6.786   4.791
18585WAT     H255998   2.829   6.930   4.840
18586WAT      O55999   8.528   8.249   8.269
18586WAT     H156000   8.585   8.331   8.281
18586WAT     H256001   8.549   8.183   8.341
18587WAT      O56002   6.519   7.853   5.947
18587WAT     H156003   6.533   7.785   5.875
18587WAT     H256004   6.421   7.858   5.969
18588WAT      O56005   5.676   6.750   5.902
18588WAT     H156006   5.729   6.833   5.886
18588WAT     H256007   5.711   6.677   5.844
18589WAT      O56008   9.613   2.751   0.278
18589WAT     H156009   9.531   2.693   0.274
18589WAT     H256010   9.599   2.823   0.346
18590WAT      O56011   1.630   4.758   9.031
18590WAT     H156012   1.695   4.727   9.101
18590WAT     H256013   1.620   4.857   9.035
18591WAT      O56014   3.965   4.855   8.839
18591WAT     H156015   3.868   4.845   8.860
18591WAT     H256016   4.006   4.765   8.823
18592WAT      O56017   4.659   0.620   4.756
18592WAT     H156018   4.583   0.679   4.782
18592WAT     H256019   4.745   0.664   4.782
18593WAT      O56020   1.740   7.209   6.297
18593WAT     H156021   1.685   7.160   6.229
18593WAT     H256022   1.730   7.165   6.386
18594WAT      O56023   3.414   9.698   2.668
18594WAT     H156024   3.355   9.764   2.621
18594WAT     H256025   3.405   9.710   2.767
18595WAT      O56026   3.450   0.640   4.559
18595WAT     H156027   3.372   0.700   4.539
18595WAT     H256028   3.486   0.661   4.649
18596WAT      O56029   5.501   6.138   6.900
18596WAT     H156030   5.490   6.039   6.906
18596WAT     H256031   5.522   6.175   6.990
18597WAT      O56032   5.839   8.848   0.331
18597WAT     H156033   5.837   8.795   0.247
18597WAT     H256034   5.768   8.815   0.393
18598WAT      O56035   7.658   4.350   4.940
18598WAT     H156036   7.741   4.301   4.968
18598WAT     H256037   7.674   4.394   4.852
18599WAT      O56038   9.790   1.310   0.858
18599WAT     H156039   9.760   1.222   0.822
18599WAT     H256040   9.873   1.339   0.810
18600WAT      O56041   9.729   3.912   1.913
18600WAT     H156042   9.635   3.877   1.909
18600WAT     H256043   9.793   3.837   1.893
18601WAT      O56044   9.170   3.371   8.030
18601WAT     H156045   9.097   3.403   8.090
18601WAT     H256046   9.236   3.318   8.084
18602WAT      O56047   7.842   6.487   7.711
18602WAT     H156048   7.924   6.485   7.769
18602WAT     H256049   7.813   6.582   7.698
18603WAT      O56050   3.182   2.286   3.200
18603WAT     H156051   3.156   2.374   3.239
18603WAT     H256052   3.101   2.238   3.166
18604WAT      O56053   7.803   6.041   8.072
18604WAT     H156054   7.816   6.134   8.107
18604WAT     H256055   7.881   5.984   8.099
18605WAT      O56056   7.881   4.462   6.623
18605WAT     H156057   7.964   4.517   6.616
18605WAT     H256058   7.866   4.438   6.718
18606WAT      O56059   0.751   4.817   0.716
18606WAT     H156060   0.659   4.812   0.754
18606WAT     H256061   0.788   4.725   0.705
18607WAT      O56062   6.394   3.098   1.446
18607WAT     H156063   6.472   3.147   1.487
18607WAT     H256064   6.406   3.094   1.347
18608WAT      O56065   0.569   0.245   0.350
18608WAT     H156066   0.515   0.246   0.265
18608WAT     H256067   0.623   0.161   0.352
18609WAT      O56068   1.228   7.870   2.972
18609WAT     H156069   1.188   7.961   2.979
18609WAT     H256070   1.327   7.878   2.963
18610WAT      O56071   9.040   8.655   0.721
18610WAT     H156072   9.053   8.651   0.820
18610WAT     H256073   8.947   8.624   0.699
18611WAT      O56074   3.867   6.574   2.698
18611WAT     H156075   3.906   6.500   2.753
18611WAT     H256076   3.827   6.537   2.614
18612WAT      O56077   3.230   2.590   4.084
18612WAT     H156078   3.205   2.538   4.166
18612WAT     H256079   3.316   2.555   4.048
18613WAT      O56080   0.391   7.604   2.465
18613WAT     H156081   0.432   7.514   2.453
18613WAT     H256082   0.392   7.629   2.562
18614WAT      O56083   5.623   9.035   3.355
18614WAT     H156084   5.639   8.937   3.353
18614WAT     H256085   5.650   9.072   3.444
18615WAT      O56086   6.302   2.326   9.099
18615WAT     H156087   6.285   2.401   9.163
18615WAT     H256088   6.269   2.240   9.139
18616WAT      O56089   0.760   4.688   0.050
18616WAT     H156090   0.839   4.645   0.008
18616WAT     H256091   0.771   4.691   0.149
18617WAT      O56092   4.966   3.682   1.150
18617WAT     H156093   5.066   3.674   1.147
18617WAT     H256094   4.927   3.646   1.065
18618WAT      O56095   9.587   6.484   7.963
18618WAT     H156096   9.673   6.535   7.967
18618WAT     H256097   9.538   6.493   8.050
18619WAT      O56098   6.841   4.836   4.593
18619WAT     H156099   6.861   4.841   4.691
18619WAT     H256100   6.785   4.914   4.566
18620WAT      O56101   1.887   8.272   0.189
18620WAT     H156102   1.914   8.289   0.284
18620WAT     H256103   1.922   8.183   0.160
18621WAT      O56104   2.772   6.628   2.212
18621WAT     H156105   2.742   6.721   2.190
18621WAT     H256106   2.693   6.569   2.227
18622WAT      O56107   4.465   6.404   3.437
18622WAT     H156108   4.454   6.388   3.339
18622WAT     H256109   4.481   6.501   3.454
18623WAT      O56110   3.450   3.987   2.867
18623WAT     H156111   3.355   4.009   2.891
18623WAT     H256112   3.502   3.971   2.951
18624WAT      O56113   1.797   6.651   1.477
18624WAT     H156114   1.707   6.678   1.442
18624WAT     H256115   1.801   6.668   1.575
18625WAT      O56116   3.055   9.492   1.457
18625WAT     H156117   3.075   9.498   1.359
18625WAT     H256118   3.085   9.576   1.502
18626WAT      O56119   4.046   4.297   1.544
18626WAT     H156120   3.968   4.298   1.480
18626WAT     H256121   4.081   4.389   1.554
18627WAT      O56122   2.597   3.201   0.360
18627WAT     H156123   2.571   3.180   0.266
18627WAT     H256124   2.692   3.172   0.376
18628WAT      O56125   4.552   4.114   2.836
18628WAT     H156126   4.603   4.065   2.906
18628WAT     H256127   4.557   4.064   2.750
18629WAT      O56128   1.079   9.090   4.308
18629WAT     H156129   1.129   9.004   4.296
18629WAT     H256130   1.045   9.121   4.219
18630WAT      O56131   6.756   6.117   8.998
18630WAT     H156132   6.756   6.070   9.087
18630WAT     H256133   6.835   6.087   8.945
18631WAT      O56134   7.132   4.353   4.766
18631WAT     H156135   7.109   4.265   4.724
18631WAT     H256136   7.202   4.398   4.712
18632WAT      O56137   6.257   5.872   4.521
18632WAT     H156138   6.229   5.785   4.480
18632WAT     H256139   6.180   5.913   4.570
18633WAT      O56140   2.496   2.954   9.153
18633WAT     H156141   2.485   3.005   9.238
18633WAT     H256142   2.418   2.972   9.093
18634WAT      O56143   9.488   1.616   2.461
18634WAT     H156144   9.513   1.527   2.424
18634WAT     H256145   9.549   1.686   2.422
18635WAT      O56146   8.348   3.055   8.645
18635WAT     H156147   8.437   3.095   8.623
18635WAT     H256148   8.280   3.128   8.655
18636WAT      O56149   1.809   2.759   6.951
18636WAT     H156150   1.770   2.677   6.910
18636WAT     H256151   1.898   2.779   6.910
18637WAT      O56152   0.302   9.070   0.200
18637WAT     H156153   0.325   9.134   0.273
18637WAT     H256154   0.204   9.049   0.203
18638WAT      O56155   1.038   9.337   3.247
18638WAT     H156156   1.117   9.344   3.308
18638WAT     H256157   1.001   9.429   3.231
18639WAT      O56158   6.522   4.804   0.496
18639WAT     H156159   6.615   4.810   0.459
18639WAT     H256160   6.525   4.814   0.595
18640WAT      O56161   1.034   8.146   6.502
18640WAT     H156162   1.010   8.067   6.558
18640WAT     H256163   1.000   8.132   6.409
18641WAT      O56164   3.010   7.311   2.195
18641WAT     H156165   3.103   7.278   2.180
18641WAT     H256166   2.987   7.379   2.125
18642WAT      O56167   6.895   6.545   2.521
18642WAT     H156168   6.874   6.487   2.443
18642WAT     H256169   6.985   6.521   2.558
18643WAT      O56170   1.138   5.201   5.564
18643WAT     H156171   1.177   5.259   5.636
18643WAT     H256172   1.039   5.210   5.565
18644WAT      O56173   5.592   7.359   0.792
18644WAT     H156174   5.652   7.432   0.825
18644WAT     H256175   5.623   7.329   0.702
18645WAT      O56176   2.214   1.764   3.655
18645WAT     H156177   2.138   1.710   3.688
18645WAT     H256178   2.220   1.756   3.555
18646WAT      O56179   8.732   7.837   4.930
18646WAT     H156180   8.721   7.738   4.920
18646WAT     H256181   8.732   7.860   5.028
18647WAT      O56182   2.869   9.639   6.388
18647WAT     H156183   2.874   9.552   6.437
18647WAT     H256184   2.908   9.628   6.297
18648WAT      O56185   9.608   0.939   7.856
18648WAT     H156186   9.641   1.009   7.792
18648WAT     H256187   9.641   0.960   7.948
18649WAT      O56188   5.308   5.751   9.227
18649WAT     H156189   5.342   5.688   9.158
18649WAT     H256190   5.384   5.806   9.261
18650WAT      O56191   0.210   2.178   2.149
18650WAT     H156192   0.237   2.142   2.059
18650WAT     H256193   0.140   2.118   2.189
18651WAT      O56194   0.575   1.162   0.796
18651WAT     H156195   0.633   1.233   0.836
18651WAT     H256196   0.518   1.202   0.725
18652WAT      O56197   3.594   5.846   9.601
18652WAT     H156198   3.501   5.853   9.564
18652WAT     H256199   3.656   5.902   9.547
18653WAT      O56200   1.350   2.444   3.271
18653WAT     H156201   1.448   2.427   3.283
18653WAT     H256202   1.312   2.375   3.210
18654WAT      O56203   1.364   3.134   7.138
18654WAT     H156204   1.384   3.170   7.047
18654WAT     H256205   1.450   3.108   7.183
18655WAT      O56206   3.122   2.271   7.885
18655WAT     H156207   3.137   2.206   7.810
18655WAT     H256208   3.039   2.246   7.934
18656WAT      O56209   9.868   6.258   9.826
18656WAT     H156210   9.856   6.357   9.834
18656WAT     H256211   9.880   6.234   9.730
18657WAT      O56212   1.680   8.332   6.161
18657WAT     H156213   1.660   8.237   6.183
18657WAT     H256214   1.657   8.350   6.065
18658WAT      O56215   2.984   3.306   0.226
18658WAT     H156216   2.999   3.355   0.311
18658WAT     H256217   3.071   3.282   0.185
18659WAT      O56218   3.032   8.558   7.455
18659WAT     H156219   2.939   8.591   7.439
18659WAT     H256220   3.090   8.582   7.377
18660WAT      O56221   3.904   4.543   6.037
18660WAT     H156222   3.859   4.597   5.966
18660WAT     H256223   3.925   4.602   6.115
18661WAT      O56224   5.671   5.995   0.290
18661WAT     H156225   5.589   6.021   0.340
18661WAT     H256226   5.646   5.961   0.199
18662WAT      O56227   5.777   0.952   2.569
18662WAT     H156228   5.818   0.979   2.482
18662WAT     H256229   5.833   0.986   2.644
18663WAT      O56230   5.226   1.029   4.136
18663WAT     H156231   5.130   1.003   4.143
18663WAT     H256232   5.233   1.120   4.095
18664WAT      O56233   0.146   3.020   7.777
18664WAT     H156234   0.149   3.099   7.838
18664WAT     H256235   0.226   3.020   7.718
18665WAT      O56236   4.166   2.851   5.287
18665WAT     H156237   4.158   2.778   5.219
18665WAT     H256238   4.079   2.863   5.334
18666WAT      O56239   0.767   1.381   7.276
18666WAT     H156240   0.815   1.294   7.275
18666WAT     H256241   0.776   1.426   7.187
18667WAT      O56242   0.111   2.044   9.490
18667WAT     H156243   0.106   2.118   9.422
18667WAT     H256244   0.200   2.047   9.536
18668WAT      O56245   7.058   6.060   2.584
18668WAT     H156246   7.010   6.092   2.503
18668WAT     H256247   7.000   5.995   2.633
18669WAT      O56248   9.278   8.804   1.631
18669WAT     H156249   9.358   8.813   1.690
18669WAT     H256250   9.269   8.886   1.574
18670WAT      O56251   8.889   6.323   0.477
18670WAT     H156252   8.816   6.290   0.536
18670WAT     H256253   8.849   6.356   0.391
18671WAT      O56254   9.169   7.217   1.455
18671WAT     H156255   9.225   7.186   1.532
18671WAT     H256256   9.190   7.312   1.434
18672WAT      O56257   8.109   0.951   0.837
18672WAT     H156258   8.012   0.973   0.836
18672WAT     H256259   8.162   1.035   0.830
18673WAT      O56260   3.020   0.624   5.978
18673WAT     H156261   3.024   0.543   6.036
18673WAT     H256262   2.925   0.653   5.968
18674WAT      O56263   4.527   3.826   0.971
18674WAT     H156264   4.564   3.795   1.059
18674WAT     H256265   4.536   3.926   0.965
18675WAT      O56266   1.344   1.494   4.310
18675WAT     H156267   1.345   1.443   4.396
18675WAT     H256268   1.438   1.511   4.281
18676WAT      O56269   9.846   9.748   1.885
18676WAT     H156270   9.758   9.704   1.866
18676WAT     H256271   9.901   9.689   1.943
18677WAT      O56272   3.954   0.859   6.079
18677WAT     H156273   3.905   0.812   6.152
18677WAT     H256274   4.020   0.923   6.118
18678WAT      O56275   4.439   9.326   6.781
18678WAT     H156276   4.536   9.309   6.794
18678WAT     H256277   4.416   9.419   6.810
18679WAT      O56278   8.655   9.748   0.310
18679WAT     H156279   8.734   9.694   0.338
18679WAT     H256280   8.589   9.689   0.263
18680WAT      O56281   4.434   5.641   8.368
18680WAT     H156282   4.458   5.737   8.365
18680WAT     H256283   4.503   5.590   8.420
18681WAT      O56284   0.556   5.081   0.281
18681WAT     H156285   0.525   4.986   0.272
18681WAT     H256286   0.655   5.083   0.292
18682WAT      O56287   0.184   2.385   3.342
18682WAT     H156288   0.182   2.471   3.291
18682WAT     H256289   0.092   2.347   3.347
18683WAT      O56290   0.820   4.771   4.310
18683WAT     H156291   0.739   4.817   4.273
18683WAT     H256292   0.856   4.707   4.242
18684WAT      O56293   7.453   0.400   2.255
18684WAT     H156294   7.518   0.468   2.220
18684WAT     H256295   7.376   0.393   2.192
18685WAT      O56296   6.576   8.605   8.324
18685WAT     H156297   6.497   8.665   8.312
18685WAT     H256298   6.545   8.509   8.319
18686WAT      O56299   2.017   4.496   8.938
18686WAT     H156300   2.104   4.538   8.960
18686WAT     H256301   1.959   4.562   8.890
18687WAT      O56302   1.440   2.133   8.635
18687WAT     H156303   1.382   2.113   8.557
18687WAT     H256304   1.473   2.047   8.675
18688WAT      O56305   5.515   5.383   0.437
18688WAT     H156306   5.427   5.423   0.460
18688WAT     H256307   5.508   5.283   0.443
18689WAT      O56308   2.068   7.971   3.967
18689WAT     H156309   1.972   7.993   3.949
18689WAT     H256310   2.107   8.039   4.029
18690WAT      O56311   3.894   9.439   9.685
18690WAT     H156312   3.810   9.488   9.707
18690WAT     H256313   3.900   9.426   9.586
18691WAT      O56314   8.974   8.964   6.650
18691WAT     H156315   8.879   8.992   6.650
18691WAT     H256316   9.028   9.029   6.703
18692WAT      O56317   9.281   4.089   7.035
18692WAT     H156318   9.247   4.178   7.064
18692WAT     H256319   9.365   4.067   7.085
18693WAT      O56320   5.522   7.758   8.891
18693WAT     H156321   5.561   7.784   8.979
18693WAT     H256322   5.593   7.765   8.820
18694WAT      O56323   4.229   8.689   1.371
18694WAT     H156324   4.197   8.595   1.383
18694WAT     H256325   4.219   8.738   1.457
18695WAT      O56326   5.635   8.793   1.537
18695WAT     H156327   5.642   8.704   1.494
18695WAT     H256328   5.580   8.786   1.620
18696WAT      O56329   2.169   6.045   6.456
18696WAT     H156330   2.261   6.079   6.474
18696WAT     H256331   2.107   6.122   6.442
18697WAT      O56332   5.834   5.233   5.357
18697WAT     H156333   5.863   5.320   5.317
18697WAT     H256334   5.905   5.164   5.343
18698WAT      O56335   6.638   5.033   8.123
18698WAT     H156336   6.675   4.941   8.135
18698WAT     H256337   6.687   5.080   8.049
18699WAT      O56338   8.749   5.492   9.387
18699WAT     H156339   8.698   5.528   9.310
18699WAT     H256340   8.844   5.477   9.360
18700WAT      O56341   0.128   5.052   1.356
18700WAT     H156342   0.210   5.108   1.344
18700WAT     H256343   0.151   4.969   1.406
18701WAT      O56344   6.805   3.661   8.381
18701WAT     H156345   6.780   3.645   8.286
18701WAT     H256346   6.739   3.723   8.423
18702WAT      O56347   9.330   0.318   8.685
18702WAT     H156348   9.408   0.353   8.633
18702WAT     H256349   9.353   0.230   8.726
18703WAT      O56350   1.096   7.331   2.619
18703WAT     H156351   0.998   7.331   2.637
18703WAT     H256352   1.125   7.422   2.589
18704WAT      O56353   3.144   6.987   4.920
18704WAT     H156354   3.112   6.895   4.896
18704WAT     H256355   3.182   7.032   4.839
18705WAT      O56356   5.842   6.571   4.025
18705WAT     H156357   5.938   6.586   4.000
18705WAT     H256358   5.823   6.473   4.027
18706WAT      O56359   7.621   5.107   0.463
18706WAT     H156360   7.706   5.058   0.446
18706WAT     H256361   7.579   5.075   0.547
18707WAT      O56362   0.623   2.969   3.033
18707WAT     H156363   0.538   2.974   3.086
18707WAT     H256364   0.657   2.875   3.035
18708WAT      O56365   4.937   8.568   8.868
18708WAT     H156366   4.928   8.476   8.830
18708WAT     H256367   4.852   8.594   8.914
18709WAT      O56368   8.456   8.899   6.970
18709WAT     H156369   8.391   8.893   7.046
18709WAT     H256370   8.419   8.852   6.890
18710WAT      O56371   1.445   2.033   2.749
18710WAT     H156372   1.399   1.947   2.771
18710WAT     H256373   1.382   2.093   2.701
18711WAT      O56374   3.472   7.090   0.496
18711WAT     H156375   3.555   7.133   0.461
18711WAT     H256376   3.442   7.019   0.431
18712WAT      O56377   8.565   5.247   8.357
18712WAT     H156378   8.528   5.322   8.413
18712WAT     H256379   8.494   5.179   8.340
18713WAT      O56380   9.558   9.221   2.983
18713WAT     H156381   9.641   9.166   2.989
18713WAT     H256382   9.509   9.199   2.899
18714WAT      O56383   6.718   4.605   4.471
18714WAT     H156384   6.752   4.696   4.496
18714WAT     H256385   6.653   4.573   4.541
18715WAT      O56386   2.792   2.005   7.142
18715WAT     H156387   2.766   2.101   7.151
18715WAT     H256388   2.850   1.993   7.061
18716WAT      O56389   7.920   1.305   9.862
18716WAT     H156390   7.948   1.210   9.868
18716WAT     H256391   7.889   1.325   9.769
18717WAT      O56392   9.797   3.715   9.764
18717WAT     H156393   9.880   3.770   9.772
18717WAT     H256394   9.798   3.641   9.832
18718WAT      O56395   9.832   6.122   4.780
18718WAT     H156396   9.807   6.214   4.750
18718WAT     H256397   9.798   6.055   4.714
18719WAT      O56398   0.139   4.847   7.434
18719WAT     H156399   0.228   4.804   7.449
18719WAT     H256400   0.094   4.863   7.522
18720WAT      O56401   6.107   9.134   7.294
18720WAT     H156402   6.014   9.123   7.329
18720WAT     H256403   6.107   9.199   7.218
18721WAT      O56404   1.550   4.783   7.568
18721WAT     H156405   1.620   4.719   7.598
18721WAT     H256406   1.538   4.854   7.637
18722WAT      O56407   5.053   5.540   7.273
18722WAT     H156408   5.046   5.442   7.292
18722WAT     H256409   5.091   5.554   7.181
18723WAT      O56410   6.666   8.305   3.026
18723WAT     H156411   6.625   8.217   3.050
18723WAT     H256412   6.602   8.357   2.970
18724WAT      O56413   0.928   5.627   6.908
18724WAT     H156414   0.909   5.632   7.006
18724WAT     H256415   0.953   5.533   6.883
18725WAT      O56416   3.515   3.692   2.692
18725WAT     H156417   3.421   3.697   2.727
18725WAT     H256418   3.577   3.737   2.757
18726WAT      O56419   5.693   0.418   3.023
18726WAT     H156420   5.665   0.512   3.042
18726WAT     H256421   5.645   0.356   3.086
18727WAT      O56422   6.354   3.354   2.267
18727WAT     H156423   6.381   3.270   2.220
18727WAT     H256424   6.264   3.341   2.309
18728WAT      O56425   5.051   2.415   5.478
18728WAT     H156426   5.114   2.376   5.412
18728WAT     H256427   4.957   2.398   5.448
18729WAT      O56428   1.550   0.415   8.111
18729WAT     H156429   1.613   0.344   8.080
18729WAT     H256430   1.466   0.411   8.057
18730WAT      O56431   9.701   3.472   1.888
18730WAT     H156432   9.615   3.508   1.852
18730WAT     H256433   9.732   3.396   1.831
18731WAT      O56434   5.971   0.623   9.136
18731WAT     H156435   6.036   0.555   9.169
18731WAT     H256436   5.939   0.598   9.045
18732WAT      O56437   9.495   8.407   5.253
18732WAT     H156438   9.473   8.321   5.208
18732WAT     H256439   9.538   8.390   5.341
18733WAT      O56440   8.147   2.424   6.801
18733WAT     H156441   8.190   2.487   6.736
18733WAT     H256442   8.158   2.459   6.894
18734WAT      O56443   9.203   3.439   7.029
18734WAT     H156444   9.170   3.346   7.047
18734WAT     H256445   9.299   3.446   7.058
18735WAT      O56446   7.663   3.972   1.361
18735WAT     H156447   7.710   3.908   1.423
18735WAT     H256448   7.566   3.973   1.382
18736WAT      O56449   0.673   5.927   1.075
18736WAT     H156450   0.758   5.918   1.023
18736WAT     H256451   0.598   5.949   1.012
18737WAT      O56452   9.166   3.371   2.896
18737WAT     H156453   9.135   3.456   2.852
18737WAT     H256454   9.242   3.333   2.845
18738WAT      O56455   2.671   4.065   2.412
18738WAT     H156456   2.678   4.124   2.332
18738WAT     H256457   2.708   4.112   2.492
18739WAT      O56458   7.436   5.828   8.992
18739WAT     H156459   7.533   5.847   9.007
18739WAT     H256460   7.394   5.800   9.079
18740WAT      O56461   5.639   5.682   2.930
18740WAT     H156462   5.717   5.628   2.961
18740WAT     H256463   5.631   5.676   2.830
18741WAT      O56464   0.995   0.099   5.480
18741WAT     H156465   0.938   0.038   5.425
18741WAT     H256466   1.011   0.184   5.431
18742WAT      O56467   6.000   6.459   9.649
18742WAT     H156468   6.007   6.559   9.657
18742WAT     H256469   5.934   6.437   9.577
18743WAT      O56470   6.651   3.293   0.958
18743WAT     H156471   6.687   3.219   0.901
18743WAT     H256472   6.702   3.297   1.044
18744WAT      O56473   9.165   0.512   6.402
18744WAT     H156474   9.095   0.543   6.467
18744WAT     H256475   9.122   0.456   6.332
18745WAT      O56476   6.120   3.897   3.013
18745WAT     H156477   6.188   3.969   3.028
18745WAT     H256478   6.037   3.938   2.976
18746WAT      O56479   9.374   9.716   7.025
18746WAT     H156480   9.284   9.673   7.019
18746WAT     H256481   9.423   9.701   6.939
18747WAT      O56482   4.978   5.624   5.852
18747WAT     H156483   4.973   5.687   5.775
18747WAT     H256484   4.989   5.530   5.818
18748WAT      O56485   7.921   3.606   2.585
18748WAT     H156486   7.830   3.566   2.574
18748WAT     H256487   7.916   3.705   2.572
18749WAT      O56488   1.334   1.393   0.513
18749WAT     H156489   1.392   1.429   0.585
18749WAT     H256490   1.239   1.389   0.545
18750WAT      O56491   7.031   6.023   7.883
18750WAT     H156492   6.956   6.075   7.923
18750WAT     H256493   7.112   6.080   7.878
18751WAT      O56494   3.669   2.397   8.011
18751WAT     H156495   3.702   2.460   7.940
18751WAT     H256496   3.638   2.449   8.090
18752WAT      O56497   8.830   9.669   9.782
18752WAT     H156498   8.873   9.659   9.872
18752WAT     H256499   8.831   9.581   9.735
18753WAT      O56500   6.287   4.755   4.746
18753WAT     H156501   6.217   4.826   4.748
18753WAT     H256502   6.374   4.792   4.779
18754WAT      O56503   5.634   5.531   8.071
18754WAT     H156504   5.536   5.515   8.080
18754WAT     H256505   5.679   5.446   8.044
18755WAT      O56506   2.351   8.205   2.698
18755WAT     H156507   2.401   8.119   2.702
18755WAT     H256508   2.379   8.263   2.774
18756WAT      O56509   1.275   7.553   5.903
18756WAT     H156510   1.349   7.584   5.963
18756WAT     H256511   1.189   7.555   5.954
18757WAT      O56512   9.134   2.142   2.481
18757WAT     H156513   9.093   2.171   2.567
18757WAT     H256514   9.062   2.122   2.414
18758WAT      O56515   9.664   5.909   4.653
18758WAT     H156516   9.599   5.875   4.586
18758WAT     H256517   9.673   5.842   4.727
18759WAT      O56518   2.144   8.327   5.014
18759WAT     H156519   2.242   8.323   5.038
18759WAT     H256520   2.102   8.239   5.034
18760WAT      O56521   8.700   8.812   0.078
18760WAT     H156522   8.799   8.825   0.075
18760WAT     H256523   8.657   8.864   0.003
18761WAT      O56524   7.364   6.597   6.130
18761WAT     H156525   7.391   6.581   6.224
18761WAT     H256526   7.283   6.542   6.108
18762WAT      O56527   3.547   5.479   9.284
18762WAT     H156528   3.553   5.388   9.324
18762WAT     H256529   3.639   5.517   9.274
18763WAT      O56530   0.717   1.294   3.809
18763WAT     H156531   0.789   1.354   3.774
18763WAT     H256532   0.759   1.211   3.847
18764WAT      O56533   4.357   2.532   6.960
18764WAT     H156534   4.403   2.617   6.935
18764WAT     H256535   4.280   2.552   7.021
18765WAT      O56536   7.939   2.450   3.859
18765WAT     H156537   7.948   2.549   3.872
18765WAT     H256538   8.006   2.419   3.792
18766WAT      O56539   6.151   7.379   2.680
18766WAT     H156540   6.096   7.331   2.612
18766WAT     H256541   6.104   7.375   2.769
18767WAT      O56542   6.904   4.745   8.564
18767WAT     H156543   6.848   4.781   8.638
18767WAT     H256544   6.957   4.667   8.597
18768WAT      O56545   6.710   1.987   9.132
18768WAT     H156546   6.665   2.047   9.065
18768WAT     H256547   6.710   2.031   9.221
18769WAT      O56548   4.386   1.392   7.023
18769WAT     H156549   4.365   1.476   6.974
18769WAT     H256550   4.318   1.322   7.001
18770WAT      O56551   2.404   3.596   7.514
18770WAT     H156552   2.387   3.638   7.424
18770WAT     H256553   2.428   3.667   7.580
18771WAT      O56554   8.399   6.687   5.218
18771WAT     H156555   8.326   6.651   5.161
18771WAT     H256556   8.408   6.630   5.300
18772WAT      O56557   8.837   7.364   5.143
18772WAT     H156558   8.803   7.279   5.183
18772WAT     H256559   8.892   7.342   5.062
18773WAT      O56560   3.229   0.973   6.945
18773WAT     H156561   3.265   0.912   6.874
18773WAT     H256562   3.151   0.929   6.990
18774WAT      O56563   7.253   3.179   8.464
18774WAT     H156564   7.183   3.118   8.429
18774WAT     H256565   7.331   3.126   8.496
18775WAT      O56566   0.692   0.989   8.996
18775WAT     H156567   0.773   1.035   9.032
18775WAT     H256568   0.626   1.057   8.965
18776WAT      O56569   1.138   0.889   1.670
18776WAT     H156570   1.177   0.980   1.686
18776WAT     H256571   1.072   0.893   1.596
18777WAT      O56572   9.259   5.944   5.366
18777WAT     H156573   9.182   5.997   5.402
18777WAT     H256574   9.225   5.881   5.296
18778WAT      O56575   1.102   9.273   4.807
18778WAT     H156576   1.167   9.211   4.764
18778WAT     H256577   1.151   9.353   4.842
18779WAT      O56578   5.878   5.251   0.115
18779WAT     H156579   5.811   5.298   0.058
18779WAT     H256580   5.834   5.172   0.158
18780WAT      O56581   3.517   9.310   3.275
18780WAT     H156582   3.602   9.350   3.239
18780WAT     H256583   3.537   9.225   3.323
18781WAT      O56584   4.486   6.441   4.685
18781WAT     H156585   4.479   6.456   4.784
18781WAT     H256586   4.544   6.512   4.645
18782WAT      O56587   7.151   8.695   1.332
18782WAT     H156588   7.177   8.630   1.261
18782WAT     H256589   7.087   8.652   1.395
18783WAT      O56590   2.961   3.869   0.480
18783WAT     H156591   3.048   3.823   0.494
18783WAT     H256592   2.918   3.834   0.397
18784WAT      O56593   5.378   2.683   1.957
18784WAT     H156594   5.391   2.655   2.052
18784WAT     H256595   5.312   2.623   1.913
18785WAT      O56596   4.478   1.838   1.959
18785WAT     H156597   4.392   1.887   1.970
18785WAT     H256598   4.459   1.745   1.925
18786WAT      O56599   4.371   3.813   6.352
18786WAT     H156600   4.335   3.887   6.409
18786WAT     H256601   4.469   3.825   6.341
18787WAT      O56602   3.631   7.642   5.640
18787WAT     H156603   3.725   7.617   5.614
18787WAT     H256604   3.594   7.573   5.701
18788WAT      O56605   7.134   2.816   0.887
18788WAT     H156606   7.204   2.860   0.832
18788WAT     H256607   7.154   2.830   0.984
18789WAT      O56608   7.277   1.175   5.806
18789WAT     H156609   7.363   1.209   5.767
18789WAT     H256610   7.215   1.148   5.733
18790WAT      O56611   8.726   3.570   5.822
18790WAT     H156612   8.792   3.589   5.749
18790WAT     H256613   8.657   3.506   5.789
18791WAT      O56614   4.326   0.744   2.747
18791WAT     H156615   4.419   0.708   2.754
18791WAT     H256616   4.272   0.712   2.824
18792WAT      O56617   7.171   8.192   9.748
18792WAT     H156618   7.266   8.168   9.729
18792WAT     H256619   7.121   8.201   9.662
18793WAT      O56620   1.549   6.827   2.940
18793WAT     H156621   1.611   6.765   2.892
18793WAT     H256622   1.603   6.889   2.998
18794WAT      O56623   0.353   3.633   1.535
18794WAT     H156624   0.433   3.590   1.576
18794WAT     H256625   0.340   3.598   1.442
18795WAT      O56626   1.560   0.171   7.119
18795WAT     H156627   1.512   0.121   7.191
18795WAT     H256628   1.659   0.161   7.132
18796WAT      O56629   7.139   2.354   0.170
18796WAT     H156630   7.203   2.291   0.216
18796WAT     H256631   7.048   2.342   0.208
18797WAT      O56632   7.278   4.618   4.686
18797WAT     H156633   7.347   4.551   4.661
18797WAT     H256634   7.308   4.669   4.767
18798WAT      O56635   7.142   0.812   0.978
18798WAT     H156636   7.178   0.806   1.071
18798WAT     H256637   7.104   0.723   0.952
18799WAT      O56638   6.731   5.821   5.357
18799WAT     H156639   6.654   5.874   5.323
18799WAT     H256640   6.731   5.730   5.315
18800WAT      O56641   7.313   1.800   9.070
18800WAT     H156642   7.390   1.749   9.109
18800WAT     H256643   7.228   1.768   9.111
18801WAT      O56644   6.169   5.516   8.978
18801WAT     H156645   6.098   5.507   8.908
18801WAT     H256646   6.161   5.605   9.022
18802WAT      O56647   6.933   2.515   7.384
18802WAT     H156648   7.017   2.546   7.427
18802WAT     H256649   6.859   2.515   7.451
18803WAT      O56650   8.285   6.151   6.368
18803WAT     H156651   8.190   6.174   6.385
18803WAT     H256652   8.303   6.149   6.270
18804WAT      O56653   4.641   5.366   9.360
18804WAT     H156654   4.719   5.406   9.407
18804WAT     H256655   4.630   5.410   9.271
18805WAT      O56656   0.856   1.622   5.503
18805WAT     H156657   0.848   1.687   5.428
18805WAT     H256658   0.769   1.619   5.553
18806WAT      O56659   3.385   4.032   8.430
18806WAT     H156660   3.461   4.081   8.389
18806WAT     H256661   3.386   3.936   8.400
18807WAT      O56662   7.452   9.504   9.858
18807WAT     H156663   7.485   9.425   9.807
18807WAT     H256664   7.461   9.486   9.956
18808WAT      O56665   9.155   5.062   4.439
18808WAT     H156666   9.239   5.008   4.439
18808WAT     H256667   9.093   5.028   4.368
18809WAT      O56668   7.407   4.425   1.793
18809WAT     H156669   7.444   4.510   1.829
18809WAT     H256670   7.416   4.352   1.860
18810WAT      O56671   5.314   5.944   7.114
18810WAT     H156672   5.254   5.867   7.139
18810WAT     H256673   5.269   5.998   7.043
18811WAT      O56674   3.329   1.216   7.882
18811WAT     H156675   3.334   1.167   7.795
18811WAT     H256676   3.391   1.295   7.880
18812WAT      O56677   3.679   0.933   6.836
18812WAT     H156678   3.767   0.967   6.804
18812WAT     H256679   3.687   0.835   6.855
18813WAT      O56680   3.494   0.169   3.838
18813WAT     H156681   3.434   0.090   3.840
18813WAT     H256682   3.497   0.211   3.929
18814WAT      O56683   2.494   4.072   3.909
18814WAT     H156684   2.472   4.161   3.870
18814WAT     H256685   2.471   4.072   4.006
18815WAT      O56686   5.969   1.784   2.509
18815WAT     H156687   5.938   1.799   2.415
18815WAT     H256688   6.068   1.771   2.510
18816WAT      O56689   8.281   8.376   3.834
18816WAT     H156690   8.231   8.393   3.749
18816WAT     H256691   8.326   8.287   3.829
18817WAT      O56692   7.877   5.030   1.399
18817WAT     H156693   7.794   4.980   1.375
18817WAT     H256694   7.904   5.088   1.323
18818WAT      O56695   2.760   2.783   7.160
18818WAT     H156696   2.676   2.818   7.202
18818WAT     H256697   2.835   2.788   7.227
18819WAT      O56698   5.186   4.272   1.051
18819WAT     H156699   5.173   4.369   1.031
18819WAT     H256700   5.181   4.220   0.966
18820WAT      O56701   9.399   9.155   8.051
18820WAT     H156702   9.392   9.088   8.125
18820WAT     H256703   9.494   9.164   8.022
18821WAT      O56704   8.832   4.251   7.063
18821WAT     H156705   8.908   4.193   7.095
18821WAT     H256706   8.865   4.345   7.052
18822WAT      O56707   4.181   7.109   7.285
18822WAT     H156708   4.263   7.051   7.284
18822WAT     H256709   4.161   7.140   7.192
18823WAT      O56710   0.579   5.218   1.117
18823WAT     H156711   0.584   5.243   1.020
18823WAT     H256712   0.540   5.293   1.169
18824WAT      O56713   0.894   2.352   5.707
18824WAT     H156714   0.817   2.299   5.741
18824WAT     H256715   0.961   2.291   5.666
18825WAT      O56716   4.286   4.315   7.385
18825WAT     H156717   4.241   4.324   7.296
18825WAT     H256718   4.350   4.391   7.398
18826WAT      O56719   3.072   1.597   6.175
18826WAT     H156720   3.013   1.522   6.145
18826WAT     H256721   3.149   1.560   6.227
18827WAT      O56722   4.739   5.316   8.113
18827WAT     H156723   4.781   5.301   8.024
18827WAT     H256724   4.803   5.290   8.185
18828WAT      O56725   8.142   9.142   3.119
18828WAT     H156726   8.206   9.137   3.196
18828WAT     H256727   8.068   9.076   3.132
18829WAT      O56728   8.710   0.553   0.622
18829WAT     H156729   8.753   0.643   0.616
18829WAT     H256730   8.702   0.526   0.718
18830WAT      O56731   3.810   5.264   6.864
18830WAT     H156732   3.813   5.295   6.959
18830WAT     H256733   3.801   5.164   6.862
18831WAT      O56734   2.175   7.495   7.107
18831WAT     H156735   2.190   7.401   7.138
18831WAT     H256736   2.077   7.509   7.092
18832WAT      O56737   0.806   4.811   6.109
18832WAT     H156738   0.825   4.808   6.011
18832WAT     H256739   0.791   4.905   6.138
18833WAT      O56740   9.854   1.509   5.369
18833WAT     H156741   9.870   1.556   5.455
18833WAT     H256742   9.928   1.445   5.351
18834WAT      O56743   0.399   7.375   7.442
18834WAT     H156744   0.342   7.296   7.418
18834WAT     H256745   0.432   7.418   7.358
18835WAT      O56746   2.539   7.040   4.295
18835WAT     H156747   2.538   6.972   4.368
18835WAT     H256748   2.463   7.023   4.232
18836WAT      O56749   7.493   5.128   8.318
18836WAT     H156750   7.443   5.112   8.233
18836WAT     H256751   7.540   5.217   8.313
18837WAT      O56752   3.469   2.121   2.124
18837WAT     H156753   3.433   2.049   2.184
18837WAT     H256754   3.565   2.137   2.145
18838WAT      O56755   3.307   7.511   9.056
18838WAT     H156756   3.334   7.507   8.960
18838WAT     H256757   3.338   7.428   9.103
18839WAT      O56758   1.080   5.797   2.362
18839WAT     H156759   1.173   5.776   2.332
18839WAT     H256760   1.082   5.871   2.429
18840WAT      O56761   3.161   6.393   4.958
18840WAT     H156762   3.259   6.411   4.950
18840WAT     H256763   3.116   6.473   4.997
18841WAT      O56764   2.883   9.227   1.372
18841WAT     H156765   2.783   9.235   1.372
18841WAT     H256766   2.913   9.197   1.281
18842WAT      O56767   2.340   3.514   8.739
18842WAT     H156768   2.246   3.547   8.751
18842WAT     H256769   2.352   3.484   8.644
18843WAT      O56770   0.972   7.832   1.588
18843WAT     H156771   1.043   7.778   1.634
18843WAT     H256772   0.970   7.924   1.628
18844WAT      O56773   6.309   6.233   0.751
18844WAT     H156774   6.344   6.183   0.831
18844WAT     H256775   6.235   6.181   0.709
18845WAT      O56776   7.220   8.845   6.565
18845WAT     H156777   7.216   8.804   6.474
18845WAT     H256778   7.190   8.940   6.561
18846WAT      O56779   0.607   7.982   4.569
18846WAT     H156780   0.518   7.987   4.525
18846WAT     H256781   0.609   7.907   4.634
18847WAT      O56782   9.841   2.681   5.908
18847WAT     H156783   9.877   2.718   5.822
18847WAT     H256784   9.918   2.655   5.967
18848WAT      O56785   8.821   5.213   3.757
18848WAT     H156786   8.876   5.286   3.716
18848WAT     H256787   8.761   5.173   3.687
18849WAT      O56788   1.581   9.826   6.770
18849WAT     H156789   1.514   9.836   6.844
18849WAT     H256790   1.596   9.729   6.752
18850WAT      O56791   6.698   0.440   9.646
18850WAT     H156792   6.604   0.411   9.628
18850WAT     H256793   6.721   0.419   9.741
18851WAT      O56794   0.090   0.710   7.846
18851WAT     H156795   0.155   0.778   7.812
18851WAT     H256796   0.139   0.635   7.889
18852WAT      O56797   1.194   0.411   1.811
18852WAT     H156798   1.263   0.472   1.772
18852WAT     H256799   1.228   0.317   1.808
18853WAT      O56800   4.237   8.016   8.968
18853WAT     H156801   4.297   8.085   8.925
18853WAT     H256802   4.149   8.058   8.989
18854WAT      O56803   3.032   9.208   5.788
18854WAT     H156804   3.047   9.109   5.784
18854WAT     H256805   3.002   9.233   5.880
18855WAT      O56806   2.194   3.659   1.058
18855WAT     H156807   2.203   3.567   1.021
18855WAT     H256808   2.267   3.675   1.125
18856WAT      O56809   1.047   5.874   8.320
18856WAT     H156810   1.139   5.905   8.342
18856WAT     H256811   1.050   5.779   8.287
18857WAT      O56812   8.523   5.306   9.764
18857WAT     H156813   8.475   5.224   9.794
18857WAT     H256814   8.539   5.367   9.842
18858WAT      O56815   4.454   2.285   8.267
18858WAT     H156816   4.397   2.206   8.294
18858WAT     H256817   4.550   2.261   8.277
18859WAT      O56818   1.953   4.019   7.318
18859WAT     H156819   1.918   3.927   7.332
18859WAT     H256820   1.922   4.054   7.230
18860WAT      O56821   5.290   2.404   2.279
18860WAT     H156822   5.221   2.344   2.239
18860WAT     H256823   5.253   2.451   2.359
18861WAT      O56824   0.518   6.158   8.370
18861WAT     H156825   0.587   6.191   8.306
18861WAT     H256826   0.494   6.231   8.434
18862WAT      O56827   9.133   6.583   4.321
18862WAT     H156828   9.094   6.652   4.260
18862WAT     H256829   9.131   6.617   4.415
18863WAT      O56830   4.945   3.023   1.089
18863WAT     H156831   5.024   3.001   1.032
18863WAT     H256832   4.891   2.940   1.105
18864WAT      O56833   9.105   6.112   9.093
18864WAT     H156834   9.053   6.059   9.026
18864WAT     H256835   9.198   6.128   9.058
18865WAT      O56836   8.458   9.679   2.634
18865WAT     H156837   8.506   9.764   2.654
18865WAT     H256838   8.436   9.632   2.719
18866WAT      O56839   7.591   7.030   0.729
18866WAT     H156840   7.500   7.037   0.770
18866WAT     H256841   7.660   7.033   0.801
18867WAT      O56842   6.212   7.837   6.788
18867WAT     H156843   6.228   7.867   6.882
18867WAT     H256844   6.283   7.772   6.761
18868WAT      O56845   6.606   7.637   9.392
18868WAT     H156846   6.608   7.584   9.307
18868WAT     H256847   6.657   7.722   9.378
18869WAT      O56848   4.634   1.709   4.357
18869WAT     H156849   4.568   1.685   4.286
18869WAT     H256850   4.708   1.641   4.359
18870WAT      O56851   5.062   7.717   6.216
18870WAT     H156852   5.008   7.797   6.188
18870WAT     H256853   5.063   7.650   6.142
18871WAT      O56854   6.606   0.565   6.649
18871WAT     H156855   6.564   0.519   6.727
18871WAT     H256856   6.541   0.570   6.574
18872WAT      O56857   8.372   2.885   7.690
18872WAT     H156858   8.449   2.823   7.678
18872WAT     H256859   8.388   2.968   7.636
18873WAT      O56860   3.961   3.587   1.829
18873WAT     H156861   3.915   3.650   1.766
18873WAT     H256862   4.018   3.639   1.892
18874WAT      O56863   3.827   1.377   5.633
18874WAT     H156864   3.794   1.471   5.645
18874WAT     H256865   3.760   1.326   5.579
18875WAT      O56866   1.301   3.995   6.688
18875WAT     H156867   1.384   3.942   6.707
18875WAT     H256868   1.293   4.068   6.756
18876WAT      O56869   5.575   2.016   8.033
18876WAT     H156870   5.623   2.032   8.119
18876WAT     H256871   5.544   1.921   8.029
18877WAT      O56872   4.784   3.580   8.849
18877WAT     H156873   4.701   3.569   8.795
18877WAT     H256874   4.781   3.668   8.898
18878WAT      O56875   0.313   7.634   0.205
18878WAT     H156876   0.378   7.709   0.211
18878WAT     H256877   0.277   7.628   0.112
18879WAT      O56878   4.313   8.972   5.711
18879WAT     H156879   4.366   9.025   5.645
18879WAT     H256880   4.363   8.966   5.797
18880WAT      O56881   7.280   7.170   0.565
18880WAT     H156882   7.355   7.158   0.501
18880WAT     H256883   7.223   7.246   0.535
18881WAT      O56884   8.101   9.290   5.711
18881WAT     H156885   8.112   9.192   5.730
18881WAT     H256886   8.027   9.303   5.645
18882WAT      O56887   3.429   1.540   5.264
18882WAT     H156888   3.426   1.497   5.354
18882WAT     H256889   3.336   1.551   5.229
18883WAT      O56890   5.141   8.364   3.804
18883WAT     H156891   5.122   8.320   3.892
18883WAT     H256892   5.155   8.462   3.818
18884WAT      O56893   0.322   6.359   8.760
18884WAT     H156894   0.337   6.415   8.842
18884WAT     H256895   0.224   6.344   8.748
18885WAT      O56896   3.991   2.085   9.126
18885WAT     H156897   3.913   2.033   9.092
18885WAT     H256898   4.000   2.170   9.074
18886WAT      O56899   9.038   2.147   9.218
18886WAT     H156900   8.973   2.103   9.156
18886WAT     H256901   9.008   2.239   9.239
18887WAT      O56902   8.236   5.237   1.814
18887WAT     H156903   8.312   5.255   1.876
18887WAT     H256904   8.263   5.167   1.748
18888WAT      O56905   8.354   0.734   5.860
18888WAT     H156906   8.395   0.782   5.783
18888WAT     H256907   8.391   0.641   5.865
18889WAT      O56908   9.303   3.642   9.274
18889WAT     H156909   9.401   3.631   9.256
18889WAT     H256910   9.290   3.677   9.367
18890WAT      O56911   5.801   8.438   7.351
18890WAT     H156912   5.778   8.341   7.356
18890WAT     H256913   5.728   8.492   7.393
18891WAT      O56914   6.260   8.154   0.244
18891WAT     H156915   6.310   8.214   0.181
18891WAT     H256916   6.219   8.209   0.317
18892WAT      O56917   7.335   2.615   6.089
18892WAT     H156918   7.423   2.650   6.057
18892WAT     H256919   7.262   2.677   6.060
18893WAT      O56920   7.837   4.693   5.467
18893WAT     H156921   7.894   4.713   5.546
18893WAT     H256922   7.781   4.773   5.445
18894WAT      O56923   1.907   0.378   4.661
18894WAT     H156924   1.921   0.417   4.570
18894WAT     H256925   1.967   0.425   4.727
18895WAT      O56926   4.011   5.223   0.781
18895WAT     H156927   4.075   5.290   0.742
18895WAT     H256928   4.062   5.143   0.813
18896WAT      O56929   0.283   5.527   8.763
18896WAT     H156930   0.373   5.521   8.805
18896WAT     H256931   0.273   5.456   8.693
18897WAT      O56932   5.485   9.735   3.243
18897WAT     H156933   5.434   9.731   3.157
18897WAT     H256934   5.430   9.696   3.317
18898WAT      O56935   9.088   7.398   2.160
18898WAT     H156936   9.098   7.362   2.067
18898WAT     H256937   8.998   7.440   2.170
18899WAT      O56938   8.818   3.780   2.375
18899WAT     H156939   8.917   3.775   2.389
18899WAT     H256940   8.799   3.830   2.291
18900WAT      O56941   6.876   6.718   5.131
18900WAT     H156942   6.951   6.708   5.196
18900WAT     H256943   6.789   6.714   5.180
18901WAT      O56944   1.909   1.140   6.218
18901WAT     H156945   1.868   1.197   6.147
18901WAT     H256946   1.875   1.046   6.208
18902WAT      O56947   8.752   0.330   3.464
18902WAT     H156948   8.848   0.307   3.482
18902WAT     H256949   8.714   0.380   3.542
18903WAT      O56950   1.945   4.206   9.343
18903WAT     H156951   2.035   4.206   9.298
18903WAT     H256952   1.919   4.300   9.364
18904WAT      O56953   5.805   2.120   5.375
18904WAT     H156954   5.766   2.201   5.331
18904WAT     H256955   5.880   2.084   5.319
18905WAT      O56956   3.415   3.293   3.661
18905WAT     H156957   3.355   3.373   3.661
18905WAT     H256958   3.374   3.221   3.605
18906WAT      O56959   3.860   6.391   9.771
18906WAT     H156960   3.823   6.327   9.704
18906WAT     H256961   3.792   6.462   9.791
18907WAT      O56962   7.172   9.013   2.031
18907WAT     H156963   7.176   9.107   1.997
18907WAT     H256964   7.253   8.994   2.085
18908WAT      O56965   0.583   4.950   3.212
18908WAT     H156966   0.490   4.957   3.174
18908WAT     H256967   0.624   4.863   3.185
18909WAT      O56968   2.064   1.425   6.312
18909WAT     H156969   2.047   1.432   6.213
18909WAT     H256970   1.991   1.371   6.354
18910WAT      O56971   0.287   7.712   4.635
18910WAT     H156972   0.198   7.687   4.596
18910WAT     H256973   0.337   7.769   4.571
18911WAT      O56974   9.219   5.999   4.761
18911WAT     H156975   9.142   6.023   4.820
18911WAT     H256976   9.187   5.938   4.688
18912WAT      O56977   2.829   6.093   4.955
18912WAT     H156978   2.767   6.060   4.885
18912WAT     H256979   2.897   6.023   4.976
18913WAT      O56980   4.930   3.930   8.236
18913WAT     H156981   4.951   3.946   8.140
18913WAT     H256982   4.938   3.832   8.256
18914WAT      O56983   1.798   3.349   1.587
18914WAT     H156984   1.753   3.271   1.543
18914WAT     H256985   1.847   3.402   1.519
18915WAT      O56986   6.426   0.073   5.991
18915WAT     H156987   6.396   0.092   5.898
18915WAT     H256988   6.350   0.031   6.042
18916WAT      O56989   6.400   1.024   1.120
18916WAT     H156990   6.492   1.006   1.155
18916WAT     H256991   6.358   0.939   1.089
18917WAT      O56992   7.891   9.686   0.451
18917WAT     H156993   7.889   9.785   0.462
18917WAT     H256994   7.980   9.651   0.481
18918WAT      O56995   4.915   0.376   4.120
18918WAT     H156996   4.993   0.341   4.171
18918WAT     H256997   4.855   0.426   4.182
18919WAT      O56998   8.482   1.077   1.361
18919WAT     H156999   8.538   1.017   1.419
18919WAT     H257000   8.541   1.144   1.315
18920WAT      O57001   0.404   0.491   6.702
18920WAT     H157002   0.378   0.490   6.605
18920WAT     H257003   0.324   0.511   6.758
18921WAT      O57004   8.954   2.612   8.709
18921WAT     H157005   9.040   2.620   8.657
18921WAT     H257006   8.911   2.702   8.716
18922WAT      O57007   4.348   8.334   2.749
18922WAT     H157008   4.356   8.305   2.844
18922WAT     H257009   4.388   8.265   2.689
18923WAT      O57010   0.948   9.072   3.411
18923WAT     H157011   0.881   9.113   3.349
18923WAT     H257012   0.916   8.982   3.440
18924WAT      O57013   7.578   1.196   0.645
18924WAT     H157014   7.667   1.243   0.647
18924WAT     H257015   7.576   1.133   0.567
18925WAT      O57016   0.637   0.188   0.741
18925WAT     H157017   0.640   0.162   0.645
18925WAT     H257018   0.596   0.279   0.751
18926WAT      O57019   6.581   5.613   3.698
18926WAT     H157020   6.488   5.595   3.728
18926WAT     H257021   6.645   5.587   3.771
18927WAT      O57022   9.652   7.512   1.372
18927WAT     H157023   9.703   7.479   1.293
18927WAT     H257024   9.650   7.612   1.371
18928WAT      O57025   5.936   2.351   2.648
18928WAT     H157026   6.032   2.372   2.669
18928WAT     H257027   5.930   2.261   2.605
18929WAT      O57028   0.620   7.695   1.930
18929WAT     H157029   0.577   7.780   1.960
18929WAT     H257030   0.718   7.700   1.946
18930WAT      O57031   2.107   8.807   9.591
18930WAT     H157032   2.159   8.744   9.648
18930WAT     H257033   2.049   8.865   9.649
18931WAT      O57034   1.223   5.168   5.991
18931WAT     H157035   1.288   5.099   6.024
18931WAT     H257036   1.226   5.247   6.052
18932WAT      O57037   6.310   7.419   9.558
18932WAT     H157038   6.283   7.436   9.463
18932WAT     H257039   6.249   7.351   9.598
18933WAT      O57040   6.713   5.325   5.292
18933WAT     H157041   6.723   5.370   5.381
18933WAT     H257042   6.782   5.253   5.284
18934WAT      O57043   0.957   0.866   4.527
18934WAT     H157044   0.971   0.816   4.613
18934WAT     H257045   0.919   0.805   4.458
18935WAT      O57046   1.933   0.172   6.718
18935WAT     H157047   1.962   0.258   6.678
18935WAT     H257048   1.841   0.181   6.755
18936WAT      O57049   6.156   3.226   5.857
18936WAT     H157050   6.252   3.207   5.835
18936WAT     H257051   6.097   3.183   5.789
18937WAT      O57052   3.723   8.041   4.161
18937WAT     H157053   3.715   8.129   4.116
18937WAT     H257054   3.759   7.973   4.097
18938WAT      O57055   5.467   7.221   4.939
18938WAT     H157056   5.473   7.197   4.842
18938WAT     H257057   5.446   7.139   4.992
18939WAT      O57058   7.360   1.443   8.933
18939WAT     H157059   7.387   1.506   9.006
18939WAT     H257060   7.438   1.424   8.874
18940WAT      O57061   5.500   2.937   6.471
18940WAT     H157062   5.552   2.951   6.386
18940WAT     H257063   5.409   2.902   6.450
18941WAT      O57064   0.425   9.118   7.346
18941WAT     H157065   0.386   9.084   7.260
18941WAT     H257066   0.480   9.200   7.327
18942WAT      O57067   9.178   4.722   3.352
18942WAT     H157068   9.193   4.821   3.350
18942WAT     H257069   9.250   4.679   3.407
18943WAT      O57070   3.748   8.587   8.866
18943WAT     H157071   3.677   8.531   8.823
18943WAT     H257072   3.835   8.571   8.818
18944WAT      O57073   5.983   1.839   6.295
18944WAT     H157074   5.944   1.929   6.276
18944WAT     H257075   6.076   1.835   6.259
18945WAT      O57076   0.701   6.494   8.660
18945WAT     H157077   0.763   6.521   8.587
18945WAT     H257078   0.733   6.408   8.701
18946WAT      O57079   1.620   4.523   1.227
18946WAT     H157080   1.625   4.428   1.258
18946WAT     H257081   1.596   4.582   1.305
18947WAT      O57082   6.188   6.857   8.252
18947WAT     H157083   6.240   6.821   8.175
18947WAT     H257084   6.165   6.782   8.314
18948WAT      O57085   0.863   7.933   0.915
18948WAT     H157086   0.950   7.885   0.900
18948WAT     H257087   0.838   7.983   0.832
18949WAT      O57088   9.265   9.755   8.228
18949WAT     H157089   9.201   9.679   8.219
18949WAT     H257090   9.303   9.778   8.138
18950WAT      O57091   1.502   6.303   7.605
18950WAT     H157092   1.445   6.383   7.585
18950WAT     H257093   1.511   6.293   7.705
18951WAT      O57094   5.950   7.171   3.984
18951WAT     H157095   5.875   7.208   4.039
18951WAT     H257096   5.913   7.104   3.919
18952WAT      O57097   3.010   7.862   4.429
18952WAT     H157098   2.923   7.895   4.391
18952WAT     H257099   3.042   7.784   4.375
18953WAT      O57100   9.316   2.471   9.323
18953WAT     H157101   9.320   2.542   9.253
18953WAT     H257102   9.410   2.448   9.351
18954WAT      O57103   0.700   7.912   2.158
18954WAT     H157104   0.616   7.883   2.205
18954WAT     H257105   0.702   8.012   2.154
18955WAT      O57106   5.349   0.705   6.387
18955WAT     H157107   5.369   0.797   6.351
18955WAT     H257108   5.433   0.651   6.386
18956WAT      O57109   1.503   1.869   0.034
18956WAT     H157110   1.552   1.870  -0.053
18956WAT     H257111   1.423   1.810   0.027
18957WAT      O57112   3.665   6.651   7.457
18957WAT     H157113   3.642   6.568   7.508
18957WAT     H257114   3.620   6.648   7.367
18958WAT      O57115   3.178   1.076   2.259
18958WAT     H157116   3.107   1.017   2.221
18958WAT     H257117   3.237   1.109   2.185
18959WAT      O57118   6.356   3.910   8.822
18959WAT     H157119   6.448   3.914   8.782
18959WAT     H257120   6.363   3.920   8.921
18960WAT      O57121   2.956   5.508   0.678
18960WAT     H157122   2.910   5.455   0.749
18960WAT     H257123   3.050   5.475   0.668
18961WAT      O57124   1.290   5.035   8.891
18961WAT     H157125   1.381   5.075   8.875
18961WAT     H257126   1.297   4.964   8.961
18962WAT      O57127   3.812   8.586   5.446
18962WAT     H157128   3.757   8.626   5.372
18962WAT     H257129   3.790   8.633   5.532
18963WAT      O57130   3.024   5.925   2.501
18963WAT     H157131   3.087   5.964   2.434
18963WAT     H257132   2.931   5.927   2.464
18964WAT      O57133   1.309   0.368   7.953
18964WAT     H157134   1.326   0.431   7.878
18964WAT     H257135   1.255   0.414   8.024
18965WAT      O57136   6.193   9.017   8.279
18965WAT     H157137   6.195   9.095   8.217
18965WAT     H257138   6.154   9.045   8.367
18966WAT      O57139   8.292   3.562   0.753
18966WAT     H157140   8.345   3.616   0.820
18966WAT     H257141   8.219   3.513   0.801
18967WAT      O57142   9.499   8.189   8.168
18967WAT     H157143   9.446   8.115   8.209
18967WAT     H257144   9.442   8.271   8.162
18968WAT      O57145   4.467   7.840   1.684
18968WAT     H157146   4.543   7.894   1.719
18968WAT     H257147   4.381   7.872   1.724
18969WAT      O57148   8.216   2.439   9.374
18969WAT     H157149   8.289   2.382   9.410
18969WAT     H257150   8.129   2.390   9.380
18970WAT      O57151   7.290   6.968   5.066
18970WAT     H157152   7.214   7.010   5.117
18970WAT     H257153   7.360   6.937   5.130
18971WAT      O57154   5.152   2.475   0.288
18971WAT     H157155   5.129   2.561   0.334
18971WAT     H257156   5.073   2.414   0.289
18972WAT      O57157   6.702   7.738   5.227
18972WAT     H157158   6.789   7.781   5.251
18972WAT     H257159   6.710   7.691   5.139
18973WAT      O57160   7.541   3.762   2.639
18973WAT     H157161   7.584   3.774   2.728
18973WAT     H257162   7.577   3.678   2.597
18974WAT      O57163   9.205   5.140   8.208
18974WAT     H157164   9.116   5.123   8.167
18974WAT     H257165   9.244   5.054   8.241
18975WAT      O57166   7.455   7.751   6.546
18975WAT     H157167   7.426   7.841   6.579
18975WAT     H257168   7.554   7.742   6.560
18976WAT      O57169   7.695   3.267   4.430
18976WAT     H157170   7.681   3.365   4.447
18976WAT     H257171   7.672   3.215   4.512
18977WAT      O57172   5.335   3.674   1.762
18977WAT     H157173   5.424   3.706   1.730
18977WAT     H257174   5.305   3.597   1.705
18978WAT      O57175   2.028   7.787   5.318
18978WAT     H157176   2.100   7.845   5.356
18978WAT     H257177   2.068   7.723   5.253
18979WAT      O57178   5.092   1.080   2.185
18979WAT     H157179   5.008   1.131   2.204
18979WAT     H257180   5.099   1.003   2.248
18980WAT      O57181   3.311   5.860   5.626
18980WAT     H157182   3.386   5.880   5.564
18980WAT     H257183   3.334   5.781   5.682
18981WAT      O57184   7.678   3.566   3.667
18981WAT     H157185   7.628   3.489   3.706
18981WAT     H257186   7.761   3.532   3.621
18982WAT      O57187   3.143   6.094   8.072
18982WAT     H157188   3.183   6.035   8.002
18982WAT     H257189   3.167   6.059   8.163
18983WAT      O57190   8.673   1.308   7.745
18983WAT     H157191   8.692   1.264   7.833
18983WAT     H257192   8.576   1.295   7.722
18984WAT      O57193   5.884   1.302   5.964
18984WAT     H157194   5.882   1.316   6.063
18984WAT     H257195   5.979   1.299   5.932
18985WAT      O57196   8.633   4.236   3.851
18985WAT     H157197   8.662   4.305   3.917
18985WAT     H257198   8.648   4.144   3.889
18986WAT      O57199   7.779   2.888   7.245
18986WAT     H157200   7.799   2.792   7.266
18986WAT     H257201   7.691   2.893   7.197
18987WAT      O57202   8.519   2.558   7.837
18987WAT     H157203   8.442   2.621   7.850
18987WAT     H257204   8.535   2.507   7.921
18988WAT      O57205   0.344   7.429   5.548
18988WAT     H157206   0.392   7.397   5.466
18988WAT     H257207   0.254   7.385   5.552
18989WAT      O57208   5.644   4.587   9.245
18989WAT     H157209   5.720   4.601   9.181
18989WAT     H257210   5.611   4.493   9.239
18990WAT      O57211   7.542   5.988   1.394
18990WAT     H157212   7.601   5.946   1.325
18990WAT     H257213   7.584   5.976   1.484
18991WAT      O57214   4.058   6.265   6.391
18991WAT     H157215   4.129   6.331   6.412
18991WAT     H257216   4.100   6.176   6.370
18992WAT      O57217   4.312   3.960   1.342
18992WAT     H157218   4.294   3.957   1.244
18992WAT     H257219   4.315   4.055   1.372
18993WAT      O57220   9.035   6.653   7.352
18993WAT     H157221   8.945   6.621   7.380
18993WAT     H257222   9.055   6.741   7.394
18994WAT      O57223   9.825   0.516   3.162
18994WAT     H157224   9.735   0.544   3.194
18994WAT     H257225   9.854   0.434   3.211
18995WAT      O57226   5.481   2.397   7.639
18995WAT     H157227   5.421   2.404   7.718
18995WAT     H257228   5.536   2.480   7.632
18996WAT      O57229   0.482   7.100   8.098
18996WAT     H157230   0.536   7.034   8.045
18996WAT     H257231   0.386   7.075   8.095
18997WAT      O57232   9.240   4.942   2.441
18997WAT     H157233   9.165   4.908   2.384
18997WAT     H257234   9.218   5.034   2.473
18998WAT      O57235   8.190   5.414   3.690
18998WAT     H157236   8.185   5.322   3.728
18998WAT     H257237   8.243   5.413   3.606
18999WAT      O57238   8.920   7.031   5.228
18999WAT     H157239   8.834   7.051   5.182
18999WAT     H257240   8.904   6.972   5.307
19000WAT      O57241   6.744   0.842   0.233
19000WAT     H157242   6.777   0.823   0.326
19000WAT     H257243   6.679   0.771   0.205
19001WAT      O57244   8.777   9.584   8.392
19001WAT     H157245   8.694   9.607   8.444
19001WAT     H257246   8.818   9.668   8.357
19002WAT      O57247   1.982   5.079   3.743
19002WAT     H157248   1.908   5.017   3.717
19002WAT     H257249   1.946   5.171   3.758
19003WAT      O57250   3.163   0.724   0.493
19003WAT     H157251   3.102   0.680   0.428
19003WAT     H257252   3.123   0.811   0.523
19004WAT      O57253   7.918   5.533   4.443
19004WAT     H157254   7.841   5.499   4.497
19004WAT     H257255   7.920   5.487   4.355
19005WAT      O57256   5.802   6.202   1.854
19005WAT     H157257   5.718   6.256   1.860
19005WAT     H257258   5.789   6.127   1.789
19006WAT      O57259   6.447   7.568   7.214
19006WAT     H157260   6.413   7.553   7.121
19006WAT     H257261   6.469   7.664   7.226
19007WAT      O57262   8.066   0.314   9.167
19007WAT     H157263   8.008   0.390   9.196
19007WAT     H257264   8.017   0.228   9.179
19008WAT      O57265   2.324   0.265   8.774
19008WAT     H157266   2.232   0.284   8.739
19008WAT     H257267   2.344   0.328   8.849
19009WAT      O57268   8.826   5.906   5.973
19009WAT     H157269   8.904   5.919   6.034
19009WAT     H257270   8.747   5.875   6.027
19010WAT      O57271   2.305   2.194   5.237
19010WAT     H157272   2.381   2.249   5.203
19010WAT     H257273   2.228   2.200   5.174
19011WAT      O57274   4.317   4.095   9.822
19011WAT     H157275   4.304   4.187   9.787
19011WAT     H257276   4.332   4.098   9.921
19012WAT      O57277   3.038   0.252   2.564
19012WAT     H157278   2.938   0.247   2.565
19012WAT     H257279   3.067   0.342   2.531
19013WAT      O57280   4.835   8.157   2.976
19013WAT     H157281   4.853   8.147   3.074
19013WAT     H257282   4.877   8.242   2.944
19014WAT      O57283   4.414   6.241   0.458
19014WAT     H157284   4.437   6.331   0.421
19014WAT     H257285   4.489   6.177   0.439
19015WAT      O57286   2.746   8.031   2.320
19015WAT     H157287   2.687   8.091   2.374
19015WAT     H257288   2.801   7.975   2.382
19016WAT      O57289   0.668   4.657   4.576
19016WAT     H157290   0.729   4.676   4.499
19016WAT     H257291   0.716   4.678   4.661
19017WAT      O57292   6.228   2.867   3.887
19017WAT     H157293   6.178   2.954   3.880
19017WAT     H257294   6.185   2.798   3.829
19018WAT      O57295   3.511   3.827   5.336
19018WAT     H157296   3.531   3.729   5.330
19018WAT     H257297   3.414   3.842   5.319
19019WAT      O57298   0.563   3.556   6.944
19019WAT     H157299   0.548   3.577   7.040
19019WAT     H257300   0.631   3.483   6.936
19020WAT      O57301   9.006   5.530   9.300
19020WAT     H157302   9.046   5.620   9.319
19020WAT     H257303   8.989   5.522   9.202
19021WAT      O57304   3.759   9.298   8.166
19021WAT     H157305   3.760   9.200   8.189
19021WAT     H257306   3.781   9.310   8.069
19022WAT      O57307   0.524   4.008   2.886
19022WAT     H157308   0.437   3.975   2.848
19022WAT     H257309   0.564   4.076   2.824
19023WAT      O57310   7.310   5.060   6.190
19023WAT     H157311   7.255   5.064   6.107
19023WAT     H257312   7.295   4.973   6.236
19024WAT      O57313   6.103   2.366   8.345
19024WAT     H157314   6.100   2.403   8.439
19024WAT     H257315   6.014   2.379   8.301
19025WAT      O57316   2.680   0.490   1.236
19025WAT     H157317   2.678   0.484   1.336
19025WAT     H257318   2.594   0.530   1.204
19026WAT      O57319   1.213   4.878   8.271
19026WAT     H157320   1.212   4.778   8.266
19026WAT     H257321   1.244   4.907   8.362
19027WAT      O57322   5.813   0.849   9.706
19027WAT     H157323   5.740   0.783   9.722
19027WAT     H257324   5.830   0.902   9.789
19028WAT      O57325   3.204   6.807   0.083
19028WAT     H157326   3.109   6.837   0.091
19028WAT     H257327   3.254   6.872   0.024
19029WAT      O57328   1.547   5.978   9.152
19029WAT     H157329   1.557   5.913   9.227
19029WAT     H257330   1.598   5.945   9.072
19030WAT      O57331   8.074   8.703   4.259
19030WAT     H157332   8.152   8.643   4.278
19030WAT     H257333   8.073   8.728   4.163
19031WAT      O57334   5.223   1.366   4.702
19031WAT     H157335   5.198   1.361   4.605
19031WAT     H257336   5.219   1.461   4.733
19032WAT      O57337   5.065   9.770   2.601
19032WAT     H157338   5.026   9.680   2.623
19032WAT     H257339   4.994   9.839   2.610
19033WAT      O57340   2.434   2.112   3.256
19033WAT     H157341   2.468   2.018   3.251
19033WAT     H257342   2.349   2.119   3.205
19034WAT      O57343   1.578   0.660   5.321
19034WAT     H157344   1.592   0.704   5.409
19034WAT     H257345   1.480   0.654   5.301
19035WAT      O57346   6.602   0.675   1.836
19035WAT     H157347   6.568   0.585   1.863
19035WAT     H257348   6.665   0.709   1.907
19036WAT      O57349   0.013   4.291   1.752
19036WAT     H157350  -0.002   4.351   1.830
19036WAT     H257351   0.083   4.223   1.776
19037WAT      O57352   6.661   6.338   3.537
19037WAT     H157353   6.601   6.368   3.611
19037WAT     H257354   6.737   6.286   3.575
19038WAT      O57355   2.520   2.185   0.830
19038WAT     H157356   2.441   2.129   0.805
19038WAT     H257357   2.591   2.175   0.761
19039WAT      O57358   7.652   2.239   7.902
19039WAT     H157359   7.585   2.177   7.860
19039WAT     H257360   7.690   2.299   7.832
19040WAT      O57361   1.800   5.563   4.625
19040WAT     H157362   1.753   5.645   4.592
19040WAT     H257363   1.812   5.568   4.724
19041WAT      O57364   8.444   3.270   3.091
19041WAT     H157365   8.423   3.212   3.012
19041WAT     H257366   8.406   3.361   3.076
19042WAT      O57367   3.033   9.299   0.953
19042WAT     H157368   3.041   9.232   1.027
19042WAT     H257369   2.959   9.363   0.975
19043WAT      O57370   5.613   7.184   8.997
19043WAT     H157371   5.685   7.138   9.049
19043WAT     H257372   5.630   7.283   8.996
19044WAT      O57373   7.981   6.832   0.992
19044WAT     H157374   7.966   6.747   1.042
19044WAT     H257375   8.079   6.847   0.980
19045WAT      O57376   1.173   1.002   0.278
19045WAT     H157377   1.167   0.969   0.372
19045WAT     H257378   1.152   1.100   0.276
19046WAT      O57379   4.036   2.050   9.708
19046WAT     H157380   3.984   2.069   9.624
19046WAT     H257381   4.041   2.133   9.763
19047WAT      O57382   4.093   7.455   9.514
19047WAT     H157383   4.086   7.355   9.524
19047WAT     H257384   4.097   7.497   9.604
19048WAT      O57385   6.483   1.944   9.500
19048WAT     H157386   6.470   2.041   9.523
19048WAT     H257387   6.532   1.899   9.575
19049WAT      O57388   4.644   8.656   6.654
19049WAT     H157389   4.724   8.716   6.663
19049WAT     H257390   4.657   8.595   6.576
19050WAT      O57391   1.690   7.822   8.052
19050WAT     H157392   1.749   7.848   7.976
19050WAT     H257393   1.700   7.889   8.126
19051WAT      O57394   3.710   2.268   3.968
19051WAT     H157395   3.790   2.241   3.915
19051WAT     H257396   3.708   2.218   4.055
19052WAT      O57397   8.216   3.783   6.025
19052WAT     H157398   8.250   3.874   6.049
19052WAT     H257399   8.288   3.731   5.979
19053WAT      O57400   5.516   3.090   9.746
19053WAT     H157401   5.588   3.028   9.713
19053WAT     H257402   5.482   3.057   9.835
19054WAT      O57403   3.431   5.714   0.988
19054WAT     H157404   3.379   5.632   0.963
19054WAT     H257405   3.392   5.794   0.941
19055WAT      O57406   0.471   9.423   0.186
19055WAT     H157407   0.448   9.366   0.266
19055WAT     H257408   0.523   9.502   0.215
19056WAT      O57409   2.261   1.229   6.868
19056WAT     H157410   2.344   1.199   6.915
19056WAT     H257411   2.191   1.253   6.936
19057WAT      O57412   7.802   1.518   2.538
19057WAT     H157413   7.862   1.463   2.479
19057WAT     H257414   7.817   1.615   2.520
19058WAT      O57415   4.804   7.206   3.544
19058WAT     H157416   4.842   7.114   3.536
19058WAT     H257417   4.811   7.237   3.639
19059WAT      O57418   7.759   7.250   0.338
19059WAT     H157419   7.847   7.205   0.318
19059WAT     H257420   7.722   7.288   0.253
19060WAT      O57421   4.064   5.534   9.343
19060WAT     H157422   3.965   5.524   9.337
19060WAT     H257423   4.100   5.472   9.412
19061WAT      O57424   6.379   8.299   1.069
19061WAT     H157425   6.418   8.235   1.134
19061WAT     H257426   6.282   8.313   1.089
19062WAT      O57427   9.410   8.928   6.271
19062WAT     H157428   9.425   8.839   6.313
19062WAT     H257429   9.389   8.995   6.342
19063WAT      O57430   6.985   5.506   8.245
19063WAT     H157431   6.921   5.514   8.322
19063WAT     H257432   7.027   5.595   8.228
19064WAT      O57433   3.088   3.070   4.242
19064WAT     H157434   3.060   3.099   4.150
19064WAT     H257435   3.160   3.002   4.235
19065WAT      O57436   3.247   0.309   3.514
19065WAT     H157437   3.195   0.231   3.478
19065WAT     H257438   3.340   0.279   3.535
19066WAT      O57439   8.711   6.345   6.158
19066WAT     H157440   8.685   6.441   6.153
19066WAT     H257441   8.690   6.300   6.072
19067WAT      O57442   0.972   5.010   3.530
19067WAT     H157443   1.026   5.076   3.477
19067WAT     H257444   1.021   4.988   3.615
19068WAT      O57445   6.517   3.971   2.821
19068WAT     H157446   6.528   3.905   2.747
19068WAT     H257447   6.541   4.062   2.788
19069WAT      O57448   3.794   0.620   5.218
19069WAT     H157449   3.706   0.599   5.175
19069WAT     H257450   3.822   0.713   5.193
19070WAT      O57451   6.387   7.374   7.976
19070WAT     H157452   6.383   7.461   8.026
19070WAT     H257453   6.295   7.336   7.970
19071WAT      O57454   5.133   2.028   6.495
19071WAT     H157455   5.200   1.967   6.453
19071WAT     H257456   5.064   1.973   6.543
19072WAT      O57457   9.799   0.606   5.628
19072WAT     H157458   9.720   0.654   5.590
19072WAT     H257459   9.874   0.671   5.639
19073WAT      O57460   2.304   5.103   4.337
19073WAT     H157461   2.255   5.125   4.253
19073WAT     H257462   2.392   5.062   4.314
19074WAT      O57463   0.672   3.700   0.845
19074WAT     H157464   0.727   3.742   0.917
19074WAT     H257465   0.670   3.601   0.857
19075WAT      O57466   9.074   0.530   0.803
19075WAT     H157467   9.170   0.552   0.818
19075WAT     H257468   9.059   0.433   0.819
19076WAT      O57469   6.755   8.047   5.456
19076WAT     H157470   6.729   8.141   5.437
19076WAT     H257471   6.763   7.996   5.370
19077WAT      O57472   9.691   5.337   9.267
19077WAT     H157473   9.729   5.245   9.277
19077WAT     H257474   9.604   5.332   9.218
19078WAT      O57475   8.805   4.579   9.566
19078WAT     H157476   8.731   4.572   9.633
19078WAT     H257477   8.783   4.652   9.500
19079WAT      O57478   3.633   4.234   0.163
19079WAT     H157479   3.720   4.239   0.112
19079WAT     H257480   3.619   4.141   0.196
19080WAT      O57481   6.267   1.651   9.817
19080WAT     H157482   6.231   1.560   9.836
19080WAT     H257483   6.235   1.681   9.727
19081WAT      O57484   9.001   0.232   5.350
19081WAT     H157485   8.986   0.134   5.358
19081WAT     H257486   9.051   0.252   5.265
19082WAT      O57487   3.362   6.532   2.942
19082WAT     H157488   3.448   6.577   2.922
19082WAT     H257489   3.376   6.433   2.946
19083WAT      O57490   4.059   3.775   0.976
19083WAT     H157491   4.140   3.804   1.026
19083WAT     H257492   4.086   3.710   0.904
19084WAT      O57493   2.592   4.488   3.615
19084WAT     H157494   2.682   4.525   3.594
19084WAT     H257495   2.550   4.542   3.689
19085WAT      O57496   4.036   9.682   7.224
19085WAT     H157497   4.008   9.763   7.172
19085WAT     H257498   4.017   9.600   7.170
19086WAT      O57499   7.487   8.687   3.412
19086WAT     H157500   7.426   8.738   3.351
19086WAT     H257501   7.571   8.740   3.426
19087WAT      O57502   2.847   0.162   5.122
19087WAT     H157503   2.747   0.161   5.116
19087WAT     H257504   2.874   0.181   5.217
19088WAT      O57505   8.999   0.237   0.590
19088WAT     H157506   8.903   0.255   0.569
19088WAT     H257507   9.005   0.163   0.657
19089WAT      O57508   5.989   8.052   7.142
19089WAT     H157509   5.983   8.020   7.236
19089WAT     H257510   6.072   8.015   7.100
19090WAT      O57511   2.834   4.541   7.404
19090WAT     H157512   2.884   4.460   7.435
19090WAT     H257513   2.836   4.545   7.304
19091WAT      O57514   2.314   3.536   1.799
19091WAT     H157515   2.374   3.528   1.720
19091WAT     H257516   2.219   3.538   1.768
19092WAT      O57517   1.835   3.528   1.009
19092WAT     H157518   1.878   3.439   1.026
19092WAT     H257519   1.799   3.530   0.916
19093WAT      O57520   2.606   9.210   1.797
19093WAT     H157521   2.639   9.120   1.825
19093WAT     H257522   2.514   9.224   1.833
19094WAT      O57523   5.479   9.379   8.204
19094WAT     H157524   5.424   9.430   8.138
19094WAT     H257525   5.569   9.422   8.213
19095WAT      O57526   9.783   5.828   6.684
19095WAT     H157527   9.753   5.759   6.750
19095WAT     H257528   9.718   5.904   6.684
19096WAT      O57529   3.940   9.791   6.031
19096WAT     H157530   3.933   9.869   5.969
19096WAT     H257531   3.851   9.748   6.041
19097WAT      O57532   0.579   1.257   5.389
19097WAT     H157533   0.675   1.238   5.410
19097WAT     H257534   0.547   1.195   5.317
19098WAT      O57535   4.946   9.276   3.799
19098WAT     H157536   4.857   9.280   3.844
19098WAT     H257537   4.950   9.344   3.726
19099WAT      O57538   9.202   5.277   8.611
19099WAT     H157539   9.113   5.233   8.602
19099WAT     H257540   9.226   5.323   8.525
19100WAT      O57541   4.055   5.412   7.504
19100WAT     H157542   4.075   5.419   7.602
19100WAT     H257543   4.021   5.500   7.471
19101WAT      O57544   4.992   6.076   3.603
19101WAT     H157545   5.047   5.993   3.588
19101WAT     H257546   4.971   6.119   3.516
19102WAT      O57547   1.795   3.865   7.660
19102WAT     H157548   1.856   3.941   7.635
19102WAT     H257549   1.701   3.889   7.637
19103WAT      O57550   9.421   1.239   0.187
19103WAT     H157551   9.437   1.235   0.088
19103WAT     H257552   9.460   1.158   0.230
19104WAT      O57553   0.053   0.671   2.677
19104WAT     H157554   0.101   0.719   2.750
19104WAT     H257555   0.041   0.733   2.599
19105WAT      O57556   4.697   7.176   9.119
19105WAT     H157557   4.702   7.150   9.215
19105WAT     H257558   4.610   7.144   9.080
19106WAT      O57559   3.462   5.685   8.464
19106WAT     H157560   3.473   5.763   8.402
19106WAT     H257561   3.528   5.692   8.538
19107WAT      O57562   5.132   6.089   9.125
19107WAT     H157563   5.131   5.989   9.136
19107WAT     H257564   5.226   6.122   9.136
19108WAT      O57565   0.616   3.645   0.399
19108WAT     H157566   0.558   3.568   0.373
19108WAT     H257567   0.560   3.728   0.406
19109WAT      O57568   1.476   7.108   9.416
19109WAT     H157569   1.551   7.079   9.476
19109WAT     H257570   1.419   7.175   9.464
19110WAT      O57571   9.702   2.978   8.881
19110WAT     H157572   9.751   2.891   8.873
19110WAT     H257573   9.609   2.961   8.915
19111WAT      O57574   5.556   1.373   1.756
19111WAT     H157575   5.606   1.287   1.749
19111WAT     H257576   5.610   1.447   1.716
19112WAT      O57577   3.990   4.524   8.237
19112WAT     H157578   4.069   4.586   8.233
19112WAT     H257579   3.934   4.535   8.155
19113WAT      O57580   6.530   1.325   0.363
19113WAT     H157581   6.572   1.296   0.449
19113WAT     H257582   6.530   1.425   0.358
19114WAT      O57583   8.635   4.765   5.629
19114WAT     H157584   8.706   4.812   5.577
19114WAT     H257585   8.674   4.732   5.715
19115WAT      O57586   2.992   5.669   5.526
19115WAT     H157587   2.987   5.644   5.429
19115WAT     H257588   2.904   5.652   5.570
19116WAT      O57589   4.228   5.590   3.917
19116WAT     H157590   4.145   5.534   3.920
19116WAT     H257591   4.305   5.538   3.953
19117WAT      O57592   2.147   6.206   7.764
19117WAT     H157593   2.064   6.155   7.739
19117WAT     H257594   2.139   6.300   7.731
19118WAT      O57595   3.758   6.987   6.661
19118WAT     H157596   3.660   6.997   6.676
19118WAT     H257597   3.788   7.055   6.593
19119WAT      O57598   2.237   9.181   2.222
19119WAT     H157599   2.199   9.180   2.129
19119WAT     H257600   2.212   9.265   2.268
19120WAT      O57601   6.488   7.154   0.411
19120WAT     H157602   6.558   7.190   0.350
19120WAT     H257603   6.406   7.211   0.405
19121WAT      O57604   1.992   1.411   5.628
19121WAT     H157605   1.918   1.446   5.686
19121WAT     H257606   1.986   1.453   5.538
19122WAT      O57607   3.372   8.531   0.478
19122WAT     H157608   3.321   8.617   0.473
19122WAT     H257609   3.391   8.499   0.385
19123WAT      O57610   1.733   7.710   3.120
19123WAT     H157611   1.740   7.642   3.193
19123WAT     H257612   1.748   7.666   3.031
19124WAT      O57613   8.450   4.695   1.103
19124WAT     H157614   8.468   4.726   1.009
19124WAT     H257615   8.355   4.715   1.127
19125WAT      O57616   8.510   1.954   4.876
19125WAT     H157617   8.413   1.976   4.866
19125WAT     H257618   8.532   1.874   4.819
19126WAT      O57619   9.257   3.128   0.830
19126WAT     H157620   9.312   3.098   0.752
19126WAT     H257621   9.230   3.223   0.818
19127WAT      O57622   1.576   4.293   7.989
19127WAT     H157623   1.663   4.311   7.943
19127WAT     H257624   1.581   4.204   8.034
19128WAT      O57625   2.651   4.508   2.505
19128WAT     H157626   2.745   4.524   2.535
19128WAT     H257627   2.598   4.468   2.580
19129WAT      O57628   7.430   7.053   8.075
19129WAT     H157629   7.464   7.104   8.154
19129WAT     H257630   7.435   7.112   7.994
19130WAT      O57631   2.154   9.463   7.444
19130WAT     H157632   2.187   9.452   7.350
19130WAT     H257633   2.150   9.373   7.488
19131WAT      O57634   4.564   3.524   4.892
19131WAT     H157635   4.481   3.503   4.945
19131WAT     H257636   4.563   3.469   4.808
19132WAT      O57637   4.021   3.955   0.240
19132WAT     H157638   3.950   3.986   0.302
19132WAT     H257639   4.043   3.859   0.259
19133WAT      O57640   4.878   9.559   4.561
19133WAT     H157641   4.842   9.473   4.597
19133WAT     H257642   4.964   9.581   4.607
19134WAT      O57643   1.632   5.380   6.559
19134WAT     H157644   1.703   5.331   6.509
19134WAT     H257645   1.673   5.431   6.634
19135WAT      O57646   4.460   8.722   9.440
19135WAT     H157647   4.557   8.744   9.434
19135WAT     H257648   4.407   8.786   9.384
19136WAT      O57649   1.619   5.649   1.253
19136WAT     H157650   1.681   5.676   1.326
19136WAT     H257651   1.602   5.727   1.193
19137WAT      O57652   8.381   0.279   6.717
19137WAT     H157653   8.334   0.361   6.687
19137WAT     H257654   8.379   0.274   6.817
19138WAT      O57655   8.529   7.732   8.086
19138WAT     H157656   8.442   7.726   8.136
19138WAT     H257657   8.604   7.715   8.150
19139WAT      O57658   0.372   6.650   8.507
19139WAT     H157659   0.443   6.622   8.572
19139WAT     H257660   0.401   6.735   8.462
19140WAT      O57661   3.788   9.301   7.316
19140WAT     H157662   3.766   9.399   7.313
19140WAT     H257663   3.705   9.247   7.306
19141WAT      O57664   1.043   0.182   3.704
19141WAT     H157665   1.036   0.108   3.771
19141WAT     H257666   0.972   0.250   3.721
19142WAT      O57667   4.458   4.957   2.427
19142WAT     H157668   4.372   4.906   2.424
19142WAT     H257669   4.480   4.981   2.522
19143WAT      O57670   1.449   9.054   8.323
19143WAT     H157671   1.454   9.140   8.375
19143WAT     H257672   1.439   8.977   8.387
19144WAT      O57673   1.770   3.417   2.399
19144WAT     H157674   1.676   3.385   2.414
19144WAT     H257675   1.826   3.390   2.478
19145WAT      O57676   1.333   3.418   4.330
19145WAT     H157677   1.283   3.335   4.357
19145WAT     H257678   1.409   3.394   4.270
19146WAT      O57679   2.842   2.398   1.087
19146WAT     H157680   2.892   2.333   1.029
19146WAT     H257681   2.846   2.489   1.047
19147WAT      O57682   4.114   0.860   6.925
19147WAT     H157683   4.187   0.792   6.916
19147WAT     H257684   4.055   0.835   7.002
19148WAT      O57685   4.547   6.558   9.760
19148WAT     H157686   4.613   6.554   9.685
19148WAT     H257687   4.596   6.564   9.847
19149WAT      O57688   6.293   1.499   9.450
19149WAT     H157689   6.270   1.594   9.474
19149WAT     H257690   6.297   1.490   9.350
19150WAT      O57691   0.906   1.779   9.266
19150WAT     H157692   0.849   1.756   9.187
19150WAT     H257693   0.950   1.696   9.300
19151WAT      O57694   0.525   8.596   3.012
19151WAT     H157695   0.441   8.555   2.977
19151WAT     H257696   0.589   8.613   2.937
19152WAT      O57697   9.582   6.531   8.472
19152WAT     H157698   9.588   6.544   8.571
19152WAT     H257699   9.565   6.619   8.428
19153WAT      O57700   5.158   1.344   1.171
19153WAT     H157701   5.219   1.265   1.175
19153WAT     H257702   5.182   1.408   1.245
19154WAT      O57703   2.307   1.995   4.605
19154WAT     H157704   2.209   2.002   4.583
19154WAT     H257705   2.347   2.087   4.606
19155WAT      O57706   9.063   8.508   1.529
19155WAT     H157707   9.070   8.506   1.629
19155WAT     H257708   8.983   8.455   1.500
19156WAT      O57709   9.282   5.505   1.209
19156WAT     H157710   9.380   5.522   1.208
19156WAT     H257711   9.264   5.413   1.244
19157WAT      O57712   5.615   0.295   9.501
19157WAT     H157713   5.578   0.227   9.437
19157WAT     H257714   5.600   0.387   9.464
19158WAT      O57715   0.202   0.775   9.011
19158WAT     H157716   0.236   0.696   8.961
19158WAT     H257717   0.278   0.821   9.057
19159WAT      O57718   7.545   4.883   2.461
19159WAT     H157719   7.482   4.866   2.386
19159WAT     H257720   7.580   4.796   2.495
19160WAT      O57721   3.060   4.348   4.983
19160WAT     H157722   3.140   4.293   4.959
19160WAT     H257723   3.019   4.383   4.899
19161WAT      O57724   7.526   7.844   4.985
19161WAT     H157725   7.468   7.767   4.961
19161WAT     H257726   7.479   7.902   5.052
19162WAT      O57727   4.042   3.135   9.525
19162WAT     H157728   4.128   3.100   9.486
19162WAT     H257729   4.040   3.235   9.516
19163WAT      O57730   5.968   1.578   8.561
19163WAT     H157731   5.885   1.557   8.612
19163WAT     H257732   5.954   1.560   8.464
19164WAT      O57733   2.418   9.073   9.836
19164WAT     H157734   2.367   9.147   9.791
19164WAT     H257735   2.514   9.101   9.848
19165WAT      O57736   2.715   8.071   0.805
19165WAT     H157737   2.624   8.111   0.815
19165WAT     H257738   2.709   7.972   0.820
19166WAT      O57739   9.265   3.184   7.871
19166WAT     H157740   9.226   3.244   7.941
19166WAT     H257741   9.192   3.142   7.818
19167WAT      O57742   7.237   8.587   5.688
19167WAT     H157743   7.215   8.614   5.595
19167WAT     H257744   7.334   8.600   5.705
19168WAT      O57745   0.846   3.275   5.088
19168WAT     H157746   0.764   3.252   5.141
19168WAT     H257747   0.859   3.207   5.016
19169WAT      O57748   6.492   2.442   1.688
19169WAT     H157749   6.536   2.396   1.765
19169WAT     H257750   6.398   2.409   1.679
19170WAT      O57751   7.828   9.825   6.585
19170WAT     H157752   7.873   9.787   6.666
19170WAT     H257753   7.804   9.751   6.522
19171WAT      O57754   8.090   6.725   0.611
19171WAT     H157755   8.007   6.782   0.616
19171WAT     H257756   8.077   6.652   0.545
19172WAT      O57757   7.341   7.503   6.039
19172WAT     H157758   7.331   7.455   5.952
19172WAT     H257759   7.435   7.535   6.049
19173WAT      O57760   7.006   8.701   9.285
19173WAT     H157761   7.040   8.752   9.206
19173WAT     H257762   6.906   8.694   9.280
19174WAT      O57763   3.481   4.271   5.482
19174WAT     H157764   3.467   4.184   5.529
19174WAT     H257765   3.405   4.333   5.501
19175WAT      O57766   0.432   5.491   7.401
19175WAT     H157767   0.427   5.427   7.324
19175WAT     H257768   0.400   5.446   7.484
19176WAT      O57769   5.226   3.334   8.894
19176WAT     H157770   5.312   3.381   8.875
19176WAT     H257771   5.161   3.399   8.934
19177WAT      O57772   0.809   1.346   8.698
19177WAT     H157773   0.753   1.387   8.770
19177WAT     H257774   0.855   1.264   8.733
19178WAT      O57775   6.129   7.730   1.746
19178WAT     H157776   6.118   7.827   1.765
19178WAT     H257777   6.106   7.677   1.827
19179WAT      O57778   2.538   8.206   3.077
19179WAT     H157779   2.481   8.179   3.155
19179WAT     H257780   2.608   8.271   3.108
19180WAT      O57781   3.633   9.790   4.589
19180WAT     H157782   3.692   9.834   4.521
19180WAT     H257783   3.660   9.819   4.680
19181WAT      O57784   0.908   4.528   9.326
19181WAT     H157785   0.983   4.543   9.391
19181WAT     H257786   0.897   4.609   9.269
19182WAT      O57787   8.792   8.463   6.171
19182WAT     H157788   8.806   8.369   6.203
19182WAT     H257789   8.769   8.522   6.249
19183WAT      O57790   2.879   8.700   4.671
19183WAT     H157791   2.804   8.723   4.609
19183WAT     H257792   2.942   8.637   4.625
19184WAT      O57793   7.612   6.155   1.755
19184WAT     H157794   7.514   6.154   1.736
19184WAT     H257795   7.641   6.249   1.775
19185WAT      O57796   1.446   9.391   5.529
19185WAT     H157797   1.452   9.470   5.468
19185WAT     H257798   1.534   9.378   5.576
19186WAT      O57799   5.151   4.376   7.388
19186WAT     H157800   5.243   4.346   7.362
19186WAT     H257801   5.157   4.447   7.457
19187WAT      O57802   4.739   9.503   2.851
19187WAT     H157803   4.776   9.421   2.807
19187WAT     H257804   4.750   9.496   2.950
19188WAT      O57805   7.924   9.159   6.302
19188WAT     H157806   8.000   9.093   6.294
19188WAT     H257807   7.897   9.168   6.397
19189WAT      O57808   9.660   6.635   2.804
19189WAT     H157809   9.652   6.684   2.892
19189WAT     H257810   9.606   6.551   2.807
19190WAT      O57811   4.753   1.874   6.164
19190WAT     H157812   4.773   1.965   6.127
19190WAT     H257813   4.674   1.880   6.225
19191WAT      O57814   5.863   5.777   6.313
19191WAT     H157815   5.874   5.835   6.394
19191WAT     H257816   5.911   5.691   6.327
19192WAT      O57817   4.411   0.797   6.453
19192WAT     H157818   4.471   0.810   6.374
19192WAT     H257819   4.466   0.770   6.532
19193WAT      O57820   2.350   6.675   1.015
19193WAT     H157821   2.436   6.649   1.059
19193WAT     H257822   2.367   6.697   0.918
19194WAT      O57823   0.247   4.020   8.653
19194WAT     H157824   0.168   4.074   8.683
19194WAT     H257825   0.331   4.069   8.675
19195WAT      O57826   6.809   2.863   2.628
19195WAT     H157827   6.798   2.767   2.655
19195WAT     H257828   6.747   2.919   2.682
19196WAT      O57829   6.816   2.289   7.819
19196WAT     H157830   6.761   2.352   7.875
19196WAT     H257831   6.901   2.334   7.792
19197WAT      O57832   7.916   4.667   0.976
19197WAT     H157833   7.946   4.715   0.893
19197WAT     H257834   7.994   4.652   1.036
19198WAT      O57835   2.138   3.316   9.859
19198WAT     H157836   2.067   3.381   9.885
19198WAT     H257837   2.143   3.310   9.759
19199WAT      O57838   8.341   3.621   1.752
19199WAT     H157839   8.349   3.542   1.691
19199WAT     H257840   8.262   3.675   1.727
19200WAT      O57841   9.748   0.011   7.466
19200WAT     H157842   9.744   0.069   7.547
19200WAT     H257843   9.801   0.057   7.395
19201WAT      O57844   6.140   7.524   6.842
19201WAT     H157845   6.191   7.590   6.789
19201WAT     H257846   6.089   7.463   6.781
19202WAT      O57847   7.309   1.961   0.518
19202WAT     H157848   7.332   1.992   0.611
19202WAT     H257849   7.324   1.862   0.512
19203WAT      O57850   9.720   4.611   6.459
19203WAT     H157851   9.644   4.588   6.520
19203WAT     H257852   9.805   4.612   6.512
19204WAT      O57853   4.628   1.253   0.807
19204WAT     H157854   4.726   1.261   0.829
19204WAT     H257855   4.614   1.276   0.711
19205WAT      O57856   6.299   1.399   9.196
19205WAT     H157857   6.374   1.407   9.130
19205WAT     H257858   6.280   1.303   9.214
19206WAT      O57859   3.786   3.137   4.288
19206WAT     H157860   3.720   3.210   4.307
19206WAT     H257861   3.874   3.160   4.328
19207WAT      O57862   7.640   5.677   0.588
19207WAT     H157863   7.630   5.586   0.548
19207WAT     H257864   7.562   5.696   0.647
19208WAT      O57865   1.500   9.247   0.766
19208WAT     H157866   1.576   9.202   0.719
19208WAT     H257867   1.431   9.180   0.791
19209WAT      O57868   3.682   1.037   1.510
19209WAT     H157869   3.769   1.071   1.475
19209WAT     H257870   3.616   1.112   1.515
19210WAT      O57871   9.703   3.070   1.221
19210WAT     H157872   9.632   3.013   1.179
19210WAT     H257873   9.792   3.047   1.182
19211WAT      O57874   6.373   9.002   2.571
19211WAT     H157875   6.366   8.972   2.476
19211WAT     H257876   6.450   9.066   2.580
19212WAT      O57877   0.827   9.723   8.941
19212WAT     H157878   0.812   9.776   9.025
19212WAT     H257879   0.789   9.772   8.863
19213WAT      O57880   1.419   6.673   3.118
19213WAT     H157881   1.432   6.578   3.088
19213WAT     H257882   1.466   6.735   3.054
19214WAT      O57883   4.201   6.908   5.254
19214WAT     H157884   4.140   6.972   5.207
19214WAT     H257885   4.279   6.887   5.195
19215WAT      O57886   7.851   6.067   0.582
19215WAT     H157887   7.790   6.026   0.514
19215WAT     H257888   7.825   6.163   0.596
19216WAT      O57889   6.702   4.246   1.568
19216WAT     H157890   6.800   4.230   1.553
19216WAT     H257891   6.691   4.318   1.637
19217WAT      O57892   1.742   7.925   1.462
19217WAT     H157893   1.694   7.839   1.447
19217WAT     H257894   1.699   7.973   1.539
19218WAT      O57895   2.751   5.636   5.670
19218WAT     H157896   2.664   5.685   5.663
19218WAT     H257897   2.783   5.637   5.764
19219WAT      O57898   1.076   1.262   9.720
19219WAT     H157899   1.025   1.274   9.635
19219WAT     H257900   1.116   1.349   9.748
19220WAT      O57901   2.475   9.641   7.714
19220WAT     H157902   2.420   9.558   7.728
19220WAT     H257903   2.522   9.634   7.627
19221WAT      O57904   6.634   1.968   3.059
19221WAT     H157905   6.586   1.989   2.974
19221WAT     H257906   6.600   1.882   3.096
19222WAT      O57907   9.045   8.248   2.168
19222WAT     H157908   9.120   8.291   2.218
19222WAT     H257909   8.963   8.246   2.226
19223WAT      O57910   5.962   5.006   2.828
19223WAT     H157911   5.902   4.929   2.851
19223WAT     H257912   5.907   5.082   2.794
19224WAT      O57913   7.181   9.746   3.462
19224WAT     H157914   7.109   9.682   3.436
19224WAT     H257915   7.163   9.836   3.423
19225WAT      O57916   0.114   3.410   5.518
19225WAT     H157917   0.036   3.362   5.558
19225WAT     H257918   0.192   3.347   5.512
19226WAT      O57919   3.007   0.555   2.754
19226WAT     H157920   2.983   0.651   2.743
19226WAT     H257921   3.029   0.516   2.664
19227WAT      O57922   6.757   8.889   6.165
19227WAT     H157923   6.694   8.942   6.108
19227WAT     H257924   6.829   8.949   6.200
19228WAT      O57925   7.438   7.241   7.538
19228WAT     H157926   7.473   7.311   7.476
19228WAT     H257927   7.356   7.200   7.500
19229WAT      O57928   5.887   7.697   5.239
19229WAT     H157929   5.947   7.772   5.266
19229WAT     H257930   5.792   7.722   5.259
19230WAT      O57931   7.295   8.843   4.394
19230WAT     H157932   7.274   8.847   4.297
19230WAT     H257933   7.378   8.896   4.413
19231WAT      O57934   3.349   5.454   5.904
19231WAT     H157935   3.306   5.424   5.818
19231WAT     H257936   3.394   5.542   5.889
19232WAT      O57937   7.337   4.567   6.333
19232WAT     H157938   7.240   4.583   6.352
19232WAT     H257939   7.392   4.622   6.396
19233WAT      O57940   2.229   5.325   7.154
19233WAT     H157941   2.257   5.382   7.076
19233WAT     H257942   2.299   5.329   7.225
19234WAT      O57943   6.143   8.247   6.890
19234WAT     H157944   6.184   8.323   6.940
19234WAT     H257945   6.046   8.268   6.872
19235WAT      O57946   8.396   6.674   0.302
19235WAT     H157947   8.459   6.719   0.238
19235WAT     H257948   8.302   6.696   0.277
19236WAT      O57949   7.632   4.707   6.006
19236WAT     H157950   7.604   4.791   6.052
19236WAT     H257951   7.553   4.646   5.996
19237WAT      O57952   1.653   4.208   3.056
19237WAT     H157953   1.675   4.122   3.103
19237WAT     H257954   1.618   4.187   2.964
19238WAT      O57955   0.758   5.089   5.728
19238WAT     H157956   0.827   5.070   5.798
19238WAT     H257957   0.787   5.168   5.674
19239WAT      O57958   2.266   0.590   2.610
19239WAT     H157959   2.294   0.628   2.522
19239WAT     H257960   2.297   0.495   2.617
19240WAT      O57961   8.026   5.044   5.336
19240WAT     H157962   8.102   5.027   5.273
19240WAT     H257963   8.062   5.057   5.429
19241WAT      O57964   2.490   4.617   5.949
19241WAT     H157965   2.433   4.698   5.937
19241WAT     H257966   2.576   4.629   5.898
19242WAT      O57967   6.210   4.769   9.483
19242WAT     H157968   6.300   4.728   9.469
19242WAT     H257969   6.139   4.709   9.447
19243WAT      O57970   4.203   0.511   5.773
19243WAT     H157971   4.295   0.476   5.754
19243WAT     H257972   4.209   0.589   5.836
19244WAT      O57973   4.820   3.974   1.406
19244WAT     H157974   4.728   3.976   1.366
19244WAT     H257975   4.827   3.896   1.468
19245WAT      O57976   4.749   3.058   9.531
19245WAT     H157977   4.714   3.064   9.624
19245WAT     H257978   4.819   2.987   9.526
19246WAT      O57979   8.088   1.044   5.918
19246WAT     H157980   8.132   1.021   6.005
19246WAT     H257981   8.023   1.118   5.932
19247WAT      O57982   4.064   2.262   3.211
19247WAT     H157983   4.125   2.188   3.185
19247WAT     H257984   4.020   2.240   3.298
19248WAT      O57985   4.679   1.057   4.076
19248WAT     H157986   4.661   1.124   4.004
19248WAT     H257987   4.619   1.075   4.154
19249WAT      O57988   6.613   9.742   8.797
19249WAT     H157989   6.683   9.687   8.842
19249WAT     H257990   6.546   9.682   8.754
19250WAT      O57991   8.992   7.578   6.551
19250WAT     H157992   8.994   7.671   6.587
19250WAT     H257993   8.898   7.550   6.534
19251WAT      O57994   4.697   1.741   6.543
19251WAT     H157995   4.660   1.695   6.624
19251WAT     H257996   4.786   1.781   6.566
19252WAT      O57997   0.642   7.528   9.140
19252WAT     H157998   0.602   7.611   9.102
19252WAT     H257999   0.741   7.542   9.152
19253WAT      O58000   3.414   5.948   1.983
19253WAT     H158001   3.483   5.889   1.940
19253WAT     H258002   3.457   6.005   2.052
19254WAT      O58003   1.373   0.054   6.951
19254WAT     H158004   1.283   0.088   6.977
19254WAT     H258005   1.444   0.108   6.996
19255WAT      O58006   4.869   5.861   9.377
19255WAT     H158007   4.838   5.820   9.291
19255WAT     H258008   4.910   5.950   9.360
19256WAT      O58009   4.324   5.969   9.485
19256WAT     H158010   4.348   5.930   9.574
19256WAT     H258011   4.236   5.932   9.455
19257WAT      O58012   7.317   8.577   3.588
19257WAT     H158013   7.391   8.604   3.527
19257WAT     H258014   7.258   8.656   3.606
19258WAT      O58015   7.955   6.738   4.279
19258WAT     H158016   7.968   6.837   4.282
19258WAT     H258017   7.874   6.713   4.332
19259WAT      O58018   9.650   5.308   4.232
19259WAT     H158019   9.691   5.293   4.322
19259WAT     H258020   9.592   5.390   4.235
19260WAT      O58021   1.482   2.728   0.416
19260WAT     H158022   1.402   2.722   0.475
19260WAT     H258023   1.489   2.821   0.380
19261WAT      O58024   8.759   1.925   1.605
19261WAT     H158025   8.666   1.933   1.569
19261WAT     H258026   8.813   2.003   1.574
19262WAT      O58027   2.885   9.551   2.162
19262WAT     H158028   2.881   9.619   2.089
19262WAT     H258029   2.798   9.548   2.211
19263WAT      O58030   3.303   6.911   5.583
19263WAT     H158031   3.335   6.847   5.652
19263WAT     H258032   3.369   6.917   5.509
19264WAT      O58033   3.491   1.116   6.901
19264WAT     H158034   3.400   1.073   6.904
19264WAT     H258035   3.560   1.046   6.884
19265WAT      O58036   9.166   9.564   2.475
19265WAT     H158037   9.209   9.480   2.508
19265WAT     H258038   9.155   9.627   2.552
19266WAT      O58039   3.232   2.432   0.617
19266WAT     H158040   3.316   2.409   0.567
19266WAT     H258041   3.186   2.509   0.573
19267WAT      O58042   1.848   0.364   5.956
19267WAT     H158043   1.823   0.413   6.040
19267WAT     H258044   1.796   0.401   5.879
19268WAT      O58045   3.092   5.129   4.147
19268WAT     H158046   3.027   5.116   4.222
19268WAT     H258047   3.044   5.120   4.060
19269WAT      O58048   8.652   2.197   4.760
19269WAT     H158049   8.604   2.110   4.771
19269WAT     H258050   8.747   2.187   4.788
19270WAT      O58051   1.956   7.542   8.805
19270WAT     H158052   1.926   7.570   8.897
19270WAT     H258053   1.934   7.614   8.740
19271WAT      O58054   1.734   5.047   0.937
19271WAT     H158055   1.775   4.972   0.989
19271WAT     H258056   1.760   5.039   0.841
19272WAT      O58057   1.281   8.031   0.858
19272WAT     H158058   1.246   7.947   0.819
19272WAT     H258059   1.380   8.035   0.845
19273WAT      O58060   8.056   1.045   7.823
19273WAT     H158061   8.076   0.960   7.872
19273WAT     H258062   8.070   1.123   7.885
19274WAT      O58063   3.399   3.628   1.292
19274WAT     H158064   3.354   3.718   1.290
19274WAT     H258065   3.340   3.562   1.338
19275WAT      O58066   4.398   0.406   7.992
19275WAT     H158067   4.486   0.401   7.946
19275WAT     H258068   4.404   0.364   8.083
19276WAT      O58069   5.403   8.875   2.234
19276WAT     H158070   5.345   8.920   2.302
19276WAT     H258071   5.450   8.797   2.276
19277WAT      O58072   5.351   9.082   1.470
19277WAT     H158073   5.310   9.133   1.545
19277WAT     H258074   5.384   9.146   1.400
19278WAT      O58075   5.418   5.124   9.882
19278WAT     H158076   5.440   5.221   9.888
19278WAT     H258077   5.320   5.112   9.865
19279WAT      O58078   9.413   8.960   7.723
19279WAT     H158079   9.465   8.909   7.791
19279WAT     H258080   9.422   9.058   7.740
19280WAT      O58081   7.236   6.024   3.580
19280WAT     H158082   7.253   6.016   3.482
19280WAT     H258083   7.314   6.069   3.623
19281WAT      O58084   3.247   8.369   6.349
19281WAT     H158085   3.257   8.390   6.252
19281WAT     H258086   3.296   8.284   6.370
19282WAT      O58087   8.469   6.003   8.367
19282WAT     H158088   8.391   6.051   8.408
19282WAT     H258089   8.460   6.002   8.268
19283WAT      O58090   2.807   9.758   4.822
19283WAT     H158091   2.742   9.834   4.835
19283WAT     H258092   2.756   9.676   4.797
19284WAT      O58093   1.731   4.050   5.347
19284WAT     H158094   1.651   4.092   5.305
19284WAT     H258095   1.707   4.018   5.439
19285WAT      O58096   8.001   7.252   9.855
19285WAT     H158097   8.068   7.190   9.813
19285WAT     H258098   7.961   7.310   9.785
19286WAT      O58099   0.288   2.408   8.100
19286WAT     H158100   0.252   2.417   8.193
19286WAT     H258101   0.381   2.446   8.097
19287WAT      O58102   2.181   9.775   8.760
19287WAT     H158103   2.160   9.859   8.711
19287WAT     H258104   2.102   9.749   8.816
19288WAT      O58105   3.510   9.420   5.712
19288WAT     H158106   3.462   9.495   5.667
19288WAT     H258107   3.601   9.451   5.741
19289WAT      O58108   8.176   9.208   7.826
19289WAT     H158109   8.155   9.110   7.834
19289WAT     H258110   8.090   9.259   7.815
19290WAT      O58111   3.714   7.884   8.614
19290WAT     H158112   3.699   7.871   8.712
19290WAT     H258113   3.627   7.904   8.569
19291WAT      O58114   3.695   4.350   5.902
19291WAT     H158115   3.686   4.273   5.840
19291WAT     H258116   3.788   4.353   5.938
19292WAT      O58117   1.827   9.203   7.264
19292WAT     H158118   1.806   9.135   7.335
19292WAT     H258119   1.848   9.291   7.307
19293WAT      O58120   3.329   3.633   8.445
19293WAT     H158121   3.325   3.536   8.470
19293WAT     H258122   3.323   3.689   8.527
19294WAT      O58123   2.239   4.667   8.400
19294WAT     H158124   2.181   4.745   8.423
19294WAT     H258125   2.320   4.699   8.352
19295WAT      O58126   2.613   7.458   5.138
19295WAT     H158127   2.647   7.478   5.046
19295WAT     H258128   2.684   7.479   5.205
19296WAT      O58129   3.375   7.754   2.564
19296WAT     H158130   3.433   7.721   2.490
19296WAT     H258131   3.284   7.713   2.556
19297WAT      O58132   5.684   7.713   0.619
19297WAT     H158133   5.774   7.699   0.577
19297WAT     H258134   5.613   7.695   0.551
19298WAT      O58135   7.056   1.368   1.403
19298WAT     H158136   7.149   1.394   1.377
19298WAT     H258137   7.048   1.367   1.503
19299WAT      O58138   7.260   7.652   0.994
19299WAT     H158139   7.317   7.599   1.058
19299WAT     H258140   7.305   7.656   0.905
19300WAT      O58141   2.963   9.833   8.670
19300WAT     H158142   3.012   9.858   8.754
19300WAT     H258143   3.029   9.801   8.602
19301WAT      O58144   8.951   6.551   2.099
19301WAT     H158145   8.996   6.470   2.063
19301WAT     H258146   8.865   6.566   2.051
19302WAT      O58147   4.022   1.351   3.897
19302WAT     H158148   3.925   1.373   3.906
19302WAT     H258149   4.040   1.315   3.805
19303WAT      O58150   0.226   7.885   8.014
19303WAT     H158151   0.214   7.983   8.032
19303WAT     H258152   0.301   7.850   8.070
19304WAT      O58153   1.056   7.895   4.602
19304WAT     H158154   1.070   7.989   4.635
19304WAT     H258155   0.987   7.896   4.529
19305WAT      O58156   6.044   8.685   0.162
19305WAT     H158157   6.008   8.656   0.074
19305WAT     H258158   6.063   8.783   0.159
19306WAT      O58159   8.756   6.626   6.425
19306WAT     H158160   8.752   6.722   6.454
19306WAT     H258161   8.663   6.588   6.425
19307WAT      O58162   4.036   9.467   4.110
19307WAT     H158163   4.034   9.460   4.209
19307WAT     H258164   3.994   9.386   4.070
19308WAT      O58165   7.469   6.795   0.242
19308WAT     H158166   7.507   6.740   0.168
19308WAT     H258167   7.477   6.892   0.219
19309WAT      O58168   2.373   0.857   2.029
19309WAT     H158169   2.428   0.782   1.990
19309WAT     H258170   2.276   0.833   2.026
19310WAT      O58171   1.000   1.021   7.231
19310WAT     H158172   0.987   0.928   7.198
19310WAT     H258173   0.910   1.065   7.241
19311WAT      O58174   3.737   4.577   0.224
19311WAT     H158175   3.762   4.642   0.153
19311WAT     H258176   3.638   4.580   0.238
19312WAT      O58177   4.627   7.812   4.846
19312WAT     H158178   4.639   7.840   4.751
19312WAT     H258179   4.717   7.791   4.885
19313WAT      O58180   9.478   9.493   9.423
19313WAT     H158181   9.381   9.486   9.401
19313WAT     H258182   9.508   9.588   9.410
19314WAT      O58183   4.263   9.735   9.165
19314WAT     H158184   4.242   9.640   9.188
19314WAT     H258185   4.311   9.779   9.241
19315WAT      O58186   7.251   5.389   4.233
19315WAT     H158187   7.205   5.349   4.313
19315WAT     H258188   7.243   5.326   4.156
19316WAT      O58189   4.544   9.370   8.549
19316WAT     H158190   4.447   9.348   8.556
19316WAT     H258191   4.598   9.304   8.603
19317WAT      O58192   6.498   5.957   8.465
19317WAT     H158193   6.569   6.026   8.450
19317WAT     H258194   6.420   6.000   8.511
19318WAT      O58195   5.098   6.603   1.119
19318WAT     H158196   5.052   6.645   1.040
19318WAT     H258197   5.100   6.504   1.107
19319WAT      O58198   1.201   2.469   2.274
19319WAT     H158199   1.120   2.504   2.320
19319WAT     H258200   1.212   2.372   2.297
19320WAT      O58201   5.178   9.114   1.901
19320WAT     H158202   5.120   9.081   1.828
19320WAT     H258203   5.252   9.169   1.863
19321WAT      O58204   8.186   8.258   5.474
19321WAT     H158205   8.128   8.200   5.531
19321WAT     H258206   8.278   8.263   5.513
19322WAT      O58207   2.340   6.283   9.224
19322WAT     H158208   2.437   6.303   9.211
19322WAT     H258209   2.294   6.281   9.135
19323WAT      O58210   4.683   7.872   6.311
19323WAT     H158211   4.641   7.856   6.400
19323WAT     H258212   4.623   7.928   6.255
19324WAT      O58213   4.505   4.416   8.557
19324WAT     H158214   4.488   4.331   8.507
19324WAT     H258215   4.561   4.477   8.501
19325WAT      O58216   1.163   4.667   3.551
19325WAT     H158217   1.139   4.679   3.455
19325WAT     H258218   1.081   4.671   3.608
19326WAT      O58219   4.728   1.735   3.775
19326WAT     H158220   4.741   1.812   3.712
19326WAT     H258221   4.710   1.769   3.867
19327WAT      O58222   9.342   3.294   2.514
19327WAT     H158223   9.377   3.235   2.441
19327WAT     H258224   9.246   3.315   2.497
19328WAT      O58225   7.856   9.439   0.587
19328WAT     H158226   7.825   9.465   0.679
19328WAT     H258227   7.877   9.521   0.535
19329WAT      O58228   1.209   3.611   3.809
19329WAT     H158229   1.110   3.609   3.818
19329WAT     H258230   1.234   3.649   3.720
19330WAT      O58231   4.410   5.644   0.178
19330WAT     H158232   4.508   5.635   0.197
19330WAT     H258233   4.393   5.623   0.081
19331WAT      O58234   8.555   1.066   0.186
19331WAT     H158235   8.633   1.031   0.135
19331WAT     H258236   8.535   1.160   0.155
19332WAT      O58237   5.595   6.817   6.453
19332WAT     H158238   5.624   6.786   6.362
19332WAT     H258239   5.612   6.746   6.520
19333WAT      O58240   0.895   5.274   9.063
19333WAT     H158241   0.907   5.372   9.075
19333WAT     H258242   0.798   5.251   9.064
19334WAT      O58243   5.424   1.023   4.981
19334WAT     H158244   5.327   1.042   4.994
19334WAT     H258245   5.475   1.058   5.059
19335WAT      O58246   5.880   4.506   4.978
19335WAT     H158247   5.786   4.495   5.008
19335WAT     H258248   5.884   4.570   4.901
19336WAT      O58249   7.638   6.824   8.146
19336WAT     H158250   7.604   6.875   8.225
19336WAT     H258251   7.670   6.887   8.076
19337WAT      O58252   1.285   6.129   3.103
19337WAT     H158253   1.373   6.103   3.062
19337WAT     H258254   1.225   6.164   3.032
19338WAT      O58255   4.066   1.069   1.849
19338WAT     H158256   4.164   1.058   1.834
19338WAT     H258257   4.017   1.045   1.765
19339WAT      O58258   7.638   4.891   8.365
19339WAT     H158259   7.713   4.883   8.300
19339WAT     H258260   7.596   4.981   8.357
19340WAT      O58261   0.427   2.921   5.943
19340WAT     H158262   0.357   2.992   5.937
19340WAT     H258263   0.504   2.954   5.998
19341WAT      O58264   7.755   6.317   8.148
19341WAT     H158265   7.806   6.401   8.166
19341WAT     H258266   7.723   6.316   8.053
19342WAT      O58267   4.398   1.408   3.832
19342WAT     H158268   4.493   1.438   3.829
19342WAT     H258269   4.393   1.316   3.872
19343WAT      O58270   8.142   5.028   0.443
19343WAT     H158271   8.140   5.077   0.530
19343WAT     H258272   8.233   5.034   0.403
19344WAT      O58273   6.448   4.602   2.340
19344WAT     H158274   6.397   4.685   2.364
19344WAT     H258275   6.459   4.545   2.421
19345WAT      O58276   6.375   8.970   0.584
19345WAT     H158277   6.421   8.921   0.658
19345WAT     H258278   6.444   9.003   0.519
19346WAT      O58279   6.223   2.038   8.046
19346WAT     H158280   6.131   2.074   8.067
19346WAT     H258281   6.262   2.090   7.970
19347WAT      O58282   6.399   8.569   1.964
19347WAT     H158283   6.412   8.660   2.004
19347WAT     H258284   6.310   8.566   1.918
19348WAT      O58285   6.092   4.960   8.624
19348WAT     H158286   6.014   4.975   8.563
19348WAT     H258287   6.077   5.011   8.709
19349WAT      O58288   6.924   6.276   9.522
19349WAT     H158289   6.881   6.300   9.435
19349WAT     H258290   7.010   6.327   9.531
19350WAT      O58291   0.129   0.016   8.061
19350WAT     H158292   0.180  -0.070   8.058
19350WAT     H258293   0.055   0.008   8.127
19351WAT      O58294   0.313   2.171   4.298
19351WAT     H158295   0.233   2.221   4.331
19351WAT     H258296   0.304   2.156   4.200
19352WAT      O58297   5.070   2.221   2.182
19352WAT     H158298   4.990   2.201   2.125
19352WAT     H258299   5.132   2.142   2.182
19353WAT      O58300   5.729   4.992   3.189
19353WAT     H158301   5.720   4.990   3.289
19353WAT     H258302   5.639   5.001   3.148
19354WAT      O58303   2.748   0.812   9.183
19354WAT     H158304   2.653   0.829   9.208
19354WAT     H258305   2.803   0.894   9.202
19355WAT      O58306   1.171   7.727   7.015
19355WAT     H158307   1.071   7.730   7.024
19355WAT     H258308   1.211   7.803   7.066
19356WAT      O58309   9.326   8.431   4.201
19356WAT     H158310   9.317   8.336   4.173
19356WAT     H258311   9.266   8.449   4.279
19357WAT      O58312   7.762   0.273   7.596
19357WAT     H158313   7.825   0.277   7.673
19357WAT     H258314   7.812   0.284   7.511
19358WAT      O58315   0.988   3.920   0.563
19358WAT     H158316   1.064   3.869   0.604
19358WAT     H258317   0.901   3.887   0.599
19359WAT      O58318   4.488   0.016   9.251
19359WAT     H158319   4.552   0.089   9.227
19359WAT     H258320   4.504  -0.012   9.346
19360WAT      O58321   5.438   4.127   3.587
19360WAT     H158322   5.500   4.185   3.640
19360WAT     H258323   5.481   4.104   3.499
19361WAT      O58324   6.219   6.363   2.150
19361WAT     H158325   6.233   6.307   2.232
19361WAT     H258326   6.123   6.356   2.121
19362WAT      O58327   2.545   2.740   2.323
19362WAT     H158328   2.483   2.764   2.248
19362WAT     H258329   2.567   2.643   2.318
19363WAT      O58330   0.161   4.891   7.011
19363WAT     H158331   0.161   4.974   7.067
19363WAT     H258332   0.086   4.832   7.039
19364WAT      O58333   6.639   2.368   1.471
19364WAT     H158334   6.593   2.407   1.551
19364WAT     H258335   6.712   2.307   1.502
19365WAT      O58336   9.619   0.808   5.773
19365WAT     H158337   9.674   0.880   5.731
19365WAT     H258338   9.539   0.849   5.818
19366WAT      O58339   0.284   6.399   7.413
19366WAT     H158340   0.381   6.390   7.434
19366WAT     H258341   0.230   6.362   7.488
19367WAT      O58342   0.749   4.053   7.564
19367WAT     H158343   0.805   3.972   7.545
19367WAT     H258344   0.806   4.135   7.561
19368WAT      O58345   4.641   7.230   6.027
19368WAT     H158346   4.655   7.152   5.966
19368WAT     H258347   4.729   7.256   6.068
19369WAT      O58348   6.439   6.507   6.236
19369WAT     H158349   6.360   6.565   6.215
19369WAT     H258350   6.425   6.460   6.323
19370WAT      O58351   4.035   8.393   0.397
19370WAT     H158352   4.061   8.301   0.368
19370WAT     H258353   4.082   8.415   0.483
19371WAT      O58354   4.885   9.488   9.313
19371WAT     H158355   4.851   9.535   9.232
19371WAT     H258356   4.907   9.393   9.290
19372WAT      O58357   3.470   8.733   8.973
19372WAT     H158358   3.551   8.678   8.954
19372WAT     H258359   3.398   8.675   9.011
19373WAT      O58360   4.038   2.999   2.392
19373WAT     H158361   4.043   2.955   2.482
19373WAT     H258362   3.987   3.085   2.401
19374WAT      O58363   7.519   3.200   8.609
19374WAT     H158364   7.461   3.268   8.653
19374WAT     H258365   7.543   3.129   8.675
19375WAT      O58366   3.659   0.831   3.261
19375WAT     H158367   3.638   0.785   3.348
19375WAT     H258368   3.613   0.783   3.186
19376WAT      O58369   9.754   5.411   7.021
19376WAT     H158370   9.690   5.344   7.061
19376WAT     H258371   9.817   5.364   6.959
19377WAT      O58372   5.364   2.651   4.030
19377WAT     H158373   5.313   2.640   4.115
19377WAT     H258374   5.303   2.640   3.952
19378WAT      O58375   3.302   8.992   4.848
19378WAT     H158376   3.376   9.026   4.906
19378WAT     H258377   3.306   9.038   4.759
19379WAT      O58378   8.311   4.236   0.464
19379WAT     H158379   8.278   4.325   0.495
19379WAT     H258380   8.391   4.250   0.405
19380WAT      O58381   1.776   8.651   7.856
19380WAT     H158382   1.739   8.690   7.940
19380WAT     H258383   1.822   8.565   7.876
19381WAT      O58384   9.875   1.473   3.980
19381WAT     H158385   9.783   1.509   3.967
19381WAT     H258386   9.902   1.482   4.076
19382WAT      O58387   7.190   8.140   3.350
19382WAT     H158388   7.264   8.207   3.350
19382WAT     H258389   7.121   8.166   3.282
19383WAT      O58390   3.529   1.275   2.528
19383WAT     H158391   3.432   1.274   2.504
19383WAT     H258392   3.582   1.229   2.456
19384WAT      O58393   4.029   9.308   9.237
19384WAT     H158394   3.937   9.320   9.274
19384WAT     H258395   4.023   9.298   9.137
19385WAT      O58396   5.641   1.205   8.198
19385WAT     H158397   5.610   1.292   8.160
19385WAT     H258398   5.590   1.185   8.282
19386WAT      O58399   6.003   4.232   1.478
19386WAT     H158400   6.055   4.247   1.394
19386WAT     H258401   5.982   4.134   1.487
19387WAT      O58402   6.035   7.993   3.965
19387WAT     H158403   6.108   7.937   3.927
19387WAT     H258404   6.039   7.990   4.065
19388WAT      O58405   3.315   2.519   9.834
19388WAT     H158406   3.411   2.513   9.806
19388WAT     H258407   3.288   2.615   9.839
19389WAT      O58408   8.042   5.372   3.413
19389WAT     H158409   8.045   5.443   3.484
19389WAT     H258410   7.987   5.295   3.446
19390WAT      O58411   6.017   7.143   6.495
19390WAT     H158412   5.978   7.063   6.541
19390WAT     H258413   6.000   7.136   6.397
19391WAT      O58414   6.517   1.120   3.191
19391WAT     H158415   6.434   1.080   3.152
19391WAT     H258416   6.596   1.092   3.136
19392WAT      O58417   7.270   0.775   9.013
19392WAT     H158418   7.331   0.795   9.090
19392WAT     H258419   7.200   0.709   9.042
19393WAT      O58420   1.596   0.506   7.626
19393WAT     H158421   1.667   0.573   7.609
19393WAT     H258422   1.527   0.511   7.554
19394WAT      O58423   4.768   2.657   2.848
19394WAT     H158424   4.755   2.613   2.760
19394WAT     H258425   4.866   2.656   2.872
19395WAT      O58426   7.081   3.661   8.165
19395WAT     H158427   7.077   3.609   8.250
19395WAT     H258428   7.009   3.629   8.103
19396WAT      O58429   3.014   3.518   2.262
19396WAT     H158430   3.088   3.470   2.309
19396WAT     H258431   3.049   3.601   2.219
19397WAT      O58432   7.788   2.858   3.208
19397WAT     H158433   7.823   2.912   3.284
19397WAT     H258434   7.846   2.871   3.128
19398WAT      O58435   0.467   7.697   3.147
19398WAT     H158436   0.376   7.731   3.171
19398WAT     H258437   0.528   7.774   3.130
19399WAT      O58438   3.947   9.106   7.588
19399WAT     H158439   3.928   9.163   7.508
19399WAT     H258440   4.037   9.128   7.625
19400WAT      O58441   4.364   4.870   0.547
19400WAT     H158442   4.295   4.890   0.616
19400WAT     H258443   4.381   4.772   0.544
19401WAT      O58444   5.926   9.664   0.932
19401WAT     H158445   5.908   9.728   1.006
19401WAT     H258446   5.989   9.593   0.963
19402WAT      O58447   8.686   3.456   2.948
19402WAT     H158448   8.686   3.517   3.028
19402WAT     H258449   8.672   3.362   2.978
19403WAT      O58450   0.038   9.447   7.979
19403WAT     H158451   0.060   9.373   7.915
19403WAT     H258452  -0.026   9.511   7.936
19404WAT      O58453   2.210   8.909   4.832
19404WAT     H158454   2.159   8.830   4.866
19404WAT     H258455   2.166   8.943   4.749
19405WAT      O58456   1.946   1.348   9.217
19405WAT     H158457   1.933   1.287   9.139
19405WAT     H258458   1.864   1.345   9.275
19406WAT      O58459   1.920   5.841   8.437
19406WAT     H158460   1.981   5.884   8.504
19406WAT     H258461   1.974   5.797   8.366
19407WAT      O58462   7.536   4.134   0.631
19407WAT     H158463   7.567   4.111   0.724
19407WAT     H258464   7.615   4.147   0.572
19408WAT      O58465   6.761   0.431   7.712
19408WAT     H158466   6.850   0.447   7.754
19408WAT     H258467   6.722   0.346   7.748
19409WAT      O58468   2.227   0.051   1.859
19409WAT     H158469   2.288  -0.019   1.897
19409WAT     H258470   2.135   0.014   1.850
19410WAT      O58471   2.406   0.405   8.545
19410WAT     H158472   2.339   0.389   8.473
19410WAT     H258473   2.392   0.339   8.619
19411WAT      O58474   4.686   8.411   5.991
19411WAT     H158475   4.615   8.378   5.929
19411WAT     H258476   4.739   8.483   5.947
19412WAT      O58477   9.227   0.200   3.168
19412WAT     H158478   9.130   0.216   3.189
19412WAT     H258479   9.278   0.285   3.178
19413WAT      O58480   9.678   5.697   4.113
19413WAT     H158481   9.691   5.788   4.153
19413WAT     H258482   9.613   5.645   4.169
19414WAT      O58483   6.677   2.060   4.544
19414WAT     H158484   6.776   2.053   4.527
19414WAT     H258485   6.648   1.985   4.603
19415WAT      O58486   6.108   4.665   7.766
19415WAT     H158487   6.090   4.669   7.668
19415WAT     H258488   6.082   4.751   7.809
19416WAT      O58489   6.524   8.679   3.836
19416WAT     H158490   6.608   8.641   3.797
19416WAT     H258491   6.485   8.745   3.773
19417WAT      O58492   4.385   9.490   3.419
19417WAT     H158493   4.397   9.547   3.500
19417WAT     H258494   4.345   9.544   3.346
19418WAT      O58495   9.799   7.995   1.768
19418WAT     H158496   9.701   8.014   1.764
19418WAT     H258497   9.849   8.081   1.779
19419WAT      O58498   0.271   4.843   5.912
19419WAT     H158499   0.260   4.824   5.814
19419WAT     H258500   0.355   4.799   5.945
19420WAT      O58501   6.856   8.933   0.144
19420WAT     H158502   6.873   9.028   0.171
19420WAT     H258503   6.790   8.892   0.207
19421WAT      O58504   1.871   3.862   6.271
19421WAT     H158505   1.849   3.773   6.310
19421WAT     H258506   1.960   3.857   6.225
19422WAT      O58507   7.074   3.884   9.726
19422WAT     H158508   7.023   3.803   9.696
19422WAT     H258509   7.168   3.858   9.746
19423WAT      O58510   2.807   5.766   3.543
19423WAT     H158511   2.753   5.736   3.465
19423WAT     H258512   2.901   5.735   3.533
19424WAT      O58513   8.693   0.842   1.269
19424WAT     H158514   8.603   0.815   1.234
19424WAT     H258515   8.733   0.766   1.321
19425WAT      O58516   0.955   3.392   9.281
19425WAT     H158517   0.990   3.298   9.286
19425WAT     H258518   0.987   3.444   9.360
19426WAT      O58519   9.433   5.010   7.229
19426WAT     H158520   9.453   4.943   7.300
19426WAT     H258521   9.335   5.026   7.225
19427WAT      O58522   2.779   8.403   8.745
19427WAT     H158523   2.849   8.376   8.812
19427WAT     H258524   2.800   8.495   8.711
19428WAT      O58525   4.645   5.466   5.953
19428WAT     H158526   4.714   5.472   6.025
19428WAT     H258527   4.660   5.382   5.900
19429WAT      O58528   0.946   5.993   1.940
19429WAT     H158529   0.981   6.031   1.854
19429WAT     H258530   1.006   6.021   2.015
19430WAT      O58531   9.876   7.593   1.546
19430WAT     H158532   9.792   7.551   1.511
19430WAT     H258533   9.956   7.551   1.504
19431WAT      O58534   3.828   7.153   3.505
19431WAT     H158535   3.830   7.193   3.597
19431WAT     H258536   3.776   7.213   3.444
19432WAT      O58537   6.923   8.096   2.090
19432WAT     H158538   6.855   8.024   2.082
19432WAT     H258539   6.909   8.146   2.175
19433WAT      O58540   2.081   5.692   3.291
19433WAT     H158541   1.993   5.663   3.329
19433WAT     H258542   2.108   5.629   3.218
19434WAT      O58543   9.479   1.483   9.795
19434WAT     H158544   9.514   1.490   9.888
19434WAT     H258545   9.552   1.503   9.730
19435WAT      O58546   8.918   6.658   4.741
19435WAT     H158547   8.875   6.570   4.724
19435WAT     H258548   8.930   6.672   4.839
19436WAT      O58549   9.176   4.539   1.247
19436WAT     H158550   9.190   4.569   1.342
19436WAT     H258551   9.152   4.442   1.246
19437WAT      O58552   5.936   6.543   0.944
19437WAT     H158553   5.879   6.609   0.895
19437WAT     H258554   5.878   6.481   0.997
19438WAT      O58555   8.855   3.466   4.819
19438WAT     H158556   8.952   3.470   4.793
19438WAT     H258557   8.839   3.383   4.874
19439WAT      O58558   2.035   0.164   6.070
19439WAT     H158559   1.962   0.221   6.032
19439WAT     H258560   2.034   0.172   6.170
19440WAT      O58561   6.388   7.600   5.884
19440WAT     H158562   6.471   7.609   5.828
19440WAT     H258563   6.323   7.541   5.837
19441WAT      O58564   8.610   1.730   4.743
19441WAT     H158565   8.675   1.789   4.695
19441WAT     H258566   8.575   1.660   4.681
19442WAT      O58567   3.654   2.438   2.405
19442WAT     H158568   3.708   2.392   2.475
19442WAT     H258569   3.565   2.394   2.397
19443WAT      O58570   2.613   9.019   6.421
19443WAT     H158571   2.576   9.056   6.336
19443WAT     H258572   2.593   8.921   6.427
19444WAT      O58573   2.473   4.385   8.440
19444WAT     H158574   2.467   4.445   8.360
19444WAT     H258575   2.548   4.416   8.499
19445WAT      O58576   1.052   3.228   9.638
19445WAT     H158577   1.061   3.130   9.618
19445WAT     H258578   1.131   3.276   9.600
19446WAT      O58579   5.993   9.474   1.730
19446WAT     H158580   5.944   9.460   1.816
19446WAT     H258581   6.079   9.422   1.732
19447WAT      O58582   7.779   2.188   6.184
19447WAT     H158583   7.853   2.253   6.167
19447WAT     H258584   7.814   2.108   6.232
19448WAT      O58585   8.245   0.635   6.208
19448WAT     H158586   8.268   0.711   6.146
19448WAT     H258587   8.179   0.575   6.163
19449WAT      O58588   3.498   7.483   3.476
19449WAT     H158589   3.567   7.416   3.450
19449WAT     H258590   3.472   7.469   3.571
19450WAT      O58591   3.879   2.536   5.802
19450WAT     H158592   3.966   2.488   5.816
19450WAT     H258593   3.803   2.473   5.819
19451WAT      O58594   0.572   8.099   8.294
19451WAT     H158595   0.479   8.124   8.320
19451WAT     H258596   0.636   8.133   8.363
19452WAT      O58597   6.333   2.688   4.090
19452WAT     H158598   6.319   2.728   3.999
19452WAT     H258599   6.245   2.666   4.130
19453WAT      O58600   8.998   8.236   7.584
19453WAT     H158601   9.014   8.311   7.519
19453WAT     H258602   9.052   8.157   7.557
19454WAT      O58603   3.241   6.917   8.291
19454WAT     H158604   3.284   7.006   8.278
19454WAT     H258605   3.310   6.851   8.320
19455WAT      O58606   4.308   9.793   8.378
19455WAT     H158607   4.380   9.750   8.324
19455WAT     H258608   4.340   9.808   8.471
19456WAT      O58609   9.424   4.468   4.415
19456WAT     H158610   9.479   4.538   4.460
19456WAT     H258611   9.419   4.488   4.317
19457WAT      O58612   6.060   4.016   9.554
19457WAT     H158613   6.101   4.082   9.618
19457WAT     H258614   6.098   3.925   9.572
19458WAT      O58615   6.838   5.360   6.419
19458WAT     H158616   6.858   5.335   6.324
19458WAT     H258617   6.806   5.455   6.422
19459WAT      O58618   4.952   1.360   3.125
19459WAT     H158619   4.942   1.281   3.065
19459WAT     H258620   4.862   1.403   3.139
19460WAT      O58621   4.392   7.972   0.896
19460WAT     H158622   4.309   7.977   0.841
19460WAT     H258623   4.388   8.041   0.969
19461WAT      O58624   8.179   6.814   7.281
19461WAT     H158625   8.126   6.805   7.196
19461WAT     H258626   8.234   6.732   7.295
19462WAT      O58627   7.198   2.138   7.174
19462WAT     H158628   7.100   2.154   7.186
19462WAT     H258629   7.248   2.223   7.190
19463WAT      O58630   5.075   7.130   2.251
19463WAT     H158631   5.127   7.147   2.335
19463WAT     H258632   5.092   7.036   2.221
19464WAT      O58633   8.610   0.972   5.186
19464WAT     H158634   8.579   1.058   5.144
19464WAT     H258635   8.538   0.903   5.177
19465WAT      O58636   4.678   2.867   3.919
19465WAT     H158637   4.724   2.787   3.878
19465WAT     H258638   4.625   2.837   3.998
19466WAT      O58639   2.504   6.927   5.412
19466WAT     H158640   2.469   7.017   5.386
19466WAT     H258641   2.451   6.891   5.488
19467WAT      O58642   2.985   2.156   9.418
19467WAT     H158643   2.919   2.155   9.343
19467WAT     H258644   3.056   2.224   9.399
19468WAT      O58645   5.635   0.445   9.120
19468WAT     H158646   5.606   0.479   9.209
19468WAT     H258647   5.722   0.397   9.129
19469WAT      O58648   0.905   2.792   7.471
19469WAT     H158649   0.829   2.836   7.424
19469WAT     H258650   0.875   2.704   7.507
19470WAT      O58651   5.992   0.140   5.227
19470WAT     H158652   5.935   0.192   5.164
19470WAT     H258653   6.032   0.062   5.179
19471WAT      O58654   7.420   1.367   9.844
19471WAT     H158655   7.449   1.396   9.936
19471WAT     H258656   7.402   1.269   9.845
19472WAT      O58657   1.924   4.629   1.352
19472WAT     H158658   1.914   4.531   1.363
19472WAT     H258659   1.839   4.675   1.376
19473WAT      O58660   3.066   8.441   4.141
19473WAT     H158661   2.968   8.456   4.130
19473WAT     H258662   3.084   8.343   4.153
19474WAT      O58663   6.801   2.030   9.376
19474WAT     H158664   6.760   2.087   9.447
19474WAT     H258665   6.850   1.954   9.418
19475WAT      O58666   7.671   4.952   7.362
19475WAT     H158667   7.579   4.990   7.356
19475WAT     H258668   7.710   4.972   7.452
19476WAT      O58669   8.280   4.054   6.112
19476WAT     H158670   8.194   4.076   6.158
19476WAT     H258671   8.353   4.045   6.180
19477WAT      O58672   2.949   2.094   9.873
19477WAT     H158673   2.937   2.026   9.945
19477WAT     H258674   2.895   2.068   9.793
19478WAT      O58675   3.179   4.972   2.737
19478WAT     H158676   3.161   5.042   2.667
19478WAT     H258677   3.118   4.894   2.723
19479WAT      O58678   9.062   4.646   4.453
19479WAT     H158679   9.088   4.553   4.427
19479WAT     H258680   9.118   4.676   4.530
19480WAT      O58681   8.673   7.381   4.749
19480WAT     H158682   8.618   7.306   4.785
19480WAT     H258683   8.757   7.344   4.708
19481WAT      O58684   3.599   2.001   0.311
19481WAT     H158685   3.659   1.957   0.378
19481WAT     H258686   3.504   1.978   0.331
19482WAT      O58687   8.621   8.318   8.642
19482WAT     H158688   8.623   8.417   8.635
19482WAT     H258689   8.581   8.292   8.730
19483WAT      O58690   9.598   3.276   0.292
19483WAT     H158691   9.595   3.189   0.343
19483WAT     H258692   9.613   3.351   0.356
19484WAT      O58693   2.314   0.408   6.715
19484WAT     H158694   2.408   0.441   6.723
19484WAT     H258695   2.270   0.410   6.804
19485WAT      O58696   2.601   3.698   5.552
19485WAT     H158697   2.517   3.644   5.562
19485WAT     H258698   2.680   3.640   5.574
19486WAT      O58699   2.796   9.296   4.414
19486WAT     H158700   2.862   9.305   4.340
19486WAT     H258701   2.713   9.251   4.380
19487WAT      O58702   0.591   7.926   6.775
19487WAT     H158703   0.619   7.830   6.781
19487WAT     H258704   0.602   7.959   6.681
19488WAT      O58705   5.151   5.299   0.706
19488WAT     H158706   5.198   5.359   0.642
19488WAT     H258707   5.173   5.325   0.799
19489WAT      O58708   7.226   4.788   8.744
19489WAT     H158709   7.271   4.704   8.774
19489WAT     H258710   7.252   4.808   8.649
19490WAT      O58711   2.355   1.976   2.755
19490WAT     H158712   2.329   2.066   2.790
19490WAT     H258713   2.359   1.910   2.830
19491WAT      O58714   6.393   4.160   9.007
19491WAT     H158715   6.383   4.140   8.910
19491WAT     H258716   6.305   4.149   9.053
19492WAT      O58717   6.870   0.681   3.337
19492WAT     H158718   6.930   0.707   3.413
19492WAT     H258719   6.907   0.716   3.251
19493WAT      O58720   6.350   2.307   8.125
19493WAT     H158721   6.273   2.282   8.184
19493WAT     H258722   6.327   2.287   8.030
19494WAT      O58723   1.191   1.878   8.565
19494WAT     H158724   1.151   1.965   8.533
19494WAT     H258725   1.246   1.838   8.492
19495WAT      O58726   5.892   7.142   0.354
19495WAT     H158727   5.988   7.127   0.330
19495WAT     H258728   5.860   7.067   0.412
19496WAT      O58729   4.253   7.677   1.911
19496WAT     H158730   4.171   7.656   1.963
19496WAT     H258731   4.296   7.759   1.947
19497WAT      O58732   3.697   9.785   5.646
19497WAT     H158733   3.781   9.837   5.660
19497WAT     H258734   3.644   9.825   5.572
19498WAT      O58735   3.249   4.583   6.754
19498WAT     H158736   3.320   4.570   6.822
19498WAT     H258737   3.185   4.506   6.758
19499WAT      O58738   1.352   2.753   5.271
19499WAT     H158739   1.312   2.729   5.183
19499WAT     H258740   1.316   2.842   5.300
19500WAT      O58741   7.166   4.975   2.809
19500WAT     H158742   7.072   4.972   2.774
19500WAT     H258743   7.178   5.056   2.866
19501WAT      O58744   5.782   2.420   4.798
19501WAT     H158745   5.766   2.349   4.867
19501WAT     H258746   5.738   2.505   4.827
19502WAT      O58747   8.655   8.254   1.695
19502WAT     H158748   8.564   8.264   1.653
19502WAT     H258749   8.697   8.344   1.704
19503WAT      O58750   3.554   1.905   5.651
19503WAT     H158751   3.514   1.947   5.732
19503WAT     H258752   3.520   1.811   5.642
19504WAT      O58753   8.771   8.279   3.902
19504WAT     H158754   8.722   8.206   3.856
19504WAT     H258755   8.856   8.243   3.941
19505WAT      O58756   5.906   9.477   7.703
19505WAT     H158757   5.824   9.436   7.743
19505WAT     H258758   5.893   9.488   7.605
19506WAT      O58759   3.413   6.479   3.912
19506WAT     H158760   3.360   6.438   3.838
19506WAT     H258761   3.440   6.572   3.887
19507WAT      O58762   7.724   2.108   9.039
19507WAT     H158763   7.716   2.092   9.137
19507WAT     H258764   7.636   2.139   9.002
19508WAT      O58765   1.327   4.424   3.181
19508WAT     H158766   1.280   4.494   3.127
19508WAT     H258767   1.417   4.457   3.208
19509WAT      O58768   7.555   4.113   2.902
19509WAT     H158769   7.533   4.210   2.887
19509WAT     H258770   7.491   4.075   2.968
19510WAT      O58771   1.316   6.139   4.032
19510WAT     H158772   1.319   6.077   3.954
19510WAT     H258773   1.258   6.217   4.010
19511WAT      O58774   4.768   6.834   5.453
19511WAT     H158775   4.727   6.910   5.401
19511WAT     H258776   4.856   6.863   5.490
19512WAT      O58777   6.852   7.599   6.774
19512WAT     H158778   6.765   7.565   6.807
19512WAT     H258779   6.840   7.642   6.684
19513WAT      O58780   0.564   8.529   6.734
19513WAT     H158781   0.636   8.465   6.708
19513WAT     H258782   0.543   8.520   6.831
19514WAT      O58783   6.362   4.729   7.429
19514WAT     H158784   6.450   4.681   7.424
19514WAT     H258785   6.375   4.824   7.398
19515WAT      O58786   2.994   8.360   0.220
19515WAT     H158787   2.903   8.375   0.181
19515WAT     H258788   3.045   8.446   0.221
19516WAT      O58789   5.978   7.053   7.004
19516WAT     H158790   5.913   6.977   7.011
19516WAT     H258791   6.071   7.017   7.000
19517WAT      O58792   5.814   2.896   3.032
19517WAT     H158793   5.828   2.914   3.130
19517WAT     H258794   5.719   2.869   3.017
19518WAT      O58795   2.979   0.905   2.198
19518WAT     H158796   2.895   0.883   2.148
19518WAT     H258797   2.998   0.833   2.264
19519WAT      O58798   2.397   4.593   6.245
19519WAT     H158799   2.450   4.595   6.330
19519WAT     H258800   2.442   4.533   6.179
19520WAT      O58801   8.846   6.924   7.971
19520WAT     H158802   8.817   6.864   7.896
19520WAT     H258803   8.912   6.875   8.029
19521WAT      O58804   7.155   8.608   0.927
19521WAT     H158805   7.174   8.706   0.923
19521WAT     H258806   7.090   8.584   0.856
19522WAT      O58807   7.373   7.692   7.782
19522WAT     H158808   7.321   7.671   7.699
19522WAT     H258809   7.466   7.657   7.773
19523WAT      O58810   7.126   8.238   8.442
19523WAT     H158811   7.036   8.196   8.452
19523WAT     H258812   7.129   8.323   8.494
19524WAT      O58813   6.159   6.112   4.823
19524WAT     H158814   6.226   6.101   4.897
19524WAT     H258815   6.107   6.195   4.837
19525WAT      O58816   2.898   6.575   4.578
19525WAT     H158817   2.889   6.646   4.508
19525WAT     H258818   2.970   6.602   4.643
19526WAT      O58819   6.177   0.006   3.938
19526WAT     H158820   6.145   0.020   3.845
19526WAT     H258821   6.260  -0.049   3.937
19527WAT      O58822   1.384   2.990   9.443
19527WAT     H158823   1.315   3.062   9.447
19527WAT     H258824   1.386   2.942   9.531
19528WAT      O58825   6.159   8.413   1.581
19528WAT     H158826   6.218   8.437   1.505
19528WAT     H258827   6.172   8.479   1.655
19529WAT      O58828   9.749   9.801   5.456
19529WAT     H158829   9.770   9.721   5.400
19529WAT     H258830   9.831   9.830   5.506
19530WAT      O58831   0.816   2.614   6.589
19530WAT     H158832   0.847   2.637   6.497
19530WAT     H258833   0.756   2.534   6.585
19531WAT      O58834   5.522   8.573   0.761
19531WAT     H158835   5.473   8.585   0.847
19531WAT     H258836   5.619   8.597   0.773
19532WAT      O58837   8.669   2.557   9.220
19532WAT     H158838   8.713   2.467   9.221
19532WAT     H258839   8.735   2.626   9.250
19533WAT      O58840   8.753   3.497   2.584
19533WAT     H158841   8.818   3.573   2.588
19533WAT     H258842   8.798   3.413   2.615
19534WAT      O58843   7.353   5.372   0.802
19534WAT     H158844   7.338   5.420   0.716
19534WAT     H258845   7.438   5.403   0.843
19535WAT      O58846   5.673   2.260   1.076
19535WAT     H158847   5.696   2.329   1.145
19535WAT     H258848   5.753   2.203   1.058
19536WAT      O58849   1.117   9.804   9.858
19536WAT     H158850   1.083   9.710   9.868
19536WAT     H258851   1.193   9.805   9.794
19537WAT      O58852   2.891   7.338   7.231
19537WAT     H158853   2.974   7.286   7.210
19537WAT     H258854   2.814   7.300   7.179
19538WAT      O58855   6.658   3.133   0.207
19538WAT     H158856   6.739   3.092   0.164
19538WAT     H258857   6.640   3.222   0.167
19539WAT      O58858   6.679   2.180   3.406
19539WAT     H158859   6.612   2.106   3.416
19539WAT     H258860   6.757   2.161   3.466
19540WAT      O58861   2.859   4.876   5.873
19540WAT     H158862   2.780   4.909   5.925
19540WAT     H258863   2.839   4.881   5.775
19541WAT      O58864   9.641   6.221   0.401
19541WAT     H158865   9.678   6.314   0.392
19541WAT     H258866   9.543   6.226   0.419
19542WAT      O58867   1.794   4.509   6.918
19542WAT     H158868   1.747   4.456   6.988
19542WAT     H258869   1.727   4.548   6.855
19543WAT      O58870   7.549   4.169   5.394
19543WAT     H158871   7.495   4.252   5.381
19543WAT     H258872   7.502   4.091   5.352
19544WAT      O58873   2.205   7.942   8.295
19544WAT     H158874   2.124   7.991   8.261
19544WAT     H258875   2.233   7.979   8.383
19545WAT      O58876   9.586   4.626   3.664
19545WAT     H158877   9.639   4.603   3.746
19545WAT     H258878   9.566   4.724   3.663
19546WAT      O58879   7.763   4.202   2.016
19546WAT     H158880   7.735   4.278   2.075
19546WAT     H258881   7.854   4.221   1.978
19547WAT      O58882   5.857   7.403   0.305
19547WAT     H158883   5.863   7.305   0.324
19547WAT     H258884   5.948   7.444   0.312
19548WAT      O58885   2.419   3.290   5.192
19548WAT     H158886   2.356   3.331   5.126
19548WAT     H258887   2.433   3.352   5.269
19549WAT      O58888   1.498   5.999   2.989
19549WAT     H158889   1.486   5.923   2.925
19549WAT     H258890   1.592   6.001   3.022
19550WAT      O58891   0.353   2.048   9.579
19550WAT     H158892   0.341   2.130   9.635
19550WAT     H258893   0.438   2.002   9.606
19551WAT      O58894   5.537   5.898   9.288
19551WAT     H158895   5.459   5.943   9.330
19551WAT     H258896   5.611   5.890   9.355
19552WAT      O58897   2.445   0.268   6.260
19552WAT     H158898   2.432   0.256   6.161
19552WAT     H258899   2.388   0.202   6.309
19553WAT      O58900   1.516   1.674   0.357
19553WAT     H158901   1.502   1.735   0.280
19553WAT     H258902   1.545   1.585   0.325
19554WAT      O58903   1.067   9.682   8.368
19554WAT     H158904   0.969   9.681   8.383
19554WAT     H258905   1.089   9.740   8.290
19555WAT      O58906   0.376   6.863   4.094
19555WAT     H158907   0.338   6.953   4.072
19555WAT     H258908   0.476   6.869   4.097
19556WAT      O58909   1.290   6.738   3.995
19556WAT     H158910   1.302   6.723   3.897
19556WAT     H258911   1.356   6.684   4.046
19557WAT      O58912   2.966   7.719   0.765
19557WAT     H158913   2.991   7.764   0.852
19557WAT     H258914   3.037   7.653   0.741
19558WAT      O58915   0.842   1.773   0.683
19558WAT     H158916   0.783   1.811   0.612
19558WAT     H258917   0.919   1.725   0.641
19559WAT      O58918   9.176   7.217   9.582
19559WAT     H158919   9.096   7.236   9.525
19559WAT     H258920   9.192   7.118   9.585
19560WAT      O58921   8.846   8.082   3.047
19560WAT     H158922   8.823   7.985   3.056
19560WAT     H258923   8.874   8.119   3.135
19561WAT      O58924   8.501   7.578   5.091
19561WAT     H158925   8.448   7.662   5.075
19561WAT     H258926   8.591   7.587   5.049
19562WAT      O58927   6.626   0.336   3.243
19562WAT     H158928   6.537   0.357   3.284
19562WAT     H258929   6.698   0.362   3.307
19563WAT      O58930   6.296   3.412   5.194
19563WAT     H158931   6.274   3.481   5.125
19563WAT     H258932   6.285   3.321   5.154
19564WAT      O58933   6.072   4.395   7.808
19564WAT     H158934   6.030   4.364   7.722
19564WAT     H258935   6.111   4.486   7.795
19565WAT      O58936   6.128   7.090   1.674
19565WAT     H158937   6.133   7.127   1.581
19565WAT     H258938   6.179   7.148   1.736
19566WAT      O58939   2.518   9.032   4.607
19566WAT     H158940   2.597   9.076   4.648
19566WAT     H258941   2.499   8.946   4.655
19567WAT      O58942   2.708   3.953   1.080
19567WAT     H158943   2.748   3.973   1.170
19567WAT     H258944   2.739   4.022   1.015
19568WAT      O58945   7.890   5.427   7.514
19568WAT     H158946   7.895   5.518   7.473
19568WAT     H258947   7.826   5.370   7.463
19569WAT      O58948   4.667   6.005   5.680
19569WAT     H158949   4.711   5.942   5.616
19569WAT     H258950   4.736   6.062   5.723
19570WAT      O58951   0.831   2.418   5.173
19570WAT     H158952   0.797   2.333   5.214
19570WAT     H258953   0.903   2.396   5.107
19571WAT      O58954   8.459   6.023   6.552
19571WAT     H158955   8.497   6.094   6.611
19571WAT     H258956   8.395   6.065   6.487
19572WAT      O58957   7.457   2.670   9.797
19572WAT     H158958   7.524   2.668   9.871
19572WAT     H258959   7.498   2.714   9.716
19573WAT      O58960   4.950   9.253   6.230
19573WAT     H158961   4.890   9.320   6.275
19573WAT     H258962   5.029   9.299   6.191
19574WAT      O58963   8.147   5.086   3.317
19574WAT     H158964   8.215   5.103   3.387
19574WAT     H258965   8.119   4.990   3.320
19575WAT      O58966   2.526   3.863   8.896
19575WAT     H158967   2.617   3.868   8.938
19575WAT     H258968   2.530   3.901   8.804
19576WAT      O58969   8.327   6.346   7.495
19576WAT     H158970   8.423   6.315   7.495
19576WAT     H258971   8.306   6.387   7.584
19577WAT      O58972   0.448   3.343   2.893
19577WAT     H158973   0.480   3.256   2.854
19577WAT     H258974   0.356   3.364   2.860
19578WAT      O58975   9.843   1.451   0.099
19578WAT     H158976   9.928   1.478   0.145
19578WAT     H258977   9.848   1.355   0.074
19579WAT      O58978   3.230   8.924   7.927
19579WAT     H158979   3.210   8.949   7.832
19579WAT     H258980   3.285   8.840   7.928
19580WAT      O58981   7.326   0.333   6.209
19580WAT     H158982   7.297   0.262   6.144
19580WAT     H258983   7.313   0.423   6.168
19581WAT      O58984   2.042   3.006   3.811
19581WAT     H158985   2.058   2.936   3.880
19581WAT     H258986   1.987   2.967   3.736
19582WAT      O58987   3.110   7.139   3.099
19582WAT     H158988   3.163   7.066   3.141
19582WAT     H258989   3.164   7.223   3.096
19583WAT      O58990   6.944   0.140   6.332
19583WAT     H158991   7.015   0.209   6.343
19583WAT     H258992   6.870   0.159   6.398
19584WAT      O58993   3.458   4.086   6.454
19584WAT     H158994   3.380   4.025   6.447
19584WAT     H258995   3.436   4.173   6.408
19585WAT      O58996   5.068   7.934   9.495
19585WAT     H158997   5.005   7.911   9.570
19585WAT     H258998   5.016   7.949   9.411
19586WAT      O58999   8.834   4.345   9.879
19586WAT     H159000   8.819   4.443   9.886
19586WAT     H259001   8.898   4.316   9.949
19587WAT      O59002   9.222   3.209   7.518
19587WAT     H159003   9.202   3.292   7.570
19587WAT     H259004   9.183   3.130   7.566
19588WAT      O59005   1.728   0.806   2.522
19588WAT     H159006   1.751   0.828   2.617
19588WAT     H259007   1.712   0.707   2.514
19589WAT      O59008   0.767   0.185   3.434
19589WAT     H159009   0.674   0.188   3.396
19589WAT     H259010   0.821   0.259   3.395
19590WAT      O59011   6.550   4.362   3.375
19590WAT     H159012   6.563   4.391   3.470
19590WAT     H259013   6.557   4.442   3.315
19591WAT      O59014   4.534   0.521   7.207
19591WAT     H159015   4.493   0.431   7.200
19591WAT     H259016   4.462   0.590   7.215
19592WAT      O59017   5.929   0.911   4.347
19592WAT     H159018   5.990   0.846   4.302
19592WAT     H259019   5.859   0.861   4.397
19593WAT      O59020   1.943   6.878   7.427
19593WAT     H159021   1.922   6.859   7.523
19593WAT     H259022   1.888   6.956   7.396
19594WAT      O59023   4.026   2.709   9.557
19594WAT     H159024   3.957   2.780   9.542
19594WAT     H259025   4.116   2.752   9.568
19595WAT      O59026   7.246   7.522   2.160
19595WAT     H159027   7.231   7.547   2.255
19595WAT     H259028   7.201   7.435   2.140
19596WAT      O59029   5.640   8.068   8.397
19596WAT     H159030   5.570   7.999   8.413
19596WAT     H259031   5.622   8.147   8.455
19597WAT      O59032   5.776   1.310   2.618
19597WAT     H159033   5.741   1.262   2.537
19597WAT     H259034   5.767   1.408   2.605
19598WAT      O59035   8.961   6.158   3.043
19598WAT     H159036   8.870   6.159   3.002
19598WAT     H259037   9.027   6.195   2.977
19599WAT      O59038   5.147   6.075   9.578
19599WAT     H159039   5.074   6.094   9.643
19599WAT     H259040   5.114   6.091   9.485
19600WAT      O59041   1.644   1.870   7.158
19600WAT     H159042   1.705   1.905   7.088
19600WAT     H259043   1.674   1.779   7.187
19601WAT      O59044   2.584   0.927   6.004
19601WAT     H159045   2.632   1.002   6.050
19601WAT     H259046   2.525   0.880   6.070
19602WAT      O59047   7.092   6.566   4.320
19602WAT     H159048   7.028   6.620   4.375
19602WAT     H259049   7.142   6.625   4.258
19603WAT      O59050   0.282   9.336   8.247
19603WAT     H159051   0.241   9.307   8.333
19603WAT     H259052   0.274   9.262   8.180
19604WAT      O59053   9.333   8.884   2.316
19604WAT     H159054   9.319   8.911   2.411
19604WAT     H259055   9.365   8.962   2.263
19605WAT      O59056   2.965   0.487   4.665
19605WAT     H159057   3.038   0.419   4.675
19605WAT     H259058   2.877   0.441   4.673
19606WAT      O59059   1.611   0.147   2.913
19606WAT     H159060   1.537   0.110   2.857
19606WAT     H259061   1.682   0.078   2.925
19607WAT      O59062   9.027   8.104   0.649
19607WAT     H159063   9.089   8.077   0.723
19607WAT     H259064   9.062   8.186   0.604
19608WAT      O59065   9.324   1.274   3.656
19608WAT     H159066   9.397   1.299   3.592
19608WAT     H259067   9.264   1.207   3.613
19609WAT      O59068   9.828   4.375   4.276
19609WAT     H159069   9.799   4.386   4.371
19609WAT     H259070   9.748   4.368   4.217
19610WAT      O59071   5.142   0.763   3.729
19610WAT     H159072   5.097   0.805   3.808
19610WAT     H259073   5.072   0.731   3.665
19611WAT      O59074   8.202   5.139   3.759
19611WAT     H159075   8.225   5.045   3.783
19611WAT     H259076   8.123   5.169   3.813
19612WAT      O59077   0.616   9.038   9.195
19612WAT     H159078   0.689   9.039   9.263
19612WAT     H259079   0.604   9.130   9.157
19613WAT      O59080   7.261   6.330   6.423
19613WAT     H159081   7.345   6.313   6.371
19613WAT     H259082   7.270   6.290   6.514
19614WAT      O59083   2.413   1.277   9.761
19614WAT     H159084   2.328   1.225   9.749
19614WAT     H259085   2.491   1.220   9.734
19615WAT      O59086   8.386   9.576   6.385
19615WAT     H159087   8.480   9.609   6.373
19615WAT     H259088   8.375   9.490   6.336
19616WAT      O59089   9.374   1.984   6.403
19616WAT     H159090   9.292   2.041   6.401
19616WAT     H259091   9.349   1.890   6.426
19617WAT      O59092   0.959   1.840   4.907
19617WAT     H159093   1.051   1.841   4.868
19617WAT     H259094   0.959   1.888   4.994
19618WAT      O59095   8.044   4.728   8.660
19618WAT     H159096   8.062   4.652   8.597
19618WAT     H259097   8.130   4.754   8.704
19619WAT      O59098   9.438   6.903   9.000
19619WAT     H159099   9.369   6.835   9.025
19619WAT     H259100   9.517   6.858   8.959
19620WAT      O59101   5.752   5.392   8.521
19620WAT     H159102   5.693   5.469   8.546
19620WAT     H259103   5.696   5.310   8.507
19621WAT      O59104   2.936   0.727   2.417
19621WAT     H159105   2.946   0.754   2.513
19621WAT     H259106   2.841   0.702   2.398
19622WAT      O59107   6.735   7.927   6.088
19622WAT     H159108   6.814   7.866   6.076
19622WAT     H259109   6.663   7.899   6.025
19623WAT      O59110   1.999   0.964   8.429
19623WAT     H159111   1.947   0.879   8.426
19623WAT     H259112   2.089   0.947   8.469
19624WAT      O59113   4.269   7.321   1.747
19624WAT     H159114   4.322   7.255   1.695
19624WAT     H259115   4.236   7.393   1.686
19625WAT      O59116   4.794   2.672   9.200
19625WAT     H159117   4.879   2.663   9.252
19625WAT     H259118   4.778   2.589   9.146
19626WAT      O59119   3.774   1.380   1.387
19626WAT     H159120   3.712   1.395   1.464
19626WAT     H259121   3.721   1.378   1.302
19627WAT      O59122   9.862   1.160   1.512
19627WAT     H159123   9.888   1.101   1.589
19627WAT     H259124   9.790   1.116   1.459
19628WAT      O59125   7.431   9.071   3.337
19628WAT     H159126   7.437   8.984   3.288
19628WAT     H259127   7.348   9.119   3.310
19629WAT      O59128   0.643   7.576   7.996
19629WAT     H159129   0.670   7.486   8.031
19629WAT     H259130   0.632   7.570   7.896
19630WAT      O59131   4.564   6.342   7.333
19630WAT     H159132   4.599   6.277   7.400
19630WAT     H259133   4.629   6.416   7.321
19631WAT      O59134   0.085   4.592   0.836
19631WAT     H159135   0.017   4.638   0.894
19631WAT     H259136   0.043   4.567   0.749
19632WAT      O59137   6.039   2.607   4.042
19632WAT     H159138   6.044   2.526   3.984
19632WAT     H259139   5.961   2.664   4.015
19633WAT      O59140   2.031   5.606   4.494
19633WAT     H159141   2.100   5.637   4.559
19633WAT     H259142   1.950   5.575   4.543
19634WAT      O59143   2.035   1.254   2.676
19634WAT     H159144   2.053   1.292   2.586
19634WAT     H259145   2.073   1.162   2.682
19635WAT      O59146   8.330   9.288   2.534
19635WAT     H159147   8.353   9.202   2.489
19635WAT     H259148   8.361   9.364   2.476
19636WAT      O59149   5.162   5.047   8.914
19636WAT     H159150   5.212   4.972   8.958
19636WAT     H259151   5.125   5.015   8.827
19637WAT      O59152   1.186   8.161   8.934
19637WAT     H159153   1.160   8.068   8.908
19637WAT     H259154   1.202   8.164   9.033
19638WAT      O59155   7.030   2.354   9.279
19638WAT     H159156   7.025   2.328   9.376
19638WAT     H259157   7.038   2.272   9.223
19639WAT      O59158   8.919   3.937   0.434
19639WAT     H159159   8.867   3.956   0.351
19639WAT     H259160   8.868   3.873   0.492
19640WAT      O59161   9.627   5.638   9.627
19640WAT     H159162   9.537   5.633   9.584
19640WAT     H259163   9.689   5.574   9.582
19641WAT      O59164   7.850   7.992   2.948
19641WAT     H159165   7.786   7.931   2.996
19641WAT     H259166   7.864   7.959   2.855
19642WAT      O59167   8.957   1.425   1.662
19642WAT     H159168   9.047   1.423   1.619
19642WAT     H259169   8.889   1.459   1.596
19643WAT      O59170   3.708   2.145   1.192
19643WAT     H159171   3.790   2.199   1.173
19643WAT     H259172   3.686   2.150   1.290
19644WAT      O59173   5.288   2.015   1.259
19644WAT     H159174   5.218   2.086   1.257
19644WAT     H259175   5.333   2.011   1.169
19645WAT      O59176   1.077   2.335   8.696
19645WAT     H159177   1.058   2.418   8.643
19645WAT     H259178   1.010   2.328   8.771
19646WAT      O59179   0.772   5.792   2.926
19646WAT     H159180   0.807   5.877   2.964
19646WAT     H259181   0.787   5.717   2.990
19647WAT      O59182   9.797   0.075   9.524
19647WAT     H159183   9.760   0.040   9.438
19647WAT     H259184   9.890   0.107   9.510
19648WAT      O59185   8.396   3.717   0.966
19648WAT     H159186   8.319   3.734   1.027
19648WAT     H259187   8.473   3.775   0.993
19649WAT      O59188   2.612   4.360   1.080
19649WAT     H159189   2.548   4.414   1.026
19649WAT     H259190   2.562   4.302   1.144
19650WAT      O59191   7.812   1.941   7.327
19650WAT     H159192   7.828   1.867   7.393
19650WAT     H259193   7.714   1.958   7.320
19651WAT      O59194   2.504   8.383   8.750
19651WAT     H159195   2.603   8.388   8.764
19651WAT     H259196   2.482   8.413   8.657
19652WAT      O59197   5.422   8.989   2.638
19652WAT     H159198   5.410   9.088   2.630
19652WAT     H259199   5.512   8.964   2.603
19653WAT      O59200   6.308   7.262   4.564
19653WAT     H159201   6.315   7.360   4.585
19653WAT     H259202   6.214   7.231   4.578
19654WAT      O59203   1.193   0.490   8.685
19654WAT     H159204   1.239   0.475   8.598
19654WAT     H259205   1.250   0.549   8.743
19655WAT      O59206   7.070   6.927   5.584
19655WAT     H159207   7.091   6.910   5.680
19655WAT     H259208   7.125   6.865   5.527
19656WAT      O59209   7.921   2.425   5.648
19656WAT     H159210   7.875   2.413   5.561
19656WAT     H259211   7.918   2.340   5.700
19657WAT      O59212   7.360   4.637   9.104
19657WAT     H159213   7.443   4.688   9.122
19657WAT     H259214   7.295   4.651   9.178
19658WAT      O59215   6.338   0.311   6.392
19658WAT     H159216   6.381   0.396   6.421
19658WAT     H259217   6.280   0.276   6.465
19659WAT      O59218   7.264   7.558   7.523
19659WAT     H159219   7.338   7.491   7.515
19659WAT     H259220   7.179   7.519   7.487
19660WAT      O59221   9.057   1.376   9.568
19660WAT     H159222   9.010   1.417   9.490
19660WAT     H259223   9.109   1.447   9.616
19661WAT      O59224   7.312   8.068   6.036
19661WAT     H159225   7.308   8.145   5.973
19661WAT     H259226   7.225   8.059   6.084
19662WAT      O59227   7.106   8.203   7.690
19662WAT     H159228   7.031   8.268   7.687
19662WAT     H259229   7.191   8.251   7.714
19663WAT      O59230   0.278   4.281   6.976
19663WAT     H159231   0.280   4.331   7.063
19663WAT     H259232   0.369   4.243   6.957
19664WAT      O59233   2.375   3.977   7.426
19664WAT     H159234   2.301   3.986   7.494
19664WAT     H259235   2.463   3.981   7.473
19665WAT      O59236   6.036   5.324   0.919
19665WAT     H159237   6.006   5.419   0.920
19665WAT     H259238   6.104   5.310   0.847
19666WAT      O59239   2.150   2.714   2.906
19666WAT     H159240   2.230   2.750   2.858
19666WAT     H259241   2.171   2.622   2.941
19667WAT      O59242   7.909   3.335   1.516
19667WAT     H159243   7.811   3.356   1.523
19667WAT     H259244   7.951   3.398   1.450
19668WAT      O59245   8.946   1.326   1.910
19668WAT     H159246   8.933   1.409   1.965
19668WAT     H259247   8.939   1.349   1.813
19669WAT      O59248   8.292   6.286   2.113
19669WAT     H159249   8.219   6.303   2.179
19669WAT     H259250   8.378   6.323   2.148
19670WAT      O59251   3.537   2.224   1.829
19670WAT     H159252   3.515   2.315   1.793
19670WAT     H259253   3.515   2.221   1.926
19671WAT      O59254   7.252   6.181   7.900
19671WAT     H159255   7.301   6.259   7.861
19671WAT     H259256   7.276   6.172   7.996
19672WAT      O59257   6.804   9.414   3.871
19672WAT     H159258   6.717   9.392   3.914
19672WAT     H259259   6.861   9.332   3.866
19673WAT      O59260   4.363   7.921   3.198
19673WAT     H159261   4.319   7.849   3.144
19673WAT     H259262   4.462   7.915   3.188
19674WAT      O59263   1.794   8.831   4.167
19674WAT     H159264   1.805   8.894   4.090
19674WAT     H259265   1.702   8.841   4.205
19675WAT      O59266   7.286   2.131   0.300
19675WAT     H159267   7.252   2.096   0.212
19675WAT     H259268   7.287   2.057   0.367
19676WAT      O59269   3.376   1.643   8.464
19676WAT     H159270   3.314   1.564   8.463
19676WAT     H259271   3.444   1.633   8.392
19677WAT      O59272   6.923   1.397   0.413
19677WAT     H159273   6.918   1.393   0.313
19677WAT     H259274   7.001   1.452   0.441
19678WAT      O59275   9.860   4.820   1.755
19678WAT     H159276   9.876   4.837   1.657
19678WAT     H259277   9.911   4.887   1.809
19679WAT      O59278   1.317   5.244   4.709
19679WAT     H159279   1.397   5.274   4.658
19679WAT     H259280   1.235   5.254   4.652
19680WAT      O59281   4.632   6.556   4.281
19680WAT     H159282   4.695   6.592   4.213
19680WAT     H259283   4.638   6.610   4.365
19681WAT      O59284   8.395   2.198   6.900
19681WAT     H159285   8.427   2.194   6.995
19681WAT     H259286   8.295   2.209   6.899
19682WAT      O59287   1.314   6.267   4.409
19682WAT     H159288   1.374   6.193   4.440
19682WAT     H259289   1.370   6.345   4.380
19683WAT      O59290   8.353   7.263   1.350
19683WAT     H159291   8.398   7.224   1.269
19683WAT     H259292   8.417   7.261   1.427
19684WAT      O59293   3.848   1.409   0.090
19684WAT     H159294   3.835   1.400  -0.009
19684WAT     H259295   3.945   1.423   0.109
19685WAT      O59296   3.449   2.585   7.782
19685WAT     H159297   3.383   2.599   7.857
19685WAT     H259298   3.521   2.654   7.788
19686WAT      O59299   0.388   4.917   6.380
19686WAT     H159300   0.440   4.999   6.355
19686WAT     H259301   0.319   4.940   6.449
19687WAT      O59302   5.391   2.631   5.736
19687WAT     H159303   5.349   2.546   5.766
19687WAT     H259304   5.321   2.688   5.692
19688WAT      O59305   3.691   4.512   5.128
19688WAT     H159306   3.621   4.527   5.199
19688WAT     H259307   3.776   4.557   5.156
19689WAT      O59308   7.646   3.626   6.804
19689WAT     H159309   7.670   3.551   6.743
19689WAT     H259310   7.729   3.675   6.830
19690WAT      O59311   2.154   3.459   2.566
19690WAT     H159312   2.103   3.417   2.491
19690WAT     H259313   2.248   3.426   2.566
19691WAT      O59314   3.000   6.098   6.447
19691WAT     H159315   2.952   6.127   6.531
19691WAT     H259316   3.062   6.023   6.468
19692WAT      O59317   2.562   2.904   0.681
19692WAT     H159318   2.546   2.818   0.729
19692WAT     H259319   2.569   2.887   0.583
19693WAT      O59320   0.237   0.995   0.389
19693WAT     H159321   0.293   0.923   0.349
19693WAT     H259322   0.144   0.988   0.354
19694WAT      O59323   2.658   5.785   9.504
19694WAT     H159324   2.612   5.873   9.499
19694WAT     H259325   2.652   5.739   9.415
19695WAT      O59326   2.953   9.221   3.614
19695WAT     H159327   2.951   9.124   3.589
19695WAT     H259328   3.032   9.265   3.571
19696WAT      O59329   3.520   3.277   4.031
19696WAT     H159330   3.557   3.351   3.975
19696WAT     H259331   3.494   3.200   3.972
19697WAT      O59332   8.788   2.831   5.270
19697WAT     H159333   8.694   2.856   5.294
19697WAT     H259334   8.851   2.901   5.304
19698WAT      O59335   0.921   9.791   7.392
19698WAT     H159336   0.925   9.705   7.442
19698WAT     H259337   0.889   9.774   7.299
19699WAT      O59338   6.644   7.940   8.785
19699WAT     H159339   6.731   7.957   8.739
19699WAT     H259340   6.584   7.889   8.724
19700WAT      O59341   1.609   0.801   2.178
19700WAT     H159342   1.631   0.898   2.187
19700WAT     H259343   1.510   0.789   2.183
19701WAT      O59344   7.696   7.134   9.514
19701WAT     H159345   7.628   7.068   9.483
19701WAT     H259346   7.782   7.120   9.465
19702WAT      O59347   7.565   0.045   7.616
19702WAT     H159348   7.600   0.138   7.605
19702WAT     H259349   7.629  -0.019   7.574
19703WAT      O59350   0.724   3.079   5.786
19703WAT     H159351   0.750   3.011   5.717
19703WAT     H259352   0.710   3.034   5.874
19704WAT      O59353   1.796   7.789   3.747
19704WAT     H159354   1.837   7.854   3.811
19704WAT     H259355   1.868   7.743   3.695
19705WAT      O59356   9.536   0.887   9.674
19705WAT     H159357   9.564   0.982   9.657
19705WAT     H259358   9.503   0.846   9.589
19706WAT      O59359   2.837   6.900   6.917
19706WAT     H159360   2.822   6.890   7.015
19706WAT     H259361   2.925   6.858   6.893
19707WAT      O59362   8.290   6.956   6.692
19707WAT     H159363   8.302   6.942   6.790
19707WAT     H259364   8.279   7.054   6.674
19708WAT      O59365   1.073   4.234   3.768
19708WAT     H159366   1.096   4.197   3.678
19708WAT     H259367   1.138   4.198   3.836
19709WAT      O59368   2.268   6.760   1.253
19709WAT     H159369   2.170   6.739   1.254
19709WAT     H259370   2.304   6.745   1.162
19710WAT      O59371   7.464   8.082   3.090
19710WAT     H159372   7.391   8.014   3.085
19710WAT     H259373   7.548   8.039   3.125
19711WAT      O59374   0.759   4.955   4.793
19711WAT     H159375   0.779   5.013   4.872
19711WAT     H259376   0.776   5.006   4.709
19712WAT      O59377   2.096   1.922   0.412
19712WAT     H159378   2.131   1.830   0.430
19712WAT     H259379   2.153   1.967   0.344
19713WAT      O59380   3.123   4.647   1.536
19713WAT     H159381   3.025   4.666   1.530
19713WAT     H259382   3.145   4.612   1.626
19714WAT      O59383   3.803   3.198   8.749
19714WAT     H159384   3.888   3.218   8.699
19714WAT     H259385   3.800   3.253   8.832
19715WAT      O59386   2.556   0.473   6.805
19715WAT     H159387   2.552   0.484   6.904
19715WAT     H259388   2.617   0.542   6.765
19716WAT      O59389   4.277   6.507   9.702
19716WAT     H159390   4.373   6.535   9.695
19716WAT     H259391   4.267   6.415   9.664
19717WAT      O59392   0.416   6.142   7.664
19717WAT     H159393   0.401   6.064   7.725
19717WAT     H259394   0.454   6.219   7.717
19718WAT      O59395   0.794   4.871   0.444
19718WAT     H159396   0.786   4.961   0.401
19718WAT     H259397   0.764   4.876   0.539
19719WAT      O59398   0.653   9.382   3.024
19719WAT     H159399   0.741   9.343   3.051
19719WAT     H259400   0.598   9.401   3.106
19720WAT      O59401   3.416   0.070   0.642
19720WAT     H159402   3.402   0.166   0.615
19720WAT     H259403   3.338   0.041   0.698
19721WAT      O59404   5.328   6.019   2.687
19721WAT     H159405   5.326   5.919   2.699
19721WAT     H259406   5.387   6.060   2.756
19722WAT      O59407   9.296   8.379   8.113
19722WAT     H159408   9.202   8.412   8.124
19722WAT     H259409   9.360   8.456   8.117
19723WAT      O59410   0.473   5.450   1.930
19723WAT     H159411   0.564   5.415   1.955
19723WAT     H259412   0.444   5.409   1.844
19724WAT      O59413   0.141   9.808   3.238
19724WAT     H159414   0.204   9.849   3.304
19724WAT     H259415   0.172   9.715   3.216
19725WAT      O59416   3.644   5.466   2.401
19725WAT     H159417   3.734   5.449   2.361
19725WAT     H259418   3.583   5.506   2.333
19726WAT      O59419   4.248   4.510   7.909
19726WAT     H159420   4.221   4.566   7.987
19726WAT     H259421   4.176   4.512   7.839
19727WAT      O59422   9.234   7.416   5.558
19727WAT     H159423   9.158   7.400   5.495
19727WAT     H259424   9.199   7.451   5.645
19728WAT      O59425   0.680   3.768   9.699
19728WAT     H159426   0.688   3.681   9.651
19728WAT     H259427   0.585   3.786   9.722
19729WAT      O59428   0.546   3.255   3.651
19729WAT     H159429   0.545   3.155   3.641
19729WAT     H259430   0.591   3.296   3.571
19730WAT      O59431   0.551   1.855   0.063
19730WAT     H159432   0.610   1.807   0.127
19730WAT     H259433   0.508   1.933   0.108
19731WAT      O59434   2.174   0.094   1.422
19731WAT     H159435   2.222   0.176   1.389
19731WAT     H259436   2.116   0.118   1.499
19732WAT      O59437   1.922   7.478   9.439
19732WAT     H159438   1.999   7.432   9.395
19732WAT     H259439   1.953   7.524   9.522
19733WAT      O59440   6.576   6.183   8.221
19733WAT     H159441   6.569   6.083   8.219
19733WAT     H259442   6.490   6.223   8.189
19734WAT      O59443   5.161   5.679   0.637
19734WAT     H159444   5.118   5.680   0.727
19734WAT     H259445   5.162   5.771   0.599
19735WAT      O59446   7.142   6.233   3.762
19735WAT     H159447   7.139   6.326   3.799
19735WAT     H259448   7.234   6.196   3.772
19736WAT      O59449   4.002   8.377   4.433
19736WAT     H159450   4.102   8.378   4.424
19736WAT     H259451   3.967   8.287   4.405
19737WAT      O59452   3.794   7.830   2.016
19737WAT     H159453   3.729   7.801   1.946
19737WAT     H259454   3.744   7.869   2.094
19738WAT      O59455   0.546   5.903   8.716
19738WAT     H159456   0.549   5.997   8.748
19738WAT     H259457   0.617   5.849   8.761
19739WAT      O59458   4.340   3.773   0.660
19739WAT     H159459   4.419   3.794   0.602
19739WAT     H259460   4.259   3.816   0.621
19740WAT      O59461   5.006   9.536   4.323
19740WAT     H159462   4.986   9.527   4.421
19740WAT     H259463   5.102   9.559   4.310
19741WAT      O59464   7.789   8.595   6.927
19741WAT     H159465   7.744   8.511   6.898
19741WAT     H259466   7.722   8.656   6.970
19742WAT      O59467   5.507   7.076   4.336
19742WAT     H159468   5.483   6.994   4.284
19742WAT     H259469   5.596   7.061   4.381
19743WAT      O59470   5.134   7.732   1.279
19743WAT     H159471   5.161   7.690   1.366
19743WAT     H259472   5.037   7.715   1.262
19744WAT      O59473   1.686   1.832   3.371
19744WAT     H159474   1.693   1.794   3.463
19744WAT     H259475   1.610   1.897   3.368
19745WAT      O59476   3.825   6.293   4.914
19745WAT     H159477   3.837   6.271   5.010
19745WAT     H259478   3.834   6.210   4.859
19746WAT      O59479   1.104   8.940   0.838
19746WAT     H159480   1.195   8.982   0.840
19746WAT     H259481   1.113   8.844   0.813
19747WAT      O59482   2.294   3.205   0.146
19747WAT     H159483   2.378   3.182   0.098
19747WAT     H259484   2.234   3.258   0.086
19748WAT      O59485   5.860   6.916   6.647
19748WAT     H159486   5.785   6.980   6.626
19748WAT     H259487   5.855   6.890   6.743
19749WAT      O59488   9.299   4.577   8.925
19749WAT     H159489   9.388   4.586   8.880
19749WAT     H259490   9.286   4.653   8.988
19750WAT      O59491   6.446   0.435   7.538
19750WAT     H159492   6.369   0.421   7.601
19750WAT     H259493   6.530   0.400   7.579
19751WAT      O59494   6.999   0.694   5.432
19751WAT     H159495   7.050   0.646   5.361
19751WAT     H259496   6.909   0.719   5.397
19752WAT      O59497   8.953   2.410   7.191
19752WAT     H159498   8.871   2.365   7.154
19752WAT     H259499   8.969   2.376   7.284
19753WAT      O59500   8.641   4.546   3.067
19753WAT     H159501   8.587   4.627   3.094
19753WAT     H259502   8.584   4.487   3.010
19754WAT      O59503   8.665   8.079   9.845
19754WAT     H159504   8.591   8.059   9.780
19754WAT     H259505   8.753   8.061   9.802
19755WAT      O59506   4.822   8.951   8.688
19755WAT     H159507   4.862   8.874   8.738
19755WAT     H259508   4.892   8.990   8.627
19756WAT      O59509   6.057   0.196   0.573
19756WAT     H159510   6.141   0.160   0.531
19756WAT     H259511   6.050   0.164   0.667
19757WAT      O59512   7.530   8.500   8.077
19757WAT     H159513   7.447   8.514   8.131
19757WAT     H259514   7.569   8.410   8.099
19758WAT      O59515   0.608   9.341   7.336
19758WAT     H159516   0.677   9.321   7.267
19758WAT     H259517   0.583   9.438   7.331
19759WAT      O59518   3.727   4.203   6.356
19759WAT     H159519   3.763   4.193   6.263
19759WAT     H259520   3.633   4.237   6.352
19760WAT      O59521   0.056   0.058   6.205
19760WAT     H159522   0.030  -0.038   6.207
19760WAT     H259523   0.011   0.106   6.280
19761WAT      O59524   5.763   8.515   5.919
19761WAT     H159525   5.839   8.499   5.981
19761WAT     H259526   5.782   8.596   5.863
19762WAT      O59527   2.783   1.974   5.115
19762WAT     H159528   2.859   1.918   5.148
19762WAT     H259529   2.733   2.012   5.192
19763WAT      O59530   7.194   8.379   4.211
19763WAT     H159531   7.286   8.410   4.235
19763WAT     H259532   7.186   8.282   4.229
19764WAT      O59533   1.561   9.679   9.545
19764WAT     H159534   1.656   9.708   9.542
19764WAT     H259535   1.523   9.681   9.452
19765WAT      O59536   7.737   3.899   3.189
19765WAT     H159537   7.645   3.884   3.153
19765WAT     H259538   7.744   3.859   3.280
19766WAT      O59539   4.186   8.281   1.164
19766WAT     H159540   4.153   8.347   1.096
19766WAT     H259541   4.258   8.225   1.122
19767WAT      O59542   5.553   3.845   2.939
19767WAT     H159543   5.591   3.936   2.958
19767WAT     H259544   5.607   3.801   2.868
19768WAT      O59545   9.236   3.944   3.801
19768WAT     H159546   9.191   4.002   3.869
19768WAT     H259547   9.186   3.951   3.714
19769WAT      O59548   1.799   0.186   0.924
19769WAT     H159549   1.738   0.117   0.963
19769WAT     H259550   1.766   0.277   0.949
19770WAT      O59551   6.872   6.758   5.635
19770WAT     H159552   6.955   6.807   5.610
19770WAT     H259553   6.796   6.823   5.641
19771WAT      O59554   6.197   1.265   4.875
19771WAT     H159555   6.169   1.280   4.780
19771WAT     H259556   6.228   1.170   4.886
19772WAT      O59557   2.919   4.488   8.762
19772WAT     H159558   2.972   4.405   8.747
19772WAT     H259559   2.925   4.516   8.858
19773WAT      O59560   0.820   7.648   1.474
19773WAT     H159561   0.792   7.683   1.384
19773WAT     H259562   0.879   7.716   1.519
19774WAT      O59563   9.420   7.040   0.632
19774WAT     H159564   9.405   6.951   0.675
19774WAT     H259565   9.516   7.065   0.639
19775WAT      O59566   6.327   2.501   4.942
19775WAT     H159567   6.383   2.471   5.019
19775WAT     H259568   6.233   2.519   4.974
19776WAT      O59569   4.388   7.259   6.690
19776WAT     H159570   4.361   7.163   6.681
19776WAT     H259571   4.379   7.305   6.602
19777WAT      O59572   6.714   1.466   5.927
19777WAT     H159573   6.641   1.400   5.945
19777WAT     H259574   6.754   1.448   5.838
19778WAT      O59575   7.468   2.985   0.275
19778WAT     H159576   7.420   2.910   0.319
19778WAT     H259577   7.450   2.983   0.176
19779WAT      O59578   0.762   1.072   4.582
19779WAT     H159579   0.800   0.979   4.583
19779WAT     H259580   0.780   1.115   4.494
19780WAT      O59581   4.850   7.044   0.295
19780WAT     H159582   4.821   6.987   0.372
19780WAT     H259583   4.880   7.133   0.328
19781WAT      O59584   9.061   4.762   7.136
19781WAT     H159585   9.002   4.803   7.066
19781WAT     H259586   9.033   4.794   7.227
19782WAT      O59587   1.326   5.317   5.286
19782WAT     H159588   1.306   5.239   5.345
19782WAT     H259589   1.282   5.303   5.197
19783WAT      O59590   0.955   8.246   0.426
19783WAT     H159591   0.945   8.345   0.413
19783WAT     H259592   0.964   8.226   0.523
19784WAT      O59593   5.404   4.302   2.293
19784WAT     H159594   5.372   4.313   2.387
19784WAT     H259595   5.340   4.346   2.230
19785WAT      O59596   7.921   1.091   3.712
19785WAT     H159597   7.972   1.174   3.730
19785WAT     H259598   7.931   1.028   3.789
19786WAT      O59599   1.476   8.345   2.011
19786WAT     H159600   1.447   8.429   1.965
19786WAT     H259601   1.453   8.351   2.108
19787WAT      O59602   1.565   2.459   4.719
19787WAT     H159603   1.529   2.422   4.805
19787WAT     H259604   1.598   2.552   4.734
19788WAT      O59605   8.785   6.172   5.236
19788WAT     H159606   8.822   6.262   5.258
19788WAT     H259607   8.800   6.110   5.313
19789WAT      O59608   9.121   2.537   8.454
19789WAT     H159609   9.101   2.511   8.359
19789WAT     H259610   9.214   2.574   8.458
19790WAT      O59611   1.988   3.548   6.072
19790WAT     H159612   1.888   3.551   6.070
19790WAT     H259613   2.024   3.639   6.096
19791WAT      O59614   8.240   3.831   9.291
19791WAT     H159615   8.241   3.731   9.288
19791WAT     H259616   8.180   3.862   9.364
19792WAT      O59617   9.310   6.131   9.548
19792WAT     H159618   9.329   6.224   9.517
19792WAT     H259619   9.261   6.081   9.477
19793WAT      O59620   6.069   1.474   6.726
19793WAT     H159621   6.113   1.526   6.799
19793WAT     H259622   5.982   1.517   6.702
19794WAT      O59623   7.207   6.063   5.684
19794WAT     H159624   7.240   6.156   5.669
19794WAT     H259625   7.274   5.998   5.650
19795WAT      O59626   5.201   2.932   3.018
19795WAT     H159627   5.294   2.967   3.026
19795WAT     H259628   5.171   2.936   2.923
19796WAT      O59629   4.605   5.810   6.454
19796WAT     H159630   4.525   5.855   6.495
19796WAT     H259631   4.658   5.764   6.526
19797WAT      O59632   8.568   2.687   0.312
19797WAT     H159633   8.662   2.653   0.322
19797WAT     H259634   8.563   2.781   0.346
19798WAT      O59635   4.233   1.088   0.130
19798WAT     H159636   4.154   1.032   0.154
19798WAT     H259637   4.201   1.177   0.098
19799WAT      O59638   5.448   5.949   5.666
19799WAT     H159639   5.369   5.907   5.710
19799WAT     H259640   5.526   5.948   5.729
19800WAT      O59641   0.620   7.522   7.732
19800WAT     H159642   0.557   7.592   7.698
19800WAT     H259643   0.601   7.435   7.688
19801WAT      O59644   8.505   6.637   3.885
19801WAT     H159645   8.601   6.640   3.912
19801WAT     H259646   8.496   6.658   3.788
19802WAT      O59647   3.291   4.328   3.498
19802WAT     H159648   3.294   4.309   3.596
19802WAT     H259649   3.207   4.291   3.459
19803WAT      O59650   2.176   0.717   6.729
19803WAT     H159651   2.081   0.690   6.740
19803WAT     H259652   2.231   0.677   6.802
19804WAT      O59653   6.819   5.771   7.952
19804WAT     H159654   6.849   5.684   7.913
19804WAT     H259655   6.885   5.842   7.931
19805WAT      O59656   6.936   8.516   3.535
19805WAT     H159657   7.022   8.465   3.535
19805WAT     H259658   6.911   8.538   3.441
19806WAT      O59659   5.330   7.780   4.891
19806WAT     H159660   5.334   7.704   4.956
19806WAT     H259661   5.360   7.864   4.936
19807WAT      O59662   8.608   5.563   9.178
19807WAT     H159663   8.563   5.497   9.117
19807WAT     H259664   8.559   5.649   9.175
19808WAT      O59665   6.213   7.067   0.939
19808WAT     H159666   6.309   7.095   0.930
19808WAT     H259667   6.207   6.967   0.938
19809WAT      O59668   3.547   2.515   8.239
19809WAT     H159669   3.571   2.494   8.334
19809WAT     H259670   3.448   2.526   8.231
19810WAT      O59671   4.993   3.460   5.866
19810WAT     H159672   4.923   3.398   5.899
19810WAT     H259673   5.016   3.436   5.771
19811WAT      O59674   0.490   8.204   6.738
19811WAT     H159675   0.489   8.114   6.782
19811WAT     H259676   0.397   8.234   6.721
19812WAT      O59677   6.748   3.724   4.466
19812WAT     H159678   6.804   3.657   4.515
19812WAT     H259679   6.803   3.768   4.395
19813WAT      O59680   2.943   4.621   5.532
19813WAT     H159681   3.011   4.683   5.494
19813WAT     H259682   2.898   4.570   5.459
19814WAT      O59683   2.786   2.733   5.952
19814WAT     H159684   2.876   2.777   5.948
19814WAT     H259685   2.771   2.695   6.043
19815WAT      O59686   3.438   3.074   4.343
19815WAT     H159687   3.473   3.167   4.344
19815WAT     H259688   3.342   3.074   4.370
19816WAT      O59689   1.919   3.626   0.640
19816WAT     H159690   1.896   3.545   0.693
19816WAT     H259691   1.992   3.677   0.686
19817WAT      O59692   8.549   2.533   0.072
19817WAT     H159693   8.581   2.593  -0.002
19817WAT     H259694   8.568   2.575   0.160
19818WAT      O59695   5.869   0.083   3.950
19818WAT     H159696   5.962   0.055   3.927
19818WAT     H259697   5.807   0.005   3.939
19819WAT      O59698   5.415   1.588   3.903
19819WAT     H159699   5.350   1.528   3.949
19819WAT     H259700   5.470   1.535   3.838
19820WAT      O59701   5.735   2.074   1.322
19820WAT     H159702   5.703   2.071   1.227
19820WAT     H259703   5.746   1.980   1.356
19821WAT      O59704   1.586   1.094   3.510
19821WAT     H159705   1.497   1.059   3.539
19821WAT     H259706   1.655   1.072   3.580
19822WAT      O59707   0.228   2.686   0.132
19822WAT     H159708   0.140   2.733   0.123
19822WAT     H259709   0.295   2.727   0.071
19823WAT      O59710   9.874   9.241   2.568
19823WAT     H159711   9.859   9.253   2.470
19823WAT     H259712   9.803   9.290   2.619
19824WAT      O59713   6.762   5.620   6.379
19824WAT     H159714   6.756   5.591   6.284
19824WAT     H259715   6.834   5.689   6.388
19825WAT      O59716   0.148   1.646   8.721
19825WAT     H159717   0.065   1.610   8.763
19825WAT     H259718   0.205   1.570   8.688
19826WAT      O59719   9.259   2.816   7.172
19826WAT     H159720   9.320   2.893   7.155
19826WAT     H259721   9.294   2.763   7.249
19827WAT      O59722   0.666   6.827   0.669
19827WAT     H159723   0.621   6.797   0.585
19827WAT     H259724   0.713   6.914   0.653
19828WAT      O59725   9.202   3.326   0.024
19828WAT     H159726   9.264   3.262  -0.023
19828WAT     H259727   9.117   3.278   0.048
19829WAT      O59728   5.154   4.277   6.363
19829WAT     H159729   5.105   4.347   6.310
19829WAT     H259730   5.088   4.219   6.411
19830WAT      O59731   2.697   2.267   7.469
19830WAT     H159732   2.669   2.362   7.484
19830WAT     H259733   2.716   2.253   7.372
19831WAT      O59734   0.426   6.408   6.981
19831WAT     H159735   0.406   6.493   7.030
19831WAT     H259736   0.519   6.413   6.943
19832WAT      O59737   2.434   5.780   8.566
19832WAT     H159738   2.353   5.832   8.594
19832WAT     H259739   2.462   5.720   8.640
19833WAT      O59740   4.827   4.736   4.416
19833WAT     H159741   4.808   4.673   4.491
19833WAT     H259742   4.895   4.804   4.445
19834WAT      O59743   1.653   9.077   9.691
19834WAT     H159744   1.625   9.001   9.632
19834WAT     H259745   1.672   9.042   9.783
19835WAT      O59746   3.867   8.438   2.224
19835WAT     H159747   3.841   8.367   2.159
19835WAT     H259748   3.847   8.528   2.185
19836WAT      O59749   2.937   3.545   6.941
19836WAT     H159750   3.036   3.563   6.944
19836WAT     H259751   2.916   3.482   6.867
19837WAT      O59752   5.307   6.366   8.959
19837WAT     H159753   5.227   6.383   8.902
19837WAT     H259754   5.360   6.451   8.968
19838WAT      O59755   8.673   8.483   8.223
19838WAT     H159756   8.760   8.489   8.272
19838WAT     H259757   8.684   8.521   8.131
19839WAT      O59758   5.987   5.340   1.349
19839WAT     H159759   6.042   5.308   1.427
19839WAT     H259760   6.026   5.425   1.313
19840WAT      O59761   0.048   3.460   1.343
19840WAT     H159762   0.030   3.552   1.309
19840WAT     H259763  -0.023   3.398   1.311
19841WAT      O59764   6.860   3.808   3.685
19841WAT     H159765   6.897   3.901   3.677
19841WAT     H259766   6.809   3.785   3.602
19842WAT      O59767   8.157   5.718   8.569
19842WAT     H159768   8.124   5.623   8.570
19842WAT     H259769   8.081   5.780   8.550
19843WAT      O59770   1.385   8.717   9.145
19843WAT     H159771   1.431   8.647   9.201
19843WAT     H259772   1.286   8.700   9.144
19844WAT      O59773   9.171   1.013   1.138
19844WAT     H159774   9.199   1.109   1.129
19844WAT     H259775   9.133   0.998   1.230
19845WAT      O59776   2.866   3.930   7.523
19845WAT     H159777   2.908   4.019   7.506
19845WAT     H259778   2.890   3.898   7.614
19846WAT      O59779   0.501   3.837   5.866
19846WAT     H159780   0.594   3.839   5.828
19846WAT     H259781   0.486   3.749   5.910
19847WAT      O59782   7.304   1.540   9.221
19847WAT     H159783   7.215   1.569   9.186
19847WAT     H259784   7.292   1.484   9.302
19848WAT      O59785   1.931   1.587   0.959
19848WAT     H159786   1.985   1.527   1.019
19848WAT     H259787   1.952   1.682   0.979
19849WAT      O59788   0.027   9.361   5.062
19849WAT     H159789   0.045   9.284   5.002
19849WAT     H259790   0.035   9.446   5.011
19850WAT      O59791   0.982   0.921   1.431
19850WAT     H159792   0.970   1.013   1.467
19850WAT     H259793   0.949   0.918   1.336
19851WAT      O59794   7.903   9.178   3.710
19851WAT     H159795   7.894   9.132   3.799
19851WAT     H259796   7.979   9.137   3.660
19852WAT      O59797   1.607   2.877   6.297
19852WAT     H159798   1.588   2.937   6.219
19852WAT     H259799   1.702   2.887   6.324
19853WAT      O59800   0.114   2.546   7.884
19853WAT     H159801   0.149   2.498   7.964
19853WAT     H259802   0.029   2.502   7.853
19854WAT      O59803   5.473   3.500   8.796
19854WAT     H159804   5.471   3.599   8.809
19854WAT     H259805   5.456   3.479   8.700
19855WAT      O59806   0.456   5.820   3.807
19855WAT     H159807   0.374   5.823   3.749
19855WAT     H259808   0.523   5.758   3.768
19856WAT      O59809   4.612   3.632   7.289
19856WAT     H159810   4.532   3.577   7.266
19856WAT     H259811   4.691   3.573   7.302
19857WAT      O59812   2.376   2.274   8.303
19857WAT     H159813   2.424   2.313   8.381
19857WAT     H259814   2.435   2.275   8.223
19858WAT      O59815   2.946   9.154   2.653
19858WAT     H159816   2.961   9.087   2.581
19858WAT     H259817   2.854   9.143   2.691
19859WAT      O59818   4.531   7.147   7.943
19859WAT     H159819   4.541   7.050   7.964
19859WAT     H259820   4.476   7.191   8.014
19860WAT      O59821   9.859   6.409   6.050
19860WAT     H159822   9.760   6.408   6.066
19860WAT     H259823   9.900   6.486   6.098
19861WAT      O59824   3.052   9.846   6.435
19861WAT     H159825   2.974   9.786   6.414
19861WAT     H259826   3.075   9.838   6.532
19862WAT      O59827   7.880   4.671   5.935
19862WAT     H159828   7.799   4.719   5.968
19862WAT     H259829   7.922   4.724   5.861
19863WAT      O59830   5.307   6.628   6.112
19863WAT     H159831   5.238   6.620   6.183
19863WAT     H259832   5.303   6.547   6.053
19864WAT      O59833   5.421   7.461   7.135
19864WAT     H159834   5.356   7.517   7.084
19864WAT     H259835   5.509   7.458   7.086
19865WAT      O59836   7.796   2.173   4.528
19865WAT     H159837   7.880   2.170   4.472
19865WAT     H259838   7.776   2.268   4.553
19866WAT      O59839   4.616   2.402   1.636
19866WAT     H159840   4.615   2.390   1.537
19866WAT     H259841   4.596   2.497   1.659
19867WAT      O59842   2.398   7.854   9.596
19867WAT     H159843   2.337   7.801   9.655
19867WAT     H259844   2.372   7.950   9.600
19868WAT      O59845   6.376   1.110   1.469
19868WAT     H159846   6.368   1.116   1.569
19868WAT     H259847   6.408   1.198   1.433
19869WAT      O59848   8.748   7.083   0.574
19869WAT     H159849   8.737   7.181   0.563
19869WAT     H259850   8.799   7.045   0.497
19870WAT      O59851   6.746   0.534   7.137
19870WAT     H159852   6.782   0.516   7.228
19870WAT     H259853   6.649   0.510   7.133
19871WAT      O59854   4.989   1.897   1.596
19871WAT     H159855   4.922   1.925   1.528
19871WAT     H259856   5.019   1.977   1.648
19872WAT      O59857   0.084   5.444   9.276
19872WAT     H159858   0.001   5.393   9.253
19872WAT     H259859   0.156   5.422   9.211
19873WAT      O59860   2.965   0.175   0.347
19873WAT     H159861   3.042   0.139   0.399
19873WAT     H259862   2.998   0.218   0.263
19874WAT      O59863   3.705   4.433   4.154
19874WAT     H159864   3.701   4.522   4.109
19874WAT     H259865   3.800   4.409   4.172
19875WAT      O59866   5.249   0.200   2.661
19875WAT     H159867   5.273   0.286   2.706
19875WAT     H259868   5.239   0.216   2.562
19876WAT      O59869   9.255   4.074   9.691
19876WAT     H159870   9.189   4.071   9.766
19876WAT     H259871   9.242   4.158   9.638
19877WAT      O59872   4.921   6.265   3.072
19877WAT     H159873   4.857   6.305   3.006
19877WAT     H259874   4.979   6.198   3.026
19878WAT      O59875   0.039   2.684   2.392
19878WAT     H159876   0.023   2.781   2.408
19878WAT     H259877  -0.014   2.654   2.312
19879WAT      O59878   9.111   7.781   3.247
19879WAT     H159879   9.019   7.746   3.267
19879WAT     H259880   9.132   7.855   3.311
19880WAT      O59881   4.212   3.739   7.878
19880WAT     H159882   4.277   3.666   7.898
19880WAT     H259883   4.225   3.814   7.942
19881WAT      O59884   1.043   0.128   1.839
19881WAT     H159885   0.998   0.045   1.874
19881WAT     H259886   1.001   0.208   1.880
19882WAT      O59887   0.449   5.227   5.003
19882WAT     H159888   0.486   5.159   4.939
19882WAT     H259889   0.480   5.204   5.096
19883WAT      O59890   5.067   9.684   8.494
19883WAT     H159891   5.135   9.621   8.532
19883WAT     H259892   5.093   9.708   8.401
19884WAT      O59893   7.235   8.327   6.989
19884WAT     H159894   7.146   8.370   6.972
19884WAT     H259895   7.289   8.327   6.905
19885WAT      O59896   7.558   9.367   8.936
19885WAT     H159897   7.553   9.325   9.027
19885WAT     H259898   7.648   9.409   8.924
19886WAT      O59899   4.633   1.515   2.948
19886WAT     H159900   4.561   1.584   2.938
19886WAT     H259901   4.707   1.535   2.884
19887WAT      O59902   1.147   4.632   1.537
19887WAT     H159903   1.081   4.625   1.463
19887WAT     H259904   1.237   4.601   1.506
19888WAT      O59905   2.328   7.418   8.330
19888WAT     H159906   2.238   7.380   8.309
19888WAT     H259907   2.321   7.517   8.342
19889WAT      O59908   4.626   5.691   6.197
19889WAT     H159909   4.713   5.648   6.170
19889WAT     H259910   4.635   5.730   6.288
19890WAT      O59911   8.598   0.864   9.697
19890WAT     H159912   8.679   0.845   9.753
19890WAT     H259913   8.555   0.949   9.728
19891WAT      O59914   3.107   8.263   1.884
19891WAT     H159915   3.144   8.180   1.842
19891WAT     H259916   3.008   8.263   1.876
19892WAT      O59917   4.019   2.953   6.489
19892WAT     H159918   4.118   2.948   6.474
19892WAT     H259919   3.997   3.035   6.543
19893WAT      O59920   6.158   3.623   9.842
19893WAT     H159921   6.101   3.561   9.897
19893WAT     H259922   6.243   3.642   9.891
19894WAT      O59923   3.815   0.580   2.639
19894WAT     H159924   3.913   0.561   2.638
19894WAT     H259925   3.799   0.666   2.689
19895WAT      O59926   9.824   2.268   7.582
19895WAT     H159927   9.913   2.305   7.556
19895WAT     H259928   9.834   2.172   7.607
19896WAT      O59929   8.244   6.333   4.223
19896WAT     H159930   8.320   6.368   4.169
19896WAT     H259931   8.275   6.313   4.316
19897WAT      O59932   9.381   6.636   1.488
19897WAT     H159933   9.407   6.724   1.450
19897WAT     H259934   9.427   6.563   1.437
19898WAT      O59935   0.045   7.605   3.787
19898WAT     H159936   0.032   7.590   3.689
19898WAT     H259937   0.008   7.694   3.812
19899WAT      O59938   1.488   3.839   3.837
19899WAT     H159939   1.400   3.875   3.866
19899WAT     H259940   1.511   3.758   3.891
19900WAT      O59941   1.518   1.538   1.849
19900WAT     H159942   1.519   1.463   1.782
19900WAT     H259943   1.538   1.501   1.940
19901WAT      O59944   6.860   4.505   3.045
19901WAT     H159945   6.886   4.499   2.949
19901WAT     H259946   6.845   4.414   3.082
19902WAT      O59947   3.242   0.649   3.104
19902WAT     H159948   3.278   0.605   3.185
19902WAT     H259949   3.253   0.748   3.112
19903WAT      O59950   2.344   5.310   7.798
19903WAT     H159951   2.329   5.329   7.895
19903WAT     H259952   2.439   5.332   7.774
19904WAT      O59953   3.369   0.050   6.761
19904WAT     H159954   3.429   0.131   6.760
19904WAT     H259955   3.425  -0.032   6.773
19905WAT      O59956   5.592   2.426   2.762
19905WAT     H159957   5.650   2.491   2.713
19905WAT     H259958   5.611   2.333   2.729
19906WAT      O59959   9.125   1.474   6.761
19906WAT     H159960   9.162   1.444   6.673
19906WAT     H259961   9.038   1.521   6.747
19907WAT      O59962   5.666   2.940   5.744
19907WAT     H159963   5.749   2.922   5.797
19907WAT     H259964   5.627   3.027   5.771
19908WAT      O59965   1.893   4.241   6.273
19908WAT     H159966   1.877   4.178   6.349
19908WAT     H259967   1.991   4.256   6.261
19909WAT      O59968   9.328   7.648   8.461
19909WAT     H159969   9.353   7.670   8.366
19909WAT     H259970   9.238   7.605   8.463
19910WAT      O59971   7.367   8.841   1.265
19910WAT     H159972   7.325   8.930   1.249
19910WAT     H259973   7.301   8.780   1.308
19911WAT      O59974   9.113   3.805   2.423
19911WAT     H159975   9.169   3.869   2.369
19911WAT     H259976   9.095   3.845   2.513
19912WAT      O59977   7.450   7.425   8.850
19912WAT     H159978   7.509   7.499   8.820
19912WAT     H259979   7.355   7.446   8.826
19913WAT      O59980   9.708   8.261   2.757
19913WAT     H159981   9.635   8.264   2.688
19913WAT     H259982   9.731   8.354   2.786
19914WAT      O59983   1.120   7.707   2.370
19914WAT     H159984   1.196   7.707   2.434
19914WAT     H259985   1.041   7.661   2.411
19915WAT      O59986   3.633   1.466   0.443
19915WAT     H159987   3.655   1.405   0.520
19915WAT     H259988   3.560   1.528   0.470
19916WAT      O59989   4.972   5.505   4.980
19916WAT     H159990   4.950   5.441   4.906
19916WAT     H259991   4.896   5.569   4.991
19917WAT      O59992   8.657   4.938   3.543
19917WAT     H159993   8.705   4.870   3.598
19917WAT     H259994   8.686   4.931   3.448
19918WAT      O59995   3.366   4.751   4.207
19918WAT     H159996   3.271   4.753   4.178
19918WAT     H259997   3.375   4.798   4.295
19919WAT      O59998   6.426   4.974   8.544
19919WAT     H159999   6.390   5.029   8.619
19919WAT     H260000   6.490   5.028   8.490
19920WAT      O60001   7.368   0.772   1.147
19920WAT     H160002   7.441   0.719   1.105
19920WAT     H260003   7.400   0.864   1.168
19921WAT      O60004   6.480   9.343   7.044
19921WAT     H160005   6.439   9.257   7.075
19921WAT     H260006   6.438   9.370   6.957
19922WAT      O60007   2.414   5.457   1.776
19922WAT     H160008   2.455   5.376   1.817
19922WAT     H260009   2.315   5.443   1.768
19923WAT      O60010   7.997   6.179   6.404
19923WAT     H160011   7.996   6.081   6.384
19923WAT     H260012   7.973   6.231   6.322
19924WAT      O60013   5.778   8.233   4.510
19924WAT     H160014   5.682   8.240   4.536
19924WAT     H260015   5.835   8.239   4.592
19925WAT      O60016   7.619   7.551   8.135
19925WAT     H160017   7.583   7.491   8.064
19925WAT     H260018   7.545   7.609   8.170
19926WAT      O60019   4.717   5.563   4.861
19926WAT     H160020   4.636   5.591   4.913
19926WAT     H260021   4.690   5.498   4.790
19927WAT      O60022   6.105   9.787   3.676
19927WAT     H160023   6.185   9.731   3.654
19927WAT     H260024   6.111   9.874   3.629
19928WAT      O60025   5.992   2.614   5.789
19928WAT     H160026   5.989   2.551   5.711
19928WAT     H260027   5.901   2.648   5.809
19929WAT      O60028   2.684   4.969   0.498
19929WAT     H160029   2.610   5.022   0.458
19929WAT     H260030   2.653   4.925   0.582
19930WAT      O60031   2.435   0.757   5.232
19930WAT     H160032   2.488   0.807   5.300
19930WAT     H260033   2.462   0.786   5.140
19931WAT      O60034   3.266   5.520   0.907
19931WAT     H160035   3.185   5.471   0.939
19931WAT     H260036   3.319   5.460   0.847
19932WAT      O60037   9.862   8.537   6.053
19932WAT     H160038   9.808   8.459   6.020
19932WAT     H260039   9.832   8.560   6.146
19933WAT      O60040   0.329   3.803   5.659
19933WAT     H160041   0.400   3.835   5.721
19933WAT     H260042   0.289   3.719   5.694
19934WAT      O60043   2.173   4.343   3.968
19934WAT     H160044   2.261   4.381   3.995
19934WAT     H260045   2.111   4.342   4.047
19935WAT      O60046   3.276   1.142   5.664
19935WAT     H160047   3.269   1.239   5.641
19935WAT     H260048   3.320   1.093   5.589
19936WAT      O60049   0.741   3.243   0.367
19936WAT     H160050   0.720   3.242   0.269
19936WAT     H260051   0.824   3.297   0.383
19937WAT      O60052   9.086   0.396   8.547
19937WAT     H160053   9.112   0.489   8.521
19937WAT     H260054   9.165   0.349   8.586
19938WAT      O60055   1.491   4.675   6.911
19938WAT     H160056   1.484   4.731   6.993
19938WAT     H260057   1.568   4.707   6.855
19939WAT      O60058   7.097   2.936   7.466
19939WAT     H160059   7.192   2.966   7.472
19939WAT     H260060   7.084   2.883   7.382
19940WAT      O60061   6.390   6.139   7.939
19940WAT     H160062   6.393   6.083   7.856
19940WAT     H260063   6.354   6.084   8.015
19941WAT      O60064   7.564   4.629   1.900
19941WAT     H160065   7.624   4.649   1.977
19941WAT     H260066   7.508   4.710   1.880
19942WAT      O60067   6.599   1.711   4.153
19942WAT     H160068   6.672   1.752   4.098
19942WAT     H260069   6.513   1.759   4.135
19943WAT      O60070   6.820   1.084   8.292
19943WAT     H160071   6.861   1.172   8.266
19943WAT     H260072   6.812   1.079   8.391
19944WAT      O60073   7.238   0.200   1.853
19944WAT     H160074   7.268   0.105   1.855
19944WAT     H260075   7.155   0.208   1.797
19945WAT      O60076   9.398   8.552   0.623
19945WAT     H160077   9.341   8.539   0.543
19945WAT     H260078   9.470   8.619   0.602
19946WAT      O60079   0.629   1.753   7.838
19946WAT     H160080   0.658   1.844   7.867
19946WAT     H260081   0.709   1.695   7.826
19947WAT      O60082   5.964   6.478   5.524
19947WAT     H160083   6.010   6.553   5.478
19947WAT     H260084   5.969   6.396   5.468
19948WAT      O60085   1.115   5.763   0.676
19948WAT     H160086   1.091   5.851   0.718
19948WAT     H260087   1.180   5.779   0.601
19949WAT      O60088   0.085   6.100   6.746
19949WAT     H160089   0.132   6.151   6.674
19949WAT     H260090   0.104   6.003   6.736
19950WAT      O60091   4.401   8.720   6.485
19950WAT     H160092   4.432   8.814   6.503
19950WAT     H260093   4.480   8.658   6.488
19951WAT      O60094   0.935   7.223   4.829
19951WAT     H160095   1.024   7.267   4.839
19951WAT     H260096   0.932   7.139   4.884
19952WAT      O60097   3.829   0.255   1.804
19952WAT     H160098   3.778   0.301   1.732
19952WAT     H260099   3.922   0.292   1.809
19953WAT      O60100   6.483   0.295   2.405
19953WAT     H160101   6.420   0.332   2.337
19953WAT     H260102   6.494   0.361   2.480
19954WAT      O60103   2.404   3.119   4.820
19954WAT     H160104   2.462   3.181   4.873
19954WAT     H260105   2.427   3.127   4.723
19955WAT      O60106   6.303   0.628   2.025
19955WAT     H160107   6.257   0.661   2.107
19955WAT     H260108   6.367   0.555   2.048
19956WAT      O60109   9.051   1.264   7.185
19956WAT     H160110   9.054   1.263   7.085
19956WAT     H260111   9.139   1.295   7.220
19957WAT      O60112   1.929   1.548   5.400
19957WAT     H160113   1.886   1.625   5.449
19957WAT     H260114   1.981   1.583   5.322
19958WAT      O60115   0.769   0.707   7.327
19958WAT     H160116   0.714   0.638   7.279
19958WAT     H260117   0.707   0.776   7.367
19959WAT      O60118   2.039   3.550   2.951
19959WAT     H160119   2.115   3.485   2.958
19959WAT     H260120   2.019   3.588   3.041
19960WAT      O60121   9.836   5.548   5.501
19960WAT     H160122   9.844   5.465   5.447
19960WAT     H260123   9.902   5.546   5.577
19961WAT      O60124   2.442   4.698   9.882
19961WAT     H160125   2.431   4.617   9.824
19961WAT     H260126   2.528   4.691   9.933
19962WAT      O60127   5.815   3.066   1.619
19962WAT     H160128   5.734   3.044   1.565
19962WAT     H260129   5.866   2.982   1.639
19963WAT      O60130   5.495   6.312   2.791
19963WAT     H160131   5.581   6.299   2.841
19963WAT     H260132   5.509   6.291   2.694
19964WAT      O60133   9.196   6.537   4.035
19964WAT     H160134   9.200   6.636   4.022
19964WAT     H260135   9.179   6.517   4.132
19965WAT      O60136   7.173   0.932   9.739
19965WAT     H160137   7.241   0.862   9.762
19965WAT     H260138   7.087   0.888   9.711
19966WAT      O60139   2.918   3.334   4.693
19966WAT     H160140   2.857   3.286   4.629
19966WAT     H260141   3.009   3.341   4.652
19967WAT      O60142   7.700   2.071   9.323
19967WAT     H160143   7.651   2.154   9.350
19967WAT     H260144   7.635   1.996   9.313
19968WAT      O60145   8.313   8.585   8.786
19968WAT     H160146   8.304   8.648   8.709
19968WAT     H260147   8.235   8.522   8.787
19969WAT      O60148   7.651   4.791   1.604
19969WAT     H160149   7.596   4.714   1.634
19969WAT     H260150   7.620   4.822   1.514
19970WAT      O60151   8.018   1.975   7.782
19970WAT     H160152   7.929   1.961   7.826
19970WAT     H260153   8.007   1.973   7.683
19971WAT      O60154   2.870   0.621   6.571
19971WAT     H160155   2.782   0.661   6.596
19971WAT     H260156   2.860   0.521   6.566
19972WAT      O60157   3.968   5.458   6.603
19972WAT     H160158   4.025   5.525   6.556
19972WAT     H260159   3.953   5.379   6.544
19973WAT      O60160   0.569   5.284   0.859
19973WAT     H160161   0.487   5.334   0.835
19973WAT     H260162   0.644   5.310   0.797
19974WAT      O60163   7.113   1.995   0.766
19974WAT     H160164   7.107   1.936   0.846
19974WAT     H260165   7.060   1.954   0.691
19975WAT      O60166   9.469   7.719   6.431
19975WAT     H160167   9.381   7.761   6.406
19975WAT     H260168   9.537   7.791   6.445
19976WAT      O60169   8.859   6.999   5.633
19976WAT     H160170   8.831   6.936   5.561
19976WAT     H260171   8.807   7.084   5.625
19977WAT      O60172   1.149   0.033   8.203
19977WAT     H160173   1.083   0.046   8.128
19977WAT     H260174   1.234  -0.005   8.167
19978WAT      O60175   2.116   9.714   0.321
19978WAT     H160176   2.179   9.764   0.262
19978WAT     H260177   2.099   9.767   0.405
19979WAT      O60178   1.844   8.211   9.314
19979WAT     H160179   1.845   8.111   9.319
19979WAT     H260180   1.936   8.245   9.332
19980WAT      O60181   8.764   8.382   4.954
19980WAT     H160182   8.731   8.476   4.951
19980WAT     H260183   8.692   8.320   4.922
19981WAT      O60184   4.636   2.521   6.304
19981WAT     H160185   4.664   2.436   6.348
19981WAT     H260186   4.601   2.501   6.213
19982WAT      O60187   4.671   1.727   7.072
19982WAT     H160188   4.708   1.712   7.164
19982WAT     H260189   4.580   1.687   7.066
19983WAT      O60190   8.635   8.435   9.213
19983WAT     H160191   8.722   8.405   9.174
19983WAT     H260192   8.559   8.393   9.164
19984WAT      O60193   6.340   0.737   7.738
19984WAT     H160194   6.406   0.752   7.812
19984WAT     H260195   6.388   0.710   7.655
19985WAT      O60196   1.575   0.731   4.351
19985WAT     H160197   1.622   0.660   4.403
19985WAT     H260198   1.495   0.762   4.402
19986WAT      O60199   5.527   5.773   5.049
19986WAT     H160200   5.435   5.745   5.076
19986WAT     H260201   5.534   5.873   5.052
19987WAT      O60202   2.528   8.759   9.239
19987WAT     H160203   2.510   8.717   9.328
19987WAT     H260204   2.581   8.696   9.182
19988WAT      O60205   1.276   9.032   2.382
19988WAT     H160206   1.341   8.988   2.320
19988WAT     H260207   1.302   9.127   2.396
19989WAT      O60208   1.770   5.628   7.076
19989WAT     H160209   1.797   5.724   7.064
19989WAT     H260210   1.852   5.572   7.088
19990WAT      O60211   9.271   1.192   8.214
19990WAT     H160212   9.333   1.267   8.235
19990WAT     H260213   9.219   1.168   8.296
19991WAT      O60214   6.935   0.655   5.693
19991WAT     H160215   6.984   0.652   5.605
19991WAT     H260216   7.001   0.655   5.768
19992WAT      O60217   6.987   1.095   2.409
19992WAT     H160218   6.900   1.080   2.455
19992WAT     H260219   7.028   1.180   2.443
19993WAT      O60220   5.190   4.805   7.743
19993WAT     H160221   5.232   4.895   7.754
19993WAT     H260222   5.153   4.774   7.831
19994WAT      O60223   1.054   6.706   0.468
19994WAT     H160224   1.037   6.623   0.414
19994WAT     H260225   1.077   6.781   0.406
19995WAT      O60226   8.066   3.396   7.270
19995WAT     H160227   7.980   3.352   7.296
19995WAT     H260228   8.091   3.465   7.338
19996WAT      O60229   7.248   4.324   3.894
19996WAT     H160230   7.231   4.354   3.800
19996WAT     H260231   7.269   4.403   3.951
19997WAT      O60232   2.622   9.763   8.402
19997WAT     H160233   2.551   9.708   8.447
19997WAT     H260234   2.691   9.702   8.364
19998WAT      O60235   1.043   9.332   3.817
19998WAT     H160236   1.040   9.432   3.812
19998WAT     H260237   1.080   9.295   3.732
19999WAT      O60238   3.494   5.613   7.535
19999WAT     H160239   3.424   5.624   7.464
19999WAT     H260240   3.451   5.579   7.619
20000WAT      O60241   4.180   8.501   3.117
20000WAT     H160242   4.188   8.425   3.052
20000WAT     H260243   4.083   8.525   3.127
20001WAT      O60244   5.733   9.721   9.685
20001WAT     H160245   5.671   9.675   9.622
20001WAT     H260246   5.682   9.750   9.766
20002WAT      O60247   4.181   1.943   6.781
20002WAT     H160248   4.089   1.917   6.753
20002WAT     H260249   4.226   1.864   6.824
20003WAT      O60250   2.713   0.278   5.780
20003WAT     H160251   2.727   0.229   5.694
20003WAT     H260252   2.620   0.316   5.782
20004WAT      O60253   1.487   9.563   5.100
20004WAT     H160254   1.545   9.644   5.089
20004WAT     H260255   1.472   9.546   5.197
20005WAT      O60256   5.671   3.613   0.932
20005WAT     H160257   5.712   3.704   0.939
20005WAT     H260258   5.680   3.566   1.020
20006WAT      O60259   4.053   0.011   7.621
20006WAT     H160260   4.120   0.055   7.681
20006WAT     H260261   3.961   0.026   7.656
20007WAT      O60262   3.427   8.128   0.029
20007WAT     H160263   3.340   8.163  -0.006
20007WAT     H260264   3.424   8.028   0.031
20008WAT      O60265   9.751   6.957   6.439
20008WAT     H160266   9.781   6.984   6.531
20008WAT     H260267   9.671   7.011   6.413
20009WAT      O60268   2.253   3.156   3.716
20009WAT     H160269   2.176   3.113   3.763
20009WAT     H260270   2.231   3.165   3.618
20010WAT      O60271   0.886   8.279   1.101
20010WAT     H160272   0.920   8.257   1.193
20010WAT     H260273   0.787   8.289   1.103
20011WAT      O60274   6.144   5.686   0.247
20011WAT     H160275   6.106   5.594   0.243
20011WAT     H260276   6.145   5.718   0.342
20012WAT      O60277   6.859   9.529   2.407
20012WAT     H160278   6.925   9.504   2.477
20012WAT     H260279   6.908   9.564   2.327
20013WAT      O60280   1.830   2.988   2.061
20013WAT     H160281   1.769   2.984   1.982
20013WAT     H260282   1.923   2.968   2.032
20014WAT      O60283   3.501   2.392   0.534
20014WAT     H160284   3.574   2.405   0.467
20014WAT     H260285   3.531   2.425   0.623
20015WAT      O60286   4.807   1.813   9.392
20015WAT     H160287   4.871   1.818   9.316
20015WAT     H260288   4.743   1.890   9.388
20016WAT      O60289   5.952   7.358   4.890
20016WAT     H160290   5.899   7.274   4.875
20016WAT     H260291   5.982   7.394   4.802
20017WAT      O60292   8.810   2.359   6.929
20017WAT     H160293   8.810   2.455   6.901
20017WAT     H260294   8.737   2.343   6.996
20018WAT      O60295   1.082   6.592   8.593
20018WAT     H160296   1.125   6.573   8.681
20018WAT     H260297   1.093   6.513   8.533
20019WAT      O60298   2.434   2.287   1.755
20019WAT     H160299   2.406   2.353   1.685
20019WAT     H260300   2.528   2.305   1.783
20020WAT      O60301   6.280   4.496   4.834
20020WAT     H160302   6.280   4.502   4.934
20020WAT     H260303   6.297   4.587   4.796
20021WAT      O60304   5.599   9.785   0.065
20021WAT     H160305   5.633   9.870   0.105
20021WAT     H260306   5.500   9.792   0.051
20022WAT      O60307   4.595   0.544   1.240
20022WAT     H160308   4.583   0.641   1.215
20022WAT     H260309   4.520   0.491   1.200
20023WAT      O60310   4.210   1.085   4.153
20023WAT     H160311   4.136   1.152   4.156
20023WAT     H260312   4.276   1.111   4.083
20024WAT      O60313   7.397   6.419   6.879
20024WAT     H160314   7.440   6.490   6.823
20024WAT     H260315   7.464   6.382   6.944
20025WAT      O60316   7.809   5.861   4.060
20025WAT     H160317   7.757   5.867   4.145
20025WAT     H260318   7.764   5.917   3.990
20026WAT      O60319   7.850   2.819   0.135
20026WAT     H160320   7.941   2.780   0.123
20026WAT     H260321   7.852   2.889   0.205
20027WAT      O60322   4.962   7.877   4.394
20027WAT     H160323   4.893   7.807   4.411
20027WAT     H260324   4.920   7.954   4.346
20028WAT      O60325   7.346   9.469   9.176
20028WAT     H160326   7.444   9.453   9.177
20028WAT     H260327   7.326   9.548   9.118
20029WAT      O60328   7.429   7.807   6.032
20029WAT     H160329   7.473   7.798   6.121
20029WAT     H260330   7.384   7.896   6.025
20030WAT      O60331   6.868   4.912   3.430
20030WAT     H160332   6.769   4.927   3.430
20030WAT     H260333   6.888   4.817   3.406
20031WAT      O60334   5.467   0.159   8.232
20031WAT     H160335   5.425   0.086   8.179
20031WAT     H260336   5.411   0.179   8.313
20032WAT      O60337   7.697   1.321   2.236
20032WAT     H160338   7.746   1.331   2.149
20032WAT     H260339   7.763   1.314   2.311
20033WAT      O60340   0.769   9.297   9.155
20033WAT     H160341   0.846   9.308   9.218
20033WAT     H260342   0.741   9.387   9.121
20034WAT      O60343   3.001   8.791   6.899
20034WAT     H160344   3.000   8.694   6.924
20034WAT     H260345   3.081   8.835   6.940
20035WAT      O60346   0.412   9.354   4.570
20035WAT     H160347   0.467   9.396   4.642
20035WAT     H260348   0.333   9.309   4.611
20036WAT      O60349   9.123   6.900   3.858
20036WAT     H160350   9.213   6.884   3.899
20036WAT     H260351   9.103   6.827   3.793
20037WAT      O60352   1.917   7.260   1.452
20037WAT     H160353   1.874   7.292   1.367
20037WAT     H260354   1.848   7.252   1.524
20038WAT      O60355   4.388   6.166   7.570
20038WAT     H160356   4.453   6.106   7.524
20038WAT     H260357   4.304   6.172   7.517
20039WAT      O60358   0.963   8.126   7.740
20039WAT     H160359   0.977   8.219   7.774
20039WAT     H260360   0.945   8.129   7.642
20040WAT      O60361   1.717   8.310   7.328
20040WAT     H160362   1.694   8.406   7.310
20040WAT     H260363   1.706   8.291   7.426
20041WAT      O60364   7.603   2.021   4.645
20041WAT     H160365   7.669   2.078   4.597
20041WAT     H260366   7.651   1.944   4.687
20042WAT      O60367   2.638   2.219   4.812
20042WAT     H160368   2.621   2.315   4.790
20042WAT     H260369   2.551   2.170   4.815
20043WAT      O60370   7.452   6.891   8.860
20043WAT     H160371   7.486   6.984   8.871
20043WAT     H260372   7.380   6.874   8.927
20044WAT      O60373   1.261   3.490   7.490
20044WAT     H160374   1.330   3.527   7.428
20044WAT     H260375   1.217   3.565   7.540
20045WAT      O60376   4.795   3.191   3.557
20045WAT     H160377   4.853   3.111   3.575
20045WAT     H260378   4.759   3.186   3.464
20046WAT      O60379   9.731   7.846   8.492
20046WAT     H160380   9.764   7.767   8.544
20046WAT     H260381   9.643   7.877   8.529
20047WAT      O60382   1.526   4.904   5.536
20047WAT     H160383   1.445   4.945   5.496
20047WAT     H260384   1.580   4.974   5.583
20048WAT      O60385   0.805   4.403   8.118
20048WAT     H160386   0.889   4.416   8.066
20048WAT     H260387   0.767   4.492   8.144
20049WAT      O60388   6.224   2.101   5.468
20049WAT     H160389   6.227   2.068   5.374
20049WAT     H260390   6.285   2.045   5.524
20050WAT      O60391   7.887   6.371   4.385
20050WAT     H160392   7.815   6.310   4.416
20050WAT     H260393   7.847   6.459   4.358
20051WAT      O60394   3.173   3.810   4.759
20051WAT     H160395   3.106   3.880   4.734
20051WAT     H260396   3.200   3.821   4.854
20052WAT      O60397   5.237   8.451   3.009
20052WAT     H160398   5.258   8.504   3.091
20052WAT     H260399   5.250   8.354   3.028
20053WAT      O60400   0.753   8.597   6.296
20053WAT     H160401   0.803   8.563   6.375
20053WAT     H260402   0.656   8.575   6.306
20054WAT      O60403   9.357   2.186   0.452
20054WAT     H160404   9.342   2.087   0.439
20054WAT     H260405   9.426   2.200   0.523
20055WAT      O60406   6.579   4.542   7.412
20055WAT     H160407   6.627   4.591   7.486
20055WAT     H260408   6.643   4.478   7.369
20056WAT      O60409   4.995   6.365   6.429
20056WAT     H160410   4.931   6.372   6.505
20056WAT     H260411   4.968   6.290   6.369
20057WAT      O60412   5.158   2.244   7.292
20057WAT     H160413   5.126   2.149   7.295
20057WAT     H260414   5.239   2.253   7.350
20058WAT      O60415   1.806   4.783   4.177
20058WAT     H160416   1.781   4.821   4.088
20058WAT     H260417   1.724   4.752   4.225
20059WAT      O60418   0.158   8.763   5.687
20059WAT     H160419   0.250   8.770   5.648
20059WAT     H260420   0.106   8.845   5.664
20060WAT      O60421   7.912   2.738   1.080
20060WAT     H160422   8.000   2.695   1.060
20060WAT     H260423   7.855   2.738   0.999
20061WAT      O60424   3.845   0.071   9.069
20061WAT     H160425   3.815   0.152   9.019
20061WAT     H260426   3.775   0.045   9.136
20062WAT      O60427   2.557   9.409   3.031
20062WAT     H160428   2.466   9.440   3.056
20062WAT     H260429   2.625   9.468   3.074
20063WAT      O60430   9.641   4.427   2.561
20063WAT     H160431   9.647   4.387   2.470
20063WAT     H260432   9.639   4.527   2.554
20064WAT      O60433   7.419   6.997   3.809
20064WAT     H160434   7.418   7.067   3.880
20064WAT     H260435   7.507   6.950   3.809
20065WAT      O60436   9.141   1.749   4.679
20065WAT     H160437   9.149   1.652   4.658
20065WAT     H260438   9.052   1.782   4.649
20066WAT      O60439   5.137   4.528   0.993
20066WAT     H160440   5.105   4.623   0.999
20066WAT     H260441   5.194   4.517   0.912
20067WAT      O60442   3.542   7.215   9.624
20067WAT     H160443   3.630   7.197   9.581
20067WAT     H260444   3.469   7.201   9.557
20068WAT      O60445   9.251   8.929   2.578
20068WAT     H160446   9.219   8.973   2.662
20068WAT     H260447   9.209   8.838   2.570
20069WAT      O60448   6.008   0.780   6.487
20069WAT     H160449   6.047   0.689   6.504
20069WAT     H260450   5.951   0.777   6.405
20070WAT      O60451   6.073   0.349   2.395
20070WAT     H160452   6.095   0.414   2.467
20070WAT     H260453   6.015   0.276   2.432
20071WAT      O60454   7.544   4.914   4.962
20071WAT     H160455   7.462   4.858   4.975
20071WAT     H260456   7.602   4.909   5.044
20072WAT      O60457   9.303   5.548   0.569
20072WAT     H160458   9.261   5.587   0.486
20072WAT     H260459   9.247   5.472   0.602
20073WAT      O60460   0.957   3.582   5.348
20073WAT     H160461   0.868   3.538   5.363
20073WAT     H260462   1.009   3.530   5.281
20074WAT      O60463   4.166   3.108   6.730
20074WAT     H160464   4.083   3.150   6.692
20074WAT     H260465   4.142   3.062   6.816
20075WAT      O60466   5.292   8.082   1.620
20075WAT     H160467   5.218   8.015   1.631
20075WAT     H260468   5.262   8.155   1.558
20076WAT      O60469   4.726   9.654   3.941
20076WAT     H160470   4.745   9.752   3.946
20076WAT     H260471   4.634   9.637   3.977
20077WAT      O60472   5.403   7.960   0.435
20077WAT     H160473   5.353   8.001   0.511
20077WAT     H260474   5.404   7.861   0.446
20078WAT      O60475   3.449   6.508   1.016
20078WAT     H160476   3.462   6.434   1.081
20078WAT     H260477   3.426   6.470   0.926
20079WAT      O60478   9.530   2.057   8.927
20079WAT     H160479   9.543   1.978   8.986
20079WAT     H260480   9.508   2.027   8.834
20080WAT      O60481   6.516   8.912   6.577
20080WAT     H160482   6.513   8.866   6.489
20080WAT     H260483   6.464   8.859   6.644
20081WAT      O60484   6.517   4.156   5.353
20081WAT     H160485   6.480   4.164   5.446
20081WAT     H260486   6.616   4.145   5.357
20082WAT      O60487   3.402   0.112   2.069
20082WAT     H160488   3.478   0.175   2.052
20082WAT     H260489   3.356   0.091   1.983
20083WAT      O60490   4.033   7.516   1.143
20083WAT     H160491   3.964   7.568   1.094
20083WAT     H260492   4.115   7.573   1.156
20084WAT      O60493   2.497   9.463   3.427
20084WAT     H160494   2.428   9.424   3.367
20084WAT     H260495   2.498   9.412   3.514
20085WAT      O60496   7.853   8.123   4.638
20085WAT     H160497   7.793   8.078   4.572
20085WAT     H260498   7.893   8.054   4.698
20086WAT      O60499   0.341   1.742   3.193
20086WAT     H160500   0.282   1.704   3.122
20086WAT     H260501   0.327   1.840   3.199
20087WAT      O60502   6.753   7.298   4.344
20087WAT     H160503   6.658   7.313   4.373
20087WAT     H260504   6.754   7.244   4.259
20088WAT      O60505   5.395   6.232   2.281
20088WAT     H160506   5.312   6.176   2.279
20088WAT     H260507   5.470   6.184   2.236
20089WAT      O60508   0.188   8.910   6.550
20089WAT     H160509   0.233   8.996   6.527
20089WAT     H260510   0.212   8.841   6.482
20090WAT      O60511   5.352   5.043   7.054
20090WAT     H160512   5.380   5.015   6.963
20090WAT     H260513   5.405   4.993   7.122
20091WAT      O60514   6.908   8.156   0.418
20091WAT     H160515   6.978   8.178   0.486
20091WAT     H260516   6.929   8.068   0.376
20092WAT      O60517   3.114   4.449   2.681
20092WAT     H160518   3.129   4.530   2.624
20092WAT     H260519   3.016   4.437   2.696
20093WAT      O60520   9.620   5.083   8.980
20093WAT     H160521   9.568   5.153   9.029
20093WAT     H260522   9.611   4.996   9.028
20094WAT      O60523   8.660   8.050   6.713
20094WAT     H160524   8.594   7.992   6.666
20094WAT     H260525   8.657   8.030   6.811
20095WAT      O60526   0.808   4.569   3.355
20095WAT     H160527   0.817   4.665   3.331
20095WAT     H260528   0.872   4.546   3.428
20096WAT      O60529   8.961   1.125   4.741
20096WAT     H160530   8.896   1.171   4.801
20096WAT     H260531   9.054   1.138   4.776
20097WAT      O60532   3.453   9.587   0.263
20097WAT     H160533   3.424   9.658   0.327
20097WAT     H260534   3.376   9.527   0.243
20098WAT      O60535   3.479   1.751   4.360
20098WAT     H160536   3.469   1.842   4.318
20098WAT     H260537   3.404   1.736   4.424
20099WAT      O60538   5.815   9.802   6.618
20099WAT     H160539   5.912   9.827   6.616
20099WAT     H260540   5.790   9.758   6.533
20100WAT      O60541   1.509   3.128   6.439
20100WAT     H160542   1.596   3.088   6.470
20100WAT     H260543   1.451   3.055   6.403
20101WAT      O60544   7.519   1.207   6.994
20101WAT     H160545   7.510   1.234   6.898
20101WAT     H260546   7.517   1.107   7.001
20102WAT      O60547   6.964   3.138   4.560
20102WAT     H160548   6.937   3.103   4.650
20102WAT     H260549   7.015   3.067   4.511
20103WAT      O60550   1.645   2.295   1.449
20103WAT     H160551   1.702   2.300   1.367
20103WAT     H260552   1.636   2.199   1.477
20104WAT      O60553   4.573   5.010   7.506
20104WAT     H160554   4.536   4.925   7.468
20104WAT     H260555   4.567   5.082   7.437
20105WAT      O60556   2.350   4.855   3.638
20105WAT     H160557   2.332   4.757   3.650
20105WAT     H260558   2.442   4.877   3.670
20106WAT      O60559   8.933   5.800   3.331
20106WAT     H160560   8.952   5.870   3.262
20106WAT     H260561   9.003   5.728   3.325
20107WAT      O60562   6.973   3.765   6.568
20107WAT     H160563   7.025   3.837   6.524
20107WAT     H260564   6.886   3.753   6.521
20108WAT      O60565   1.207   4.237   7.511
20108WAT     H160566   1.206   4.137   7.517
20108WAT     H260567   1.218   4.264   7.415
20109WAT      O60568   5.970   1.031   7.714
20109WAT     H160569   6.019   1.099   7.660
20109WAT     H260570   6.020   0.944   7.712
20110WAT      O60571   1.384   0.738   4.571
20110WAT     H160572   1.403   0.831   4.603
20110WAT     H260573   1.315   0.741   4.498
20111WAT      O60574   7.580   3.264   3.785
20111WAT     H160575   7.630   3.247   3.700
20111WAT     H260576   7.518   3.188   3.803
20112WAT      O60577   7.877   1.487   2.796
20112WAT     H160578   7.907   1.515   2.705
20112WAT     H260579   7.780   1.506   2.807
20113WAT      O60580   7.809   5.912   5.252
20113WAT     H160581   7.816   5.992   5.312
20113WAT     H260582   7.858   5.931   5.167
20114WAT      O60583   6.229   6.842   1.628
20114WAT     H160584   6.192   6.933   1.649
20114WAT     H260585   6.194   6.776   1.694
20115WAT      O60586   2.436   4.974   6.403
20115WAT     H160587   2.487   5.060   6.405
20115WAT     H260588   2.494   4.901   6.366
20116WAT      O60589   6.825   6.413   2.306
20116WAT     H160590   6.779   6.491   2.265
20116WAT     H260591   6.847   6.346   2.234
20117WAT      O60592   6.414   8.730   8.891
20117WAT     H160593   6.420   8.634   8.865
20117WAT     H260594   6.395   8.736   8.989
20118WAT      O60595   9.655   0.427   2.305
20118WAT     H160596   9.653   0.442   2.206
20118WAT     H260597   9.652   0.329   2.324
20119WAT      O60598   8.982   7.843   7.763
20119WAT     H160599   9.077   7.818   7.781
20119WAT     H260600   8.926   7.760   7.756
20120WAT      O60601   4.291   9.025   4.114
20120WAT     H160602   4.358   9.035   4.041
20120WAT     H260603   4.294   8.932   4.150
20121WAT      O60604   9.778   7.589   1.022
20121WAT     H160605   9.773   7.497   1.060
20121WAT     H260606   9.686   7.624   1.006
20122WAT      O60607   9.798   1.729   1.435
20122WAT     H160608   9.707   1.689   1.420
20122WAT     H260609   9.818   1.795   1.363
20123WAT      O60610   5.647   5.659   0.088
20123WAT     H160611   5.684   5.659   0.181
20123WAT     H260612   5.591   5.741   0.075
20124WAT      O60613   7.859   1.254   8.242
20124WAT     H160614   7.830   1.322   8.310
20124WAT     H260615   7.959   1.249   8.241
20125WAT      O60616   1.547   7.518   4.760
20125WAT     H160617   1.645   7.501   4.762
20125WAT     H260618   1.506   7.488   4.846
20126WAT      O60619   5.914   6.117   9.848
20126WAT     H160620   5.876   6.024   9.841
20126WAT     H260621   6.005   6.119   9.806
20127WAT      O60622   5.154   6.941   4.177
20127WAT     H160623   5.079   6.881   4.203
20127WAT     H260624   5.241   6.893   4.188
20128WAT      O60625   2.559   5.703   7.160
20128WAT     H160626   2.542   5.764   7.238
20128WAT     H260627   2.648   5.725   7.120
20129WAT      O60628   6.080   7.566   1.989
20129WAT     H160629   6.002   7.616   2.025
20129WAT     H260630   6.051   7.473   1.965
20130WAT      O60631   5.394   3.803   1.984
20130WAT     H160632   5.384   3.728   1.919
20130WAT     H260633   5.388   3.890   1.935
20131WAT      O60634   2.909   1.644   4.905
20131WAT     H160635   2.924   1.729   4.856
20131WAT     H260636   2.888   1.571   4.840
20132WAT      O60637   6.003   8.329   9.320
20132WAT     H160638   6.071   8.389   9.278
20132WAT     H260639   6.047   8.244   9.350
20133WAT      O60640   0.632   3.516   9.605
20133WAT     H160641   0.722   3.473   9.603
20133WAT     H260642   0.574   3.471   9.673
20134WAT      O60643   8.514   3.529   2.724
20134WAT     H160644   8.589   3.554   2.663
20134WAT     H260645   8.548   3.474   2.799
20135WAT      O60646   5.836   3.753   7.449
20135WAT     H160647   5.791   3.812   7.382
20135WAT     H260648   5.816   3.785   7.542
20136WAT      O60649   2.393   3.477   5.755
20136WAT     H160650   2.299   3.509   5.742
20136WAT     H260651   2.429   3.515   5.840
20137WAT      O60652   2.525   1.307   8.312
20137WAT     H160653   2.542   1.302   8.214
20137WAT     H260654   2.516   1.403   8.340
20138WAT      O60655   3.163   5.600   2.002
20138WAT     H160656   3.249   5.554   1.977
20138WAT     H260657   3.095   5.531   2.026
20139WAT      O60658   2.742   0.582   4.055
20139WAT     H160659   2.663   0.629   4.094
20139WAT     H260660   2.728   0.483   4.060
20140WAT      O60661   3.350   6.936   4.316
20140WAT     H160662   3.345   6.855   4.258
20140WAT     H260663   3.290   7.007   4.280
20141WAT      O60664   3.479   6.892   9.066
20141WAT     H160665   3.551   6.955   9.097
20141WAT     H260666   3.431   6.932   8.989
20142WAT      O60667   7.769   8.315   0.846
20142WAT     H160668   7.786   8.218   0.831
20142WAT     H260669   7.841   8.368   0.802
20143WAT      O60670   9.493   8.715   7.051
20143WAT     H160671   9.411   8.713   7.109
20143WAT     H260672   9.471   8.679   6.961
20144WAT      O60673   1.876   5.772   8.089
20144WAT     H160674   1.870   5.735   7.996
20144WAT     H260675   1.910   5.866   8.085
20145WAT      O60676   7.883   7.700   6.815
20145WAT     H160677   7.944   7.642   6.869
20145WAT     H260678   7.797   7.713   6.864
20146WAT      O60679   9.142   8.409   8.977
20146WAT     H160680   9.196   8.328   8.999
20146WAT     H260681   9.175   8.448   8.891
20147WAT      O60682   8.715   5.921   7.255
20147WAT     H160683   8.730   5.949   7.160
20147WAT     H260684   8.756   5.831   7.270
20148WAT      O60685   4.857   7.975   0.450
20148WAT     H160686   4.881   8.069   0.425
20148WAT     H260687   4.787   7.976   0.521
20149WAT      O60688   7.526   5.403   0.161
20149WAT     H160689   7.458   5.452   0.216
20149WAT     H260690   7.513   5.304   0.173
20150WAT      O60691   6.512   6.081   6.947
20150WAT     H160692   6.422   6.059   6.983
20150WAT     H260693   6.506   6.093   6.848
20151WAT      O60694   0.684   6.857   3.509
20151WAT     H160695   0.733   6.832   3.593
20151WAT     H260696   0.676   6.776   3.451
20152WAT      O60697   8.171   1.033   9.805
20152WAT     H160698   8.163   0.935   9.787
20152WAT     H260699   8.236   1.048   9.880
20153WAT      O60700   5.840   2.532   0.046
20153WAT     H160701   5.767   2.598   0.027
20153WAT     H260702   5.860   2.531   0.144
20154WAT      O60703   4.588   0.059   6.072
20154WAT     H160704   4.666   0.066   6.135
20154WAT     H260705   4.580   0.144   6.021
20155WAT      O60706   5.161   1.042   7.300
20155WAT     H160707   5.079   1.099   7.303
20155WAT     H260708   5.225   1.078   7.232
20156WAT      O60709   2.294   5.456   9.665
20156WAT     H160710   2.235   5.447   9.585
20156WAT     H260711   2.370   5.391   9.657
20157WAT      O60712   3.810   1.246   6.188
20157WAT     H160713   3.772   1.154   6.198
20157WAT     H260714   3.807   1.272   6.092
20158WAT      O60715   0.360   6.629   7.107
20158WAT     H160716   0.332   6.632   7.203
20158WAT     H260717   0.404   6.715   7.083
20159WAT      O60718   3.951   5.282   2.327
20159WAT     H160719   3.920   5.366   2.282
20159WAT     H260720   3.905   5.273   2.415
20160WAT      O60721   6.902   8.812   8.803
20160WAT     H160722   6.929   8.908   8.797
20160WAT     H260723   6.808   8.801   8.773
20161WAT      O60724   2.550   7.197   2.875
20161WAT     H160725   2.527   7.102   2.896
20161WAT     H260726   2.647   7.205   2.856
20162WAT      O60727   6.595   3.137   4.867
20162WAT     H160728   6.521   3.175   4.923
20162WAT     H260729   6.558   3.071   4.802
20163WAT      O60730   0.846   5.746   9.794
20163WAT     H160731   0.919   5.764   9.727
20163WAT     H260732   0.818   5.832   9.837
20164WAT      O60733   8.532   1.701   8.810
20164WAT     H160734   8.483   1.785   8.786
20164WAT     H260735   8.479   1.651   8.879
20165WAT      O60736   9.503   7.108   9.186
20165WAT     H160737   9.500   7.073   9.093
20165WAT     H260738   9.595   7.100   9.223
20166WAT      O60739   7.694   7.312   0.080
20166WAT     H160740   7.609   7.260   0.082
20166WAT     H260741   7.752   7.280   0.004
20167WAT      O60742   2.626   5.382   0.212
20167WAT     H160743   2.529   5.391   0.192
20167WAT     H260744   2.642   5.397   0.309
20168WAT      O60745   8.920   2.468   0.667
20168WAT     H160746   8.877   2.503   0.583
20168WAT     H260747   9.002   2.416   0.643
20169WAT      O60748   5.462   5.618   8.795
20169WAT     H160749   5.520   5.596   8.717
20169WAT     H260750   5.376   5.566   8.789
20170WAT      O60751   1.282   1.203   6.204
20170WAT     H160752   1.260   1.199   6.302
20170WAT     H260753   1.225   1.137   6.154
20171WAT      O60754   7.375   3.063   8.985
20171WAT     H160755   7.406   3.158   8.982
20171WAT     H260756   7.371   3.032   9.080
20172WAT      O60757   0.205   6.669   7.587
20172WAT     H160758   0.130   6.630   7.639
20172WAT     H260759   0.191   6.650   7.489
20173WAT      O60760   4.698   5.404   9.701
20173WAT     H160761   4.622   5.433   9.643
20173WAT     H260762   4.665   5.390   9.794
20174WAT      O60763   5.460   5.366   5.680
20174WAT     H160764   5.444   5.399   5.587
20174WAT     H260765   5.401   5.414   5.744
20175WAT      O60766   1.878   3.207   3.558
20175WAT     H160767   1.837   3.296   3.575
20175WAT     H260768   1.822   3.136   3.601
20176WAT      O60769   7.410   3.093   1.973
20176WAT     H160770   7.429   3.039   1.891
20176WAT     H260771   7.420   3.190   1.951
20177WAT      O60772   0.285   4.555   8.554
20177WAT     H160773   0.213   4.600   8.502
20177WAT     H260774   0.308   4.468   8.512
20178WAT      O60775   2.512   4.136   1.642
20178WAT     H160776   2.558   4.049   1.630
20178WAT     H260777   2.577   4.211   1.631
20179WAT      O60778   7.004   8.626   7.266
20179WAT     H160779   7.009   8.715   7.311
20179WAT     H260780   7.096   8.587   7.259
20180WAT      O60781   0.315   4.117   1.190
20180WAT     H160782   0.394   4.172   1.218
20180WAT     H260783   0.343   4.022   1.178
20181WAT      O60784   6.660   9.663   6.276
20181WAT     H160785   6.663   9.602   6.355
20181WAT     H260786   6.744   9.716   6.270
20182WAT      O60787   5.838   1.007   0.029
20182WAT     H160788   5.937   1.007   0.041
20182WAT     H260789   5.799   1.089   0.072
20183WAT      O60790   0.840   2.413   1.119
20183WAT     H160791   0.908   2.487   1.112
20183WAT     H260792   0.879   2.329   1.081
20184WAT      O60793   0.795   8.587   1.852
20184WAT     H160794   0.771   8.526   1.776
20184WAT     H260795   0.725   8.580   1.923
20185WAT      O60796   9.318   2.185   1.190
20185WAT     H160797   9.300   2.212   1.096
20185WAT     H260798   9.335   2.087   1.194
20186WAT      O60799   8.604   5.083   5.737
20186WAT     H160800   8.658   5.004   5.764
20186WAT     H260801   8.665   5.156   5.707
20187WAT      O60802   8.031   7.138   5.558
20187WAT     H160803   8.017   7.057   5.615
20187WAT     H260804   8.021   7.113   5.462
20188WAT      O60805   1.097   8.829   4.022
20188WAT     H160806   1.008   8.864   4.049
20188WAT     H260807   1.161   8.839   4.098
20189WAT      O60808   1.731   6.780   3.863
20189WAT     H160809   1.747   6.701   3.804
20189WAT     H260810   1.720   6.749   3.958
20190WAT      O60811   7.027   4.973   9.780
20190WAT     H160812   7.075   4.930   9.856
20190WAT     H260813   6.977   4.903   9.729
20191WAT      O60814   7.129   3.576   3.336
20191WAT     H160815   7.082   3.654   3.293
20191WAT     H260816   7.188   3.532   3.269
20192WAT      O60817   9.088   3.850   5.739
20192WAT     H160818   9.177   3.811   5.761
20192WAT     H260819   9.058   3.818   5.649
20193WAT      O60820   0.190   1.889   8.825
20193WAT     H160821   0.166   1.802   8.782
20193WAT     H260822   0.168   1.964   8.762
20194WAT      O60823   2.264   8.976   6.369
20194WAT     H160824   2.302   8.884   6.374
20194WAT     H260825   2.307   9.033   6.439
20195WAT      O60826   7.776   2.682   9.386
20195WAT     H160827   7.876   2.682   9.392
20195WAT     H260828   7.747   2.754   9.323
20196WAT      O60829   3.045   9.608   5.175
20196WAT     H160830   3.044   9.684   5.111
20196WAT     H260831   2.955   9.601   5.218
20197WAT      O60832   6.805   6.928   3.676
20197WAT     H160833   6.808   6.853   3.741
20197WAT     H260834   6.886   6.985   3.687
20198WAT      O60835   6.890   7.943   5.248
20198WAT     H160836   6.875   7.937   5.149
20198WAT     H260837   6.983   7.977   5.265
20199WAT      O60838   0.629   9.789   2.244
20199WAT     H160839   0.706   9.768   2.304
20199WAT     H260840   0.548   9.742   2.276
20200WAT      O60841   5.063   6.689   5.291
20200WAT     H160842   5.055   6.746   5.373
20200WAT     H260843   5.038   6.595   5.313
20201WAT      O60844   3.239   9.711   3.422
20201WAT     H160845   3.324   9.702   3.370
20201WAT     H260846   3.196   9.799   3.400
20202WAT      O60847   8.080   0.802   7.954
20202WAT     H160848   8.139   0.723   7.939
20202WAT     H260849   7.984   0.772   7.958
20203WAT      O60850   6.163   9.629   1.327
20203WAT     H160851   6.157   9.721   1.366
20203WAT     H260852   6.254   9.616   1.286
20204WAT      O60853   0.682   0.102   7.505
20204WAT     H160854   0.657   0.103   7.602
20204WAT     H260855   0.759   0.039   7.491
20205WAT      O60856   4.637   1.147   5.273
20205WAT     H160857   4.666   1.238   5.244
20205WAT     H260858   4.682   1.078   5.217
20206WAT      O60859   7.867   2.265   6.640
20206WAT     H160860   7.959   2.234   6.617
20206WAT     H260861   7.800   2.202   6.602
20207WAT      O60862   9.859   7.357   3.861
20207WAT     H160863   9.878   7.452   3.837
20207WAT     H260864   9.869   7.345   3.960
20208WAT      O60865   3.108   7.488   1.558
20208WAT     H160866   3.119   7.581   1.592
20208WAT     H260867   3.190   7.462   1.506
20209WAT      O60868   8.588   2.397   9.650
20209WAT     H160869   8.649   2.345   9.589
20209WAT     H260870   8.602   2.367   9.744
20210WAT      O60871   0.013   8.047   1.337
20210WAT     H160872   0.026   8.006   1.247
20210WAT     H260873  -0.005   7.975   1.404
20211WAT      O60874   4.752   1.961   1.867
20211WAT     H160875   4.672   1.927   1.917
20211WAT     H260876   4.813   1.884   1.848
20212WAT      O60877   5.781   3.153   2.670
20212WAT     H160878   5.787   3.079   2.602
20212WAT     H260879   5.866   3.204   2.670
20213WAT      O60880   2.664   8.908   5.806
20213WAT     H160881   2.731   8.867   5.743
20213WAT     H260882   2.681   9.006   5.814
20214WAT      O60883   9.703   0.762   1.190
20214WAT     H160884   9.784   0.754   1.248
20214WAT     H260885   9.670   0.857   1.193
20215WAT      O60886   6.297   4.945   0.786
20215WAT     H160887   6.216   4.932   0.843
20215WAT     H260888   6.272   4.939   0.690
20216WAT      O60889   2.121   7.126   2.990
20216WAT     H160890   2.108   7.052   3.056
20216WAT     H260891   2.218   7.149   2.985
20217WAT      O60892   0.055   5.831   9.558
20217WAT     H160893  -0.017   5.900   9.556
20217WAT     H260894   0.064   5.795   9.651
20218WAT      O60895   3.665   2.185   0.116
20218WAT     H160896   3.609   2.118   0.163
20218WAT     H260897   3.669   2.162   0.018
20219WAT      O60898   5.402   6.031   3.418
20219WAT     H160899   5.426   6.023   3.514
20219WAT     H260900   5.448   5.959   3.366
20220WAT      O60901   2.304   7.240   0.568
20220WAT     H160902   2.242   7.194   0.630
20220WAT     H260903   2.268   7.234   0.474
20221WAT      O60904   3.818   9.706   6.896
20221WAT     H160905   3.807   9.805   6.906
20221WAT     H260906   3.779   9.677   6.809
20222WAT      O60907   5.523   7.289   6.042
20222WAT     H160908   5.550   7.375   5.999
20222WAT     H260909   5.523   7.216   5.974
20223WAT      O60910   8.001   2.102   9.067
20223WAT     H160911   7.971   2.181   9.120
20223WAT     H260912   7.922   2.055   9.028
20224WAT      O60913   9.291   7.302   2.683
20224WAT     H160914   9.346   7.220   2.664
20224WAT     H260915   9.245   7.331   2.599
20225WAT      O60916   6.198   3.680   8.398
20225WAT     H160917   6.271   3.733   8.353
20225WAT     H260918   6.126   3.742   8.429
20226WAT      O60919   2.634   0.482   8.858
20226WAT     H160920   2.578   0.520   8.784
20226WAT     H260921   2.698   0.415   8.821
20227WAT      O60922   7.892   2.637   0.376
20227WAT     H160923   7.799   2.673   0.381
20227WAT     H260924   7.924   2.617   0.469
20228WAT      O60925   1.265   5.018   7.488
20228WAT     H160926   1.291   4.923   7.509
20228WAT     H260927   1.196   5.049   7.553
20229WAT      O60928   4.323   0.931   9.839
20229WAT     H160929   4.378   0.983   9.774
20229WAT     H260930   4.295   0.991   9.914
20230WAT      O60931   3.482   4.346   0.340
20230WAT     H160932   3.546   4.314   0.270
20230WAT     H260933   3.425   4.418   0.302
20231WAT      O60934   3.764   0.451   3.178
20231WAT     H160935   3.706   0.470   3.098
20231WAT     H260936   3.779   0.353   3.185
20232WAT      O60937   7.449   2.376   8.564
20232WAT     H160938   7.512   2.392   8.640
20232WAT     H260939   7.355   2.376   8.599
20233WAT      O60940   9.781   6.809   0.022
20233WAT     H160941   9.803   6.730  -0.035
20233WAT     H260942   9.742   6.881  -0.035
20234WAT      O60943   7.172   2.287   2.223
20234WAT     H160944   7.146   2.374   2.181
20234WAT     H260945   7.169   2.297   2.323
20235WAT      O60946   7.685   3.661   5.128
20235WAT     H160947   7.775   3.617   5.126
20235WAT     H260948   7.695   3.754   5.164
20236WAT      O60949   9.237   9.151   9.317
20236WAT     H160950   9.289   9.200   9.387
20236WAT     H260951   9.213   9.060   9.351
20237WAT      O60952   1.560   8.041   1.625
20237WAT     H160953   1.541   7.950   1.660
20237WAT     H260954   1.480   8.074   1.574
20238WAT      O60955   7.183   0.296   9.617
20238WAT     H160956   7.088   0.272   9.598
20238WAT     H260957   7.235   0.298   9.531
20239WAT      O60958   7.668   6.288   8.424
20239WAT     H160959   7.684   6.321   8.331
20239WAT     H260960   7.747   6.237   8.455
20240WAT      O60961   1.575   9.273   8.780
20240WAT     H160962   1.508   9.345   8.797
20240WAT     H260963   1.584   9.216   8.861
20241WAT      O60964   3.837   9.610   4.618
20241WAT     H160965   3.748   9.625   4.659
20241WAT     H260966   3.825   9.568   4.527
20242WAT      O60967   0.279   8.620   8.951
20242WAT     H160968   0.227   8.550   9.000
20242WAT     H260969   0.253   8.619   8.855
20243WAT      O60970   5.915   0.089   4.231
20243WAT     H160971   5.896   0.093   4.133
20243WAT     H260972   5.953  -0.000   4.254
20244WAT      O60973   6.321   7.625   7.487
20244WAT     H160974   6.307   7.710   7.538
20244WAT     H260975   6.337   7.646   7.390
20245WAT      O60976   2.369   8.437   1.039
20245WAT     H160977   2.413   8.351   1.064
20245WAT     H260978   2.270   8.425   1.033
20246WAT      O60979   4.298   3.904   2.564
20246WAT     H160980   4.263   3.860   2.646
20246WAT     H260981   4.279   3.845   2.485
20247WAT      O60982   6.652   2.028   1.800
20247WAT     H160983   6.580   2.095   1.823
20247WAT     H260984   6.742   2.070   1.815
20248WAT      O60985   1.838   4.736   9.207
20248WAT     H160986   1.810   4.826   9.240
20248WAT     H260987   1.908   4.746   9.136
20249WAT      O60988   6.031   1.376   5.316
20249WAT     H160989   5.983   1.460   5.340
20249WAT     H260990   5.996   1.300   5.371
20250WAT      O60991   3.868   7.221   8.181
20250WAT     H160992   3.860   7.282   8.261
20250WAT     H260993   3.886   7.275   8.099
20251WAT      O60994   1.923   9.430   3.834
20251WAT     H160995   2.010   9.479   3.830
20251WAT     H260996   1.923   9.357   3.766
20252WAT      O60997   1.503   9.059   2.912
20252WAT     H160998   1.501   8.970   2.866
20252WAT     H260999   1.590   9.105   2.894
20253WAT      O61000   5.587   9.790   2.701
20253WAT     H161001   5.588   9.884   2.734
20253WAT     H261002   5.494   9.753   2.705
20254WAT      O61003   8.916   1.495   8.407
20254WAT     H161004   8.850   1.544   8.350
20254WAT     H261005   8.924   1.540   8.496
20255WAT      O61006   0.911   4.167   7.163
20255WAT     H161007   0.901   4.197   7.068
20255WAT     H261008   0.821   4.143   7.200
20256WAT      O61009   2.887   2.006   3.670
20256WAT     H161010   2.871   1.968   3.579
20256WAT     H261011   2.807   1.988   3.727
20257WAT      O61012   0.464   6.133   5.175
20257WAT     H161013   0.492   6.191   5.099
20257WAT     H261014   0.486   6.178   5.262
20258WAT      O61015   7.345   5.137   5.089
20258WAT     H161016   7.410   5.195   5.139
20258WAT     H261017   7.252   5.173   5.101
20259WAT      O61018   2.625   3.301   9.301
20259WAT     H161019   2.643   3.269   9.208
20259WAT     H261020   2.704   3.282   9.359
20260WAT      O61021   1.944   4.252   1.623
20260WAT     H161022   1.853   4.212   1.619
20260WAT     H261023   1.976   4.253   1.718
20261WAT      O61024   0.721   9.688   6.232
20261WAT     H161025   0.811   9.649   6.213
20261WAT     H261026   0.731   9.784   6.258
20262WAT      O61027   9.299   7.480   1.074
20262WAT     H161028   9.351   7.458   1.156
20262WAT     H261029   9.361   7.509   1.001
20263WAT      O61030   4.680   9.066   6.691
20263WAT     H161031   4.709   9.159   6.715
20263WAT     H261032   4.760   9.006   6.689
20264WAT      O61033   7.727   1.535   1.219
20264WAT     H161034   7.747   1.497   1.129
20264WAT     H261035   7.666   1.614   1.210
20265WAT      O61036   4.047   4.670   9.078
20265WAT     H161037   4.041   4.571   9.075
20265WAT     H261038   4.135   4.700   9.042
20266WAT      O61039   1.809   8.035   9.837
20266WAT     H161040   1.874   8.018   9.912
20266WAT     H261041   1.849   8.102   9.774
20267WAT      O61042   6.934   5.728   5.025
20267WAT     H161043   6.936   5.827   5.034
20267WAT     H261044   6.850   5.700   4.978
20268WAT      O61045   1.509   5.555   0.376
20268WAT     H161046   1.458   5.572   0.291
20268WAT     H261047   1.454   5.581   0.454
20269WAT      O61048   6.399   6.117   6.441
20269WAT     H161049   6.325   6.050   6.443
20269WAT     H261050   6.473   6.084   6.382
20270WAT      O61051   3.163   9.034   3.342
20270WAT     H161052   3.205   8.945   3.364
20270WAT     H261053   3.216   9.079   3.270
20271WAT      O61054   5.098   8.586   4.919
20271WAT     H161055   5.089   8.575   5.018
20271WAT     H261056   5.194   8.576   4.893
20272WAT      O61057   5.973   3.571   5.548
20272WAT     H161058   5.987   3.536   5.641
20272WAT     H261059   6.019   3.659   5.538
20273WAT      O61060   9.477   5.698   7.933
20273WAT     H161061   9.458   5.771   7.868
20273WAT     H261062   9.423   5.617   7.908
20274WAT      O61063   5.739   3.915   7.274
20274WAT     H161064   5.828   3.923   7.230
20274WAT     H261065   5.667   3.906   7.205
20275WAT      O61066   3.044   4.667   7.721
20275WAT     H161067   2.952   4.681   7.685
20275WAT     H261068   3.104   4.741   7.690
20276WAT      O61069   9.877   5.032   8.881
20276WAT     H161070   9.787   5.074   8.890
20276WAT     H261071   9.867   4.936   8.857
20277WAT      O61072   3.298   5.432   4.397
20277WAT     H161073   3.283   5.530   4.410
20277WAT     H261074   3.219   5.382   4.432
20278WAT      O61075   1.549   0.182   3.179
20278WAT     H161076   1.553   0.143   3.087
20278WAT     H261077   1.576   0.279   3.175
20279WAT      O61078   3.480   1.293   4.431
20279WAT     H161079   3.453   1.360   4.500
20279WAT     H261080   3.554   1.236   4.467
20280WAT      O61081   5.252   3.423   0.924
20280WAT     H161082   5.273   3.409   1.021
20280WAT     H261083   5.159   3.393   0.905
20281WAT      O61084   4.136   0.321   1.813
20281WAT     H161085   4.173   0.312   1.721
20281WAT     H261086   4.152   0.236   1.864
20282WAT      O61087   5.312   1.224   7.949
20282WAT     H161088   5.394   1.280   7.936
20282WAT     H261089   5.243   1.251   7.881
20283WAT      O61090   8.613   2.770   7.729
20283WAT     H161091   8.612   2.676   7.763
20283WAT     H261092   8.684   2.822   7.776
20284WAT      O61093   5.004   8.963   8.965
20284WAT     H161094   5.021   9.061   8.955
20284WAT     H261095   4.980   8.943   9.060
20285WAT      O61096   9.060   7.216   5.367
20285WAT     H161097   9.003   7.174   5.295
20285WAT     H261098   9.005   7.230   5.449
20286WAT      O61099   6.156   8.283   9.614
20286WAT     H161100   6.060   8.305   9.600
20286WAT     H261101   6.211   8.366   9.605
20287WAT      O61102   4.488   2.705   0.242
20287WAT     H161103   4.500   2.790   0.191
20287WAT     H261104   4.514   2.720   0.337
20288WAT      O61105   4.361   7.648   6.105
20288WAT     H161106   4.276   7.649   6.051
20288WAT     H261107   4.339   7.660   6.202
20289WAT      O61108   1.005   9.562   6.878
20289WAT     H161109   1.085   9.608   6.916
20289WAT     H261110   1.024   9.465   6.868
20290WAT      O61111   2.467   9.095   0.511
20290WAT     H161112   2.554   9.078   0.557
20290WAT     H261113   2.425   9.177   0.550
20291WAT      O61114   8.527   8.922   9.286
20291WAT     H161115   8.552   8.969   9.370
20291WAT     H261116   8.533   8.986   9.209
20292WAT      O61117   1.827   6.150   5.622
20292WAT     H161118   1.760   6.210   5.665
20292WAT     H261119   1.884   6.107   5.693
20293WAT      O61120   7.994   3.836   3.120
20293WAT     H161121   8.042   3.919   3.092
20293WAT     H261122   7.897   3.856   3.130
20294WAT      O61123   2.012   9.062   6.423
20294WAT     H161124   2.105   9.036   6.400
20294WAT     H261125   1.949   9.028   6.354
20295WAT      O61126   9.099   7.092   2.530
20295WAT     H161127   9.056   7.075   2.441
20295WAT     H261128   9.196   7.108   2.517
20296WAT      O61129   0.439   2.477   8.447
20296WAT     H161130   0.364   2.461   8.383
20296WAT     H261131   0.449   2.575   8.463
20297WAT      O61132   5.819   2.335   1.287
20297WAT     H161133   5.911   2.365   1.316
20297WAT     H261134   5.805   2.240   1.315
20298WAT      O61135   5.955   2.092   4.189
20298WAT     H161136   6.029   2.156   4.170
20298WAT     H261137   5.868   2.132   4.159
20299WAT      O61138   7.052   2.812   6.762
20299WAT     H161139   7.133   2.782   6.711
20299WAT     H261140   7.081   2.854   6.848
20300WAT      O61141   4.124   6.615   8.398
20300WAT     H161142   4.110   6.692   8.460
20300WAT     H261143   4.208   6.566   8.424
20301WAT      O61144   8.370   8.158   4.623
20301WAT     H161145   8.413   8.097   4.689
20301WAT     H261146   8.359   8.249   4.663
20302WAT      O61147   0.322   1.046   2.850
20302WAT     H161148   0.274   1.055   2.763
20302WAT     H261149   0.378   1.127   2.867
20303WAT      O61150   0.376   8.871   9.030
20303WAT     H161151   0.369   8.775   9.005
20303WAT     H261152   0.459   8.910   8.990
20304WAT      O61153   8.762   1.993   6.038
20304WAT     H161154   8.726   2.077   5.997
20304WAT     H261155   8.862   2.000   6.045
20305WAT      O61156   2.688   5.513   2.432
20305WAT     H161157   2.771   5.545   2.478
20305WAT     H261158   2.667   5.420   2.461
20306WAT      O61159   0.276   0.657   6.115
20306WAT     H161160   0.309   0.586   6.177
20306WAT     H261161   0.195   0.625   6.068
20307WAT      O61162   2.677   2.360   1.808
20307WAT     H161163   2.740   2.436   1.823
20307WAT     H261164   2.728   2.279   1.778
20308WAT      O61165   4.958   6.520   0.521
20308WAT     H161166   4.967   6.465   0.437
20308WAT     H261167   4.879   6.489   0.573
20309WAT      O61168   5.793   7.879   9.803
20309WAT     H161169   5.716   7.831   9.760
20309WAT     H261170   5.759   7.942   9.872
20310WAT      O61171   6.806   8.359   1.132
20310WAT     H161172   6.883   8.422   1.123
20310WAT     H261173   6.839   8.265   1.135
20311WAT      O61174   7.414   9.438   3.268
20311WAT     H161175   7.377   9.513   3.213
20311WAT     H261176   7.513   9.446   3.274
20312WAT      O61177   0.562   8.703   0.828
20312WAT     H161178   0.646   8.702   0.883
20312WAT     H261179   0.583   8.673   0.735
20313WAT      O61180   4.494   7.278   8.714
20313WAT     H161181   4.520   7.370   8.682
20313WAT     H261182   4.395   7.274   8.726
20314WAT      O61183   0.222   8.928   5.245
20314WAT     H161184   0.169   8.982   5.181
20314WAT     H261185   0.251   8.986   5.322
20315WAT      O61186   3.555   6.463   5.554
20315WAT     H161187   3.511   6.540   5.601
20315WAT     H261188   3.646   6.489   5.524
20316WAT      O61189   2.197   1.086   4.025
20316WAT     H161190   2.252   1.112   3.946
20316WAT     H261191   2.241   1.119   4.109
20317WAT      O61192   6.113   6.782   9.449
20317WAT     H161193   6.046   6.752   9.517
20317WAT     H261194   6.205   6.778   9.488
20318WAT      O61195   2.346   6.821   3.370
20318WAT     H161196   2.338   6.892   3.441
20318WAT     H261197   2.339   6.731   3.412
20319WAT      O61198   0.617   4.024   9.373
20319WAT     H161199   0.581   4.007   9.281
20319WAT     H261200   0.716   4.037   9.368
20320WAT      O61201   7.842   4.285   8.093
20320WAT     H161202   7.743   4.287   8.100
20320WAT     H261203   7.871   4.349   8.021
20321WAT      O61204   4.371   2.304   2.125
20321WAT     H161205   4.292   2.291   2.066
20321WAT     H261206   4.428   2.221   2.124
20322WAT      O61207   8.452   6.641   6.919
20322WAT     H161208   8.544   6.677   6.931
20322WAT     H261209   8.419   6.665   6.828
20323WAT      O61210   2.130   0.224   9.522
20323WAT     H161211   2.086   0.156   9.464
20323WAT     H261212   2.199   0.179   9.579
20324WAT      O61213   8.273   4.331   0.763
20324WAT     H161214   8.260   4.299   0.857
20324WAT     H261215   8.366   4.309   0.733
20325WAT      O61216   2.160   9.796   9.174
20325WAT     H161217   2.252   9.833   9.171
20325WAT     H261218   2.163   9.697   9.163
20326WAT      O61219   8.411   8.270   7.111
20326WAT     H161220   8.496   8.234   7.073
20326WAT     H261221   8.347   8.289   7.037
20327WAT      O61222   4.872   8.787   3.734
20327WAT     H161223   4.909   8.811   3.824
20327WAT     H261224   4.843   8.692   3.734
20328WAT      O61225   6.852   0.450   0.411
20328WAT     H161226   6.759   0.476   0.385
20328WAT     H261227   6.879   0.500   0.493
20329WAT      O61228   3.286   3.398   6.162
20329WAT     H161229   3.252   3.304   6.158
20329WAT     H261230   3.377   3.402   6.120
20330WAT      O61231   7.915   0.447   5.232
20330WAT     H161232   7.886   0.410   5.143
20330WAT     H261233   8.005   0.488   5.223
20331WAT      O61234   7.609   3.935   7.250
20331WAT     H161235   7.591   3.920   7.347
20331WAT     H261236   7.546   4.003   7.214
20332WAT      O61237   8.140   1.393   5.915
20332WAT     H161238   8.061   1.342   5.949
20332WAT     H261239   8.175   1.453   5.987
20333WAT      O61240   4.374   9.232   5.812
20333WAT     H161241   4.448   9.169   5.836
20333WAT     H261242   4.295   9.180   5.779
20334WAT      O61243   0.747   7.389   8.546
20334WAT     H161244   0.699   7.452   8.484
20334WAT     H261245   0.782   7.441   8.624
20335WAT      O61246   7.876   8.989   7.559
20335WAT     H161247   7.791   9.038   7.577
20335WAT     H261248   7.939   9.001   7.636
20336WAT      O61249   2.274   1.666   8.860
20336WAT     H161250   2.311   1.578   8.890
20336WAT     H261251   2.214   1.702   8.931
20337WAT      O61252   8.884   7.937   8.462
20337WAT     H161253   8.925   7.913   8.374
20337WAT     H261254   8.810   8.002   8.448
20338WAT      O61255   1.235   3.800   3.989
20338WAT     H161256   1.157   3.796   4.052
20338WAT     H261257   1.231   3.722   3.926
20339WAT      O61258   3.872   3.433   6.713
20339WAT     H161259   3.885   3.360   6.780
20339WAT     H261260   3.922   3.514   6.741
20340WAT      O61261   7.922   3.389   2.336
20340WAT     H161262   7.931   3.460   2.267
20340WAT     H261263   8.007   3.336   2.340
20341WAT      O61264   2.312   2.544   7.492
20341WAT     H161265   2.322   2.637   7.527
20341WAT     H261266   2.216   2.526   7.471
20342WAT      O61267   5.140   9.779   7.799
20342WAT     H161268   5.062   9.841   7.799
20342WAT     H261269   5.111   9.689   7.833
20343WAT      O61270   9.308   8.452   8.536
20343WAT     H161271   9.396   8.443   8.490
20343WAT     H261272   9.322   8.490   8.627
20344WAT      O61273   9.250   6.977   6.793
20344WAT     H161274   9.166   7.004   6.841
20344WAT     H261275   9.247   6.879   6.773
20345WAT      O61276   9.794   1.728   4.217
20345WAT     H161277   9.738   1.768   4.290
20345WAT     H261278   9.736   1.706   4.139
20346WAT      O61279   1.405   4.980   4.647
20346WAT     H161280   1.367   5.066   4.679
20346WAT     H261281   1.451   4.994   4.559
20347WAT      O61282   1.458   8.955   1.245
20347WAT     H161283   1.512   9.019   1.190
20347WAT     H261284   1.477   8.861   1.216
20348WAT      O61285   0.110   5.742   6.964
20348WAT     H161286   0.172   5.688   7.022
20348WAT     H261287   0.136   5.838   6.968
20349WAT      O61288   8.190   6.865   6.151
20349WAT     H161289   8.101   6.829   6.121
20349WAT     H261290   8.191   6.964   6.138
20350WAT      O61291   2.471   2.444   3.454
20350WAT     H161292   2.406   2.389   3.507
20350WAT     H261293   2.495   2.397   3.370
20351WAT      O61294   8.611   7.563   4.557
20351WAT     H161295   8.638   7.497   4.628
20351WAT     H261296   8.512   7.571   4.555
20352WAT      O61297   5.986   5.344   8.080
20352WAT     H161298   6.025   5.436   8.077
20352WAT     H261299   6.040   5.287   8.142
20353WAT      O61300   2.624   4.677   1.068
20353WAT     H161301   2.695   4.697   1.001
20353WAT     H261302   2.560   4.611   1.029
20354WAT      O61303   6.714   3.689   6.454
20354WAT     H161304   6.734   3.596   6.423
20354WAT     H261305   6.615   3.703   6.453
20355WAT      O61306   8.553   7.695   9.042
20355WAT     H161307   8.463   7.717   9.004
20355WAT     H261308   8.579   7.603   9.014
20356WAT      O61309   4.100   2.597   7.885
20356WAT     H161310   4.093   2.583   7.984
20356WAT     H261311   4.193   2.629   7.863
20357WAT      O61312   6.899   7.159   8.919
20357WAT     H161313   6.900   7.101   9.000
20357WAT     H261314   6.860   7.109   8.841
20358WAT      O61315   0.061   5.924   8.133
20358WAT     H161316   0.106   6.012   8.144
20358WAT     H261317   0.105   5.873   8.059
20359WAT      O61318   8.578   1.725   9.832
20359WAT     H161319   8.603   1.791   9.903
20359WAT     H261320   8.520   1.769   9.764
20360WAT      O61321   3.729   3.585   2.284
20360WAT     H161322   3.688   3.647   2.216
20360WAT     H261323   3.727   3.628   2.374
20361WAT      O61324   1.186   9.578   3.999
20361WAT     H161325   1.279   9.574   3.963
20361WAT     H261326   1.121   9.565   3.924
20362WAT      O61327   4.911   1.813   8.290
20362WAT     H161328   4.912   1.749   8.367
20362WAT     H261329   4.987   1.877   8.298
20363WAT      O61330   0.140   0.239   3.873
20363WAT     H161331   0.205   0.186   3.818
20363WAT     H261332   0.163   0.230   3.970
20364WAT      O61333   8.920   4.701   3.431
20364WAT     H161334   9.019   4.701   3.421
20364WAT     H261335   8.895   4.652   3.515
20365WAT      O61336   3.143   0.451   4.296
20365WAT     H161337   3.101   0.476   4.208
20365WAT     H261338   3.223   0.509   4.312
20366WAT      O61339   6.077   1.037   6.948
20366WAT     H161340   6.073   0.959   6.885
20366WAT     H261341   6.004   1.029   7.016
20367WAT      O61342   8.423   5.165   5.148
20367WAT     H161343   8.463   5.200   5.233
20367WAT     H261344   8.476   5.197   5.070
20368WAT      O61345   5.678   1.936   2.406
20368WAT     H161346   5.687   1.888   2.494
20368WAT     H261347   5.720   1.881   2.334
20369WAT      O61348   5.155   7.573   8.797
20369WAT     H161349   5.108   7.546   8.713
20369WAT     H261350   5.147   7.500   8.865
20370WAT      O61351   6.563   0.148   5.603
20370WAT     H161352   6.660   0.159   5.626
20370WAT     H261353   6.513   0.230   5.632
20371WAT      O61354   0.052   2.147   3.716
20371WAT     H161355  -0.046   2.159   3.702
20371WAT     H261356   0.086   2.216   3.780
20372WAT      O61357   1.934   5.746   6.633
20372WAT     H161358   1.959   5.824   6.691
20372WAT     H261359   1.997   5.740   6.555
20373WAT      O61360   9.425   1.785   1.414
20373WAT     H161361   9.460   1.693   1.432
20373WAT     H261362   9.325   1.785   1.422
20374WAT      O61363   0.842   6.856   5.712
20374WAT     H161364   0.815   6.912   5.634
20374WAT     H261365   0.871   6.916   5.787
20375WAT      O61366   8.368   5.001   9.501
20375WAT     H161367   8.457   4.998   9.548
20375WAT     H261368   8.295   4.998   9.569
20376WAT      O61369   4.646   7.891   3.762
20376WAT     H161370   4.614   7.802   3.794
20376WAT     H261371   4.570   7.955   3.760
20377WAT      O61372   3.323   1.416   4.644
20377WAT     H161373   3.247   1.353   4.631
20377WAT     H261374   3.315   1.460   4.734
20378WAT      O61375   2.818   5.723   8.745
20378WAT     H161376   2.852   5.662   8.817
20378WAT     H261377   2.789   5.669   8.666
20379WAT      O61378   4.076   9.059   3.809
20379WAT     H161379   4.023   8.999   3.869
20379WAT     H261380   4.024   9.073   3.724
20380WAT      O61381   2.241   5.731   7.437
20380WAT     H161382   2.165   5.764   7.493
20380WAT     H261383   2.224   5.754   7.341
20381WAT      O61384   8.585   6.143   6.284
20381WAT     H161385   8.631   6.227   6.253
20381WAT     H261386   8.520   6.166   6.357
20382WAT      O61387   4.321   0.533   2.114
20382WAT     H161388   4.381   0.559   2.190
20382WAT     H261389   4.235   0.497   2.150
20383WAT      O61390   2.936   1.400   7.474
20383WAT     H161391   2.906   1.306   7.460
20383WAT     H261392   2.862   1.462   7.448
20384WAT      O61393   1.299   3.076   6.241
20384WAT     H161394   1.258   3.096   6.330
20384WAT     H261395   1.301   2.977   6.227
20385WAT      O61396   4.361   8.058   5.618
20385WAT     H161397   4.373   7.959   5.617
20385WAT     H261398   4.263   8.080   5.622
20386WAT      O61399   5.567   4.809   1.671
20386WAT     H161400   5.530   4.738   1.730
20386WAT     H261401   5.589   4.890   1.726
20387WAT      O61402   6.057   4.893   3.836
20387WAT     H161403   6.014   4.884   3.925
20387WAT     H261404   6.125   4.820   3.823
20388WAT      O61405   0.705   4.586   7.027
20388WAT     H161406   0.644   4.599   7.105
20388WAT     H261407   0.651   4.564   6.946
20389WAT      O61408   7.182   7.135   1.592
20389WAT     H161409   7.190   7.216   1.534
20389WAT     H261410   7.240   7.146   1.673
20390WAT      O61411   6.348   6.336   8.108
20390WAT     H161412   6.262   6.379   8.132
20390WAT     H261413   6.334   6.272   8.032
20391WAT      O61414   2.113   3.168   2.452
20391WAT     H161415   2.126   3.249   2.396
20391WAT     H261416   2.117   3.086   2.395
20392WAT      O61417   3.314   3.283   0.572
20392WAT     H161418   3.305   3.193   0.528
20392WAT     H261419   3.340   3.270   0.667
20393WAT      O61420   6.227   0.960   5.944
20393WAT     H161421   6.138   0.922   5.919
20393WAT     H261422   6.279   0.892   5.996
20394WAT      O61423   1.712   1.412   5.350
20394WAT     H161424   1.805   1.447   5.360
20394WAT     H261425   1.666   1.414   5.439
20395WAT      O61426   3.907   1.053   9.277
20395WAT     H161427   3.956   0.970   9.249
20395WAT     H261428   3.964   1.133   9.258
20396WAT      O61429   6.969   8.551   0.729
20396WAT     H161430   6.957   8.619   0.657
20396WAT     H261431   6.972   8.460   0.689
20397WAT      O61432   8.089   6.949   4.600
20397WAT     H161433   8.033   6.866   4.599
20397WAT     H261434   8.122   6.965   4.693
20398WAT      O61435   3.859   5.857   7.154
20398WAT     H161436   3.850   5.947   7.111
20398WAT     H261437   3.951   5.847   7.192
20399WAT      O61438   6.800   1.856   3.316
20399WAT     H161439   6.755   1.826   3.231
20399WAT     H261440   6.743   1.924   3.361
20400WAT      O61441   3.400   6.009   8.620
20400WAT     H161442   3.432   5.974   8.532
20400WAT     H261443   3.322   6.070   8.605
20401WAT      O61444   5.275   3.489   7.453
20401WAT     H161445   5.219   3.406   7.453
20401WAT     H261446   5.214   3.569   7.455
20402WAT      O61447   2.997   5.574   2.565
20402WAT     H161448   3.022   5.664   2.600
20402WAT     H261449   3.080   5.521   2.547
20403WAT      O61450   1.997   4.936   0.723
20403WAT     H161451   1.973   5.033   0.733
20403WAT     H261452   1.914   4.883   0.708
20404WAT      O61453   0.103   6.960   6.068
20404WAT     H161454   0.145   6.912   6.144
20404WAT     H261455   0.150   6.936   5.983
20405WAT      O61456   4.228   3.931   1.089
20405WAT     H161457   4.155   3.987   1.128
20405WAT     H261458   4.257   3.971   1.002
20406WAT      O61459   4.581   0.031   1.812
20406WAT     H161460   4.506  -0.006   1.759
20406WAT     H261461   4.663   0.038   1.754
20407WAT      O61462   1.336   0.729   0.527
20407WAT     H161463   1.256   0.789   0.527
20407WAT     H261464   1.312   0.643   0.482
20408WAT      O61465   8.819   0.445   2.794
20408WAT     H161466   8.828   0.512   2.719
20408WAT     H261467   8.794   0.493   2.878
20409WAT      O61468   3.051   8.907   1.020
20409WAT     H161469   3.061   8.820   0.972
20409WAT     H261470   2.968   8.953   0.988
20410WAT      O61471   1.843   5.771   6.348
20410WAT     H161472   1.809   5.860   6.319
20410WAT     H261473   1.943   5.774   6.356
20411WAT      O61474   1.588   1.253   1.093
20411WAT     H161475   1.564   1.186   1.023
20411WAT     H261476   1.681   1.237   1.125
20412WAT      O61477   7.008   3.586   3.662
20412WAT     H161478   6.964   3.504   3.695
20412WAT     H261479   6.941   3.660   3.656
20413WAT      O61480   9.244   1.271   6.027
20413WAT     H161481   9.340   1.298   6.018
20413WAT     H261482   9.222   1.203   5.957
20414WAT      O61483   8.897   4.229   8.152
20414WAT     H161484   8.865   4.238   8.246
20414WAT     H261485   8.953   4.308   8.127
20415WAT      O61486   5.321   4.682   3.084
20415WAT     H161487   5.356   4.742   3.156
20415WAT     H261488   5.223   4.665   3.099
20416WAT      O61489   8.724   8.488   3.248
20416WAT     H161490   8.673   8.402   3.259
20416WAT     H261491   8.669   8.563   3.284
20417WAT      O61492   4.937   0.071   3.301
20417WAT     H161493   4.850   0.064   3.350
20417WAT     H261494   4.962   0.168   3.291
20418WAT      O61495   8.013   4.385   8.344
20418WAT     H161496   8.015   4.415   8.249
20418WAT     H261497   8.063   4.451   8.401
20419WAT      O61498   0.784   0.091   6.331
20419WAT     H161499   0.823   0.128   6.247
20419WAT     H261500   0.857   0.068   6.395
20420WAT      O61501   8.542   1.372   2.537
20420WAT     H161502   8.584   1.456   2.503
20420WAT     H261503   8.468   1.344   2.475
20421WAT      O61504   1.356   3.377   6.170
20421WAT     H161505   1.447   3.367   6.210
20421WAT     H261506   1.291   3.320   6.220
20422WAT      O61507   1.092   8.493   4.312
20422WAT     H161508   1.009   8.514   4.261
20422WAT     H261509   1.139   8.417   4.267
20423WAT      O61510   7.663   9.073   8.258
20423WAT     H161511   7.739   9.058   8.195
20423WAT     H261512   7.577   9.074   8.207
20424WAT      O61513   0.399   4.908   3.689
20424WAT     H161514   0.459   4.943   3.617
20424WAT     H261515   0.313   4.877   3.649
20425WAT      O61516   4.564   8.933   8.796
20425WAT     H161517   4.537   8.866   8.865
20425WAT     H261518   4.664   8.935   8.789
20426WAT      O61519   0.559   5.916   8.449
20426WAT     H161520   0.536   5.911   8.546
20426WAT     H261521   0.551   6.010   8.417
20427WAT      O61522   9.669   4.908   3.965
20427WAT     H161523   9.679   5.006   3.947
20427WAT     H261524   9.572   4.884   3.965
20428WAT      O61525   6.058   9.553   4.766
20428WAT     H161526   6.013   9.625   4.818
20428WAT     H261527   6.156   9.573   4.761
20429WAT      O61528   5.561   6.520   0.530
20429WAT     H161529   5.647   6.478   0.501
20429WAT     H261530   5.581   6.599   0.588
20430WAT      O61531   6.283   9.425   5.431
20430WAT     H161532   6.185   9.441   5.435
20430WAT     H261533   6.326   9.464   5.512
20431WAT      O61534   0.709   6.266   8.199
20431WAT     H161535   0.679   6.227   8.112
20431WAT     H261536   0.798   6.228   8.225
20432WAT      O61537   2.013   4.561   3.049
20432WAT     H161538   1.945   4.635   3.049
20432WAT     H261539   2.052   4.553   3.141
20433WAT      O61540   0.232   8.133   8.120
20433WAT     H161541   0.272   8.160   8.208
20433WAT     H261542   0.263   8.195   8.048
20434WAT      O61543   5.313   1.393   6.611
20434WAT     H161544   5.374   1.440   6.674
20434WAT     H261545   5.278   1.310   6.654
20435WAT      O61546   9.862   4.235   7.992
20435WAT     H161547   9.797   4.164   7.964
20435WAT     H261548   9.909   4.207   8.075
20436WAT      O61549   5.134   7.642   3.584
20436WAT     H161550   5.163   7.590   3.664
20436WAT     H261551   5.071   7.587   3.529
20437WAT      O61552   8.284   5.436   6.354
20437WAT     H161553   8.241   5.385   6.280
20437WAT     H261554   8.375   5.399   6.371
20438WAT      O61555   9.766   5.680   7.887
20438WAT     H161556   9.801   5.741   7.815
20438WAT     H261557   9.667   5.691   7.895
20439WAT      O61558   7.357   3.007   0.912
20439WAT     H161559   7.447   3.016   0.870
20439WAT     H261560   7.353   3.063   0.995
20440WAT      O61561   4.407   7.919   4.439
20440WAT     H161562   4.330   7.980   4.459
20440WAT     H261563   4.426   7.920   4.341
20441WAT      O61564   1.126   9.613   7.504
20441WAT     H161565   1.101   9.546   7.435
20441WAT     H261566   1.219   9.645   7.486
20442WAT      O61567   1.616   2.906   5.861
20442WAT     H161568   1.634   2.935   5.955
20442WAT     H261569   1.703   2.895   5.812
20443WAT      O61570   6.564   6.134   5.857
20443WAT     H161571   6.649   6.082   5.872
20443WAT     H261572   6.524   6.159   5.945
20444WAT      O61573   4.760   0.538   5.545
20444WAT     H161574   4.830   0.500   5.485
20444WAT     H261575   4.699   0.465   5.576
20445WAT      O61576   9.090   2.846   3.246
20445WAT     H161577   9.034   2.763   3.237
20445WAT     H261578   9.160   2.846   3.174
20446WAT      O61579   8.840   7.541   7.934
20446WAT     H161580   8.750   7.574   7.906
20446WAT     H261581   8.903   7.549   7.857
20447WAT      O61582   8.291   2.795   1.276
20447WAT     H161583   8.267   2.707   1.317
20447WAT     H261584   8.240   2.868   1.320
20448WAT      O61585   0.772   9.132   4.647
20448WAT     H161586   0.805   9.184   4.568
20448WAT     H261587   0.829   9.152   4.726
20449WAT      O61588   3.408   0.603   0.477
20449WAT     H161589   3.483   0.659   0.512
20449WAT     H261590   3.321   0.641   0.508
20450WAT      O61591   1.097   4.736   3.253
20450WAT     H161592   1.077   4.659   3.192
20450WAT     H261593   1.011   4.779   3.280
20451WAT      O61594   3.572   1.098   3.903
20451WAT     H161595   3.659   1.119   3.859
20451WAT     H261596   3.562   0.999   3.911
20452WAT      O61597   4.570   3.498   6.132
20452WAT     H161598   4.529   3.485   6.222
20452WAT     H261599   4.564   3.595   6.106
20453WAT      O61600   6.866   2.159   2.509
20453WAT     H161601   6.917   2.176   2.593
20453WAT     H261602   6.813   2.241   2.484
20454WAT      O61603   6.000   2.064   8.714
20454WAT     H161604   6.084   2.074   8.660
20454WAT     H261605   6.011   2.112   8.801
20455WAT      O61606   4.468   5.564   3.188
20455WAT     H161607   4.500   5.649   3.145
20455WAT     H261608   4.474   5.489   3.122
20456WAT      O61609   4.802   4.691   0.018
20456WAT     H161610   4.725   4.643  -0.024
20456WAT     H261611   4.875   4.626   0.040
20457WAT      O61612   0.607   7.547   8.361
20457WAT     H161613   0.593   7.502   8.273
20457WAT     H261614   0.633   7.642   8.346
20458WAT      O61615   1.932   1.838   4.285
20458WAT     H161616   2.007   1.899   4.262
20458WAT     H261617   1.964   1.767   4.347
20459WAT      O61618   4.099   1.981   0.619
20459WAT     H161619   4.041   1.954   0.695
20459WAT     H261620   4.097   1.910   0.548
20460WAT      O61621   2.346   3.037   5.964
20460WAT     H161622   2.392   2.951   5.983
20460WAT     H261623   2.367   3.066   5.870
20461WAT      O61624   0.047   2.316   2.387
20461WAT     H161625  -0.046   2.339   2.358
20461WAT     H261626   0.070   2.224   2.357
20462WAT      O61627   3.808   1.543   9.266
20462WAT     H161628   3.715   1.525   9.300
20462WAT     H261629   3.865   1.574   9.342
20463WAT      O61630   4.107   9.505   8.030
20463WAT     H161631   4.060   9.467   7.950
20463WAT     H261632   4.107   9.438   8.104
20464WAT      O61633   3.666   9.607   9.699
20464WAT     H161634   3.591   9.611   9.764
20464WAT     H261635   3.693   9.700   9.672
20465WAT      O61636   8.581   9.156   2.343
20465WAT     H161637   8.493   9.123   2.380
20465WAT     H261638   8.583   9.140   2.244
20466WAT      O61639   9.750   5.289   2.475
20466WAT     H161640   9.687   5.361   2.446
20466WAT     H261641   9.728   5.261   2.569
20467WAT      O61642   0.934   0.273   7.198
20467WAT     H161643   0.934   0.315   7.289
20467WAT     H261644   0.884   0.331   7.134
20468WAT      O61645   3.938   0.205   2.852
20468WAT     H161646   3.885   0.219   2.769
20468WAT     H261647   4.036   0.199   2.829
20469WAT      O61648   6.930   5.024   7.049
20469WAT     H161649   6.929   5.122   7.025
20469WAT     H261650   6.864   5.007   7.122
20470WAT      O61651   9.411   5.526   3.019
20470WAT     H161652   9.314   5.531   2.997
20470WAT     H261653   9.443   5.617   3.048
20471WAT      O61654   5.583   2.982   8.105
20471WAT     H161655   5.525   2.916   8.057
20471WAT     H261656   5.660   3.008   8.046
20472WAT      O61657   0.586   5.812   7.718
20472WAT     H161658   0.583   5.735   7.655
20472WAT     H261659   0.669   5.866   7.702
20473WAT      O61660   4.389   6.091   6.324
20473WAT     H161661   4.368   6.155   6.250
20473WAT     H261662   4.307   6.040   6.349
20474WAT      O61663   3.710   4.768   8.835
20474WAT     H161664   3.694   4.864   8.854
20474WAT     H261665   3.634   4.713   8.870
20475WAT      O61666   5.628   5.102   7.864
20475WAT     H161667   5.649   5.022   7.808
20475WAT     H261668   5.541   5.142   7.833
20476WAT      O61669   5.708   7.847   3.393
20476WAT     H161670   5.720   7.755   3.430
20476WAT     H261671   5.797   7.885   3.369
20477WAT      O61672   2.293   0.733   3.035
20477WAT     H161673   2.294   0.759   2.939
20477WAT     H261674   2.384   0.744   3.074
20478WAT      O61675   1.221   5.261   1.676
20478WAT     H161676   1.260   5.331   1.737
20478WAT     H261677   1.253   5.276   1.583
20479WAT      O61678   1.599   4.472   2.037
20479WAT     H161679   1.638   4.563   2.020
20479WAT     H261680   1.602   4.452   2.134
20480WAT      O61681   6.776   5.027   6.233
20480WAT     H161682   6.841   4.997   6.303
20480WAT     H261683   6.765   5.126   6.238
20481WAT      O61684   2.981   0.098   9.576
20481WAT     H161685   2.934   0.012   9.598
20481WAT     H261686   2.944   0.171   9.634
20482WAT      O61687   5.814   1.576   5.420
20482WAT     H161688   5.744   1.620   5.364
20482WAT     H261689   5.833   1.632   5.501
20483WAT      O61690   3.518   8.617   2.658
20483WAT     H161691   3.575   8.615   2.577
20483WAT     H261692   3.440   8.678   2.642
20484WAT      O61693   3.629   3.919   3.076
20484WAT     H161694   3.604   3.903   3.171
20484WAT     H261695   3.703   3.986   3.071
20485WAT      O61696   9.564   2.656   1.159
20485WAT     H161697   9.613   2.673   1.073
20485WAT     H261698   9.540   2.743   1.201
20486WAT      O61699   0.838   5.884   2.233
20486WAT     H161700   0.919   5.850   2.279
20486WAT     H261701   0.861   5.967   2.181
20487WAT      O61702   6.472   4.778   5.422
20487WAT     H161703   6.504   4.826   5.504
20487WAT     H261704   6.503   4.683   5.425
20488WAT      O61705   2.786   9.686   5.877
20488WAT     H161706   2.837   9.725   5.800
20488WAT     H261707   2.713   9.627   5.842
20489WAT      O61708   1.263   2.398   9.488
20489WAT     H161709   1.289   2.312   9.445
20489WAT     H261710   1.296   2.474   9.432
20490WAT      O61711   7.232   6.721   2.843
20490WAT     H161712   7.238   6.794   2.911
20490WAT     H261713   7.155   6.661   2.864
20491WAT      O61714   0.973   1.179   1.511
20491WAT     H161715   1.012   1.250   1.453
20491WAT     H261716   0.914   1.221   1.580
20492WAT      O61717   4.753   4.618   0.422
20492WAT     H161718   4.681   4.565   0.378
20492WAT     H261719   4.721   4.651   0.511
20493WAT      O61720   1.744   0.219   1.373
20493WAT     H161721   1.676   0.279   1.331
20493WAT     H261722   1.704   0.129   1.391
20494WAT      O61723   9.608   4.164   2.125
20494WAT     H161724   9.580   4.072   2.151
20494WAT     H261725   9.534   4.208   2.073
20495WAT      O61726   5.604   8.117   7.140
20495WAT     H161727   5.613   8.216   7.130
20495WAT     H261728   5.655   8.071   7.068
20496WAT      O61729   0.654   4.000   0.952
20496WAT     H161730   0.747   4.031   0.932
20496WAT     H261731   0.599   4.001   0.869
20497WAT      O61732   8.770   5.231   2.518
20497WAT     H161733   8.739   5.248   2.612
20497WAT     H261734   8.695   5.249   2.454
20498WAT      O61735   5.733   2.618   4.232
20498WAT     H161736   5.824   2.576   4.225
20498WAT     H261737   5.742   2.717   4.226
20499WAT      O61738   3.135   3.669   6.147
20499WAT     H161739   3.172   3.581   6.176
20499WAT     H261740   3.161   3.686   6.052
20500WAT      O61741   3.990   0.508   8.259
20500WAT     H161742   4.079   0.479   8.296
20500WAT     H261743   3.958   0.440   8.193
20501WAT      O61744   9.186   2.186   4.494
20501WAT     H161745   9.156   2.202   4.400
20501WAT     H261746   9.208   2.273   4.538
20502WAT      O61747   3.524   5.486   1.620
20502WAT     H161748   3.494   5.391   1.628
20502WAT     H261749   3.624   5.490   1.617
20503WAT      O61750   0.083   0.372   7.427
20503WAT     H161751   0.029   0.450   7.459
20503WAT     H261752   0.161   0.358   7.487
20504WAT      O61753   7.909   8.016   5.807
20504WAT     H161754   7.895   7.917   5.808
20504WAT     H261755   7.991   8.038   5.861
20505WAT      O61756   2.682   5.578   1.399
20505WAT     H161757   2.752   5.627   1.450
20505WAT     H261758   2.713   5.565   1.304
20506WAT      O61759   3.978   5.082   8.647
20506WAT     H161760   3.883   5.090   8.617
20506WAT     H261761   4.001   4.986   8.660
20507WAT      O61762   4.492   3.827   2.143
20507WAT     H161763   4.486   3.900   2.075
20507WAT     H261764   4.587   3.821   2.176
20508WAT      O61765   3.883   7.520   1.772
20508WAT     H161766   3.801   7.464   1.760
20508WAT     H261767   3.920   7.505   1.864
20509WAT      O61768   9.335   4.395   3.872
20509WAT     H161769   9.271   4.442   3.812
20509WAT     H261770   9.405   4.349   3.818
20510WAT      O61771   1.486   6.742   2.109
20510WAT     H161772   1.399   6.774   2.145
20510WAT     H261773   1.560   6.801   2.142
20511WAT      O61774   9.310   2.965   0.586
20511WAT     H161775   9.289   3.017   0.504
20511WAT     H261776   9.233   2.906   0.609
20512WAT      O61777   5.651   4.309   7.639
20512WAT     H161778   5.662   4.216   7.603
20512WAT     H261779   5.734   4.362   7.618
20513WAT      O61780   8.087   3.613   0.312
20513WAT     H161781   8.090   3.644   0.407
20513WAT     H261782   8.083   3.691   0.251
20514WAT      O61783   8.180   8.149   3.188
20514WAT     H161784   8.243   8.226   3.189
20514WAT     H261785   8.103   8.168   3.249
20515WAT      O61786   9.585   1.517   2.193
20515WAT     H161787   9.589   1.611   2.159
20515WAT     H261788   9.586   1.453   2.116
20516WAT      O61789   4.302   1.543   9.432
20516WAT     H161790   4.219   1.597   9.429
20516WAT     H261791   4.379   1.598   9.400
20517WAT      O61792   4.268   8.235   8.106
20517WAT     H161793   4.257   8.150   8.055
20517WAT     H261794   4.281   8.310   8.042
20518WAT      O61795   3.835   3.604   8.874
20518WAT     H161796   3.761   3.580   8.810
20518WAT     H261797   3.795   3.641   8.958
20519WAT      O61798   9.784   6.781   9.286
20519WAT     H161799   9.732   6.696   9.287
20519WAT     H261800   9.879   6.762   9.308
20520WAT      O61801   5.881   9.640   3.669
20520WAT     H161802   5.968   9.687   3.655
20520WAT     H261803   5.810   9.707   3.693
20521WAT      O61804   5.974   1.210   6.783
20521WAT     H161805   6.022   1.296   6.768
20521WAT     H261806   6.029   1.152   6.843
20522WAT      O61807   3.475   8.066   6.159
20522WAT     H161808   3.561   8.060   6.109
20522WAT     H261809   3.438   8.158   6.153
20523WAT      O61810   0.884   5.394   1.372
20523WAT     H161811   0.928   5.459   1.434
20523WAT     H261812   0.895   5.425   1.278
20524WAT      O61813   2.305   7.668   8.329
20524WAT     H161814   2.376   7.674   8.259
20524WAT     H261815   2.254   7.754   8.333
20525WAT      O61816   9.511   4.795   2.025
20525WAT     H161817   9.495   4.893   2.012
20525WAT     H261818   9.564   4.760   1.948
20526WAT      O61819   4.343   5.999   1.380
20526WAT     H161820   4.358   5.957   1.470
20526WAT     H261821   4.354   5.931   1.308
20527WAT      O61822   3.033   2.409   0.235
20527WAT     H161823   3.043   2.492   0.290
20527WAT     H261824   3.001   2.433   0.143
20528WAT      O61825   2.153   7.678   0.996
20528WAT     H161826   2.152   7.774   0.966
20528WAT     H261827   2.183   7.674   1.092
20529WAT      O61828   3.137   1.705   9.167
20529WAT     H161829   3.189   1.791   9.161
20529WAT     H261830   3.084   1.705   9.252
20530WAT      O61831   8.118   7.670   3.394
20530WAT     H161832   8.170   7.608   3.453
20530WAT     H261833   8.123   7.637   3.299
20531WAT      O61834   9.249   2.390   0.313
20531WAT     H161835   9.212   2.351   0.229
20531WAT     H261836   9.298   2.320   0.364
20532WAT      O61837   6.288   7.537   4.618
20532WAT     H161838   6.261   7.598   4.543
20532WAT     H261839   6.361   7.580   4.670
20533WAT      O61840   8.112   2.250   4.952
20533WAT     H161841   8.139   2.296   5.037
20533WAT     H261842   8.022   2.283   4.923
20534WAT      O61843   2.720   0.513   6.122
20534WAT     H161844   2.731   0.423   6.079
20534WAT     H261845   2.630   0.520   6.163
20535WAT      O61846   1.021   2.352   2.622
20535WAT     H161847   1.102   2.297   2.641
20535WAT     H261848   1.002   2.410   2.701
20536WAT      O61849   5.626   6.708   0.697
20536WAT     H161850   5.559   6.764   0.745
20536WAT     H261851   5.691   6.767   0.649
20537WAT      O61852   8.288   0.314   2.975
20537WAT     H161853   8.323   0.393   2.923
20537WAT     H261854   8.331   0.231   2.941
20538WAT      O61855   1.161   8.106   8.216
20538WAT     H161856   1.222   8.053   8.274
20538WAT     H261857   1.184   8.090   8.120
20539WAT      O61858   3.647   8.258   6.852
20539WAT     H161859   3.622   8.182   6.791
20539WAT     H261860   3.564   8.301   6.887
20540WAT      O61861   9.573   3.146   5.533
20540WAT     H161862   9.507   3.073   5.548
20540WAT     H261863   9.582   3.164   5.435
20541WAT      O61864   6.202   6.177   6.215
20541WAT     H161865   6.214   6.105   6.146
20541WAT     H261866   6.279   6.175   6.279
20542WAT      O61867   0.982   5.106   2.457
20542WAT     H161868   0.955   5.015   2.487
20542WAT     H261869   1.081   5.110   2.444
20543WAT      O61870   2.734   2.965   0.232
20543WAT     H161871   2.798   2.996   0.302
20543WAT     H261872   2.783   2.908   0.165
20544WAT      O61873   3.801   8.776   6.726
20544WAT     H161874   3.828   8.687   6.762
20544WAT     H261875   3.742   8.763   6.646
20545WAT      O61876   3.526   9.338   2.257
20545WAT     H161877   3.504   9.393   2.337
20545WAT     H261878   3.478   9.375   2.177
20546WAT      O61879   9.015   0.267   4.196
20546WAT     H161880   8.972   0.215   4.123
20546WAT     H261881   9.093   0.318   4.160
20547WAT      O61882   2.624   2.685   1.432
20547WAT     H161883   2.575   2.650   1.352
20547WAT     H261884   2.580   2.651   1.515
20548WAT      O61885   2.550   1.885   4.983
20548WAT     H161886   2.540   1.831   5.066
20548WAT     H261887   2.642   1.925   4.980
20549WAT      O61888   2.503   1.808   0.464
20549WAT     H161889   2.406   1.784   0.452
20549WAT     H261890   2.546   1.742   0.525
20550WAT      O61891   1.358   5.370   3.957
20550WAT     H161892   1.311   5.287   3.985
20550WAT     H261893   1.307   5.450   3.989
20551WAT      O61894   9.615   4.939   6.132
20551WAT     H161895   9.551   4.902   6.065
20551WAT     H261896   9.604   5.039   6.137
20552WAT      O61897   7.489   0.572   1.735
20552WAT     H161898   7.452   0.488   1.697
20552WAT     H261899   7.513   0.634   1.660
20553WAT      O61900   3.991   8.787   3.387
20553WAT     H161901   3.983   8.848   3.466
20553WAT     H261902   4.078   8.804   3.341
20554WAT      O61903   6.070   8.623   3.503
20554WAT     H161904   6.048   8.590   3.595
20554WAT     H261905   6.090   8.545   3.444
20555WAT      O61906   2.262   9.584   4.886
20555WAT     H161907   2.286   9.680   4.875
20555WAT     H261908   2.345   9.530   4.900
20556WAT      O61909   0.586   3.770   7.734
20556WAT     H161910   0.512   3.703   7.729
20556WAT     H261911   0.586   3.813   7.825
20557WAT      O61912   7.930   2.533   8.217
20557WAT     H161913   7.937   2.513   8.315
20557WAT     H261914   7.840   2.572   8.197
20558WAT      O61915   5.666   7.846   2.292
20558WAT     H161916   5.702   7.758   2.324
20558WAT     H261917   5.743   7.909   2.278
20559WAT      O61918   2.931   0.816   4.218
20559WAT     H161919   2.920   0.725   4.258
20559WAT     H261920   3.003   0.865   4.265
20560WAT      O61921   5.069   5.168   0.078
20560WAT     H161922   4.970   5.171   0.093
20560WAT     H261923   5.113   5.239   0.134
20561WAT      O61924   4.607   3.680   8.053
20561WAT     H161925   4.706   3.676   8.060
20561WAT     H261926   4.580   3.763   8.005
20562WAT      O61927   0.068   9.160   9.625
20562WAT     H161928   0.116   9.109   9.697
20562WAT     H261929  -0.024   9.123   9.614
20563WAT      O61930   1.129   0.467   3.061
20563WAT     H161931   1.055   0.527   3.090
20563WAT     H261932   1.182   0.438   3.140
20564WAT      O61933   0.508   9.177   2.518
20564WAT     H161934   0.510   9.217   2.609
20564WAT     H261935   0.414   9.158   2.492
20565WAT      O61936   8.783   3.846   7.719
20565WAT     H161937   8.832   3.765   7.754
20565WAT     H261938   8.688   3.844   7.751
20566WAT      O61939   0.374   5.281   7.234
20566WAT     H161940   0.342   5.313   7.145
20566WAT     H261941   0.319   5.203   7.264
20567WAT      O61942   6.964   4.783   7.375
20567WAT     H161943   7.049   4.780   7.427
20567WAT     H261944   6.980   4.749   7.282
20568WAT      O61945   7.650   9.230   3.235
20568WAT     H161946   7.579   9.182   3.285
20568WAT     H261947   7.625   9.237   3.138
20569WAT      O61948   6.351   9.427   0.671
20569WAT     H161949   6.427   9.388   0.618
20569WAT     H261950   6.381   9.512   0.713
20570WAT      O61951   7.294   0.945   5.082
20570WAT     H161952   7.291   1.024   5.144
20570WAT     H261953   7.208   0.940   5.031
20571WAT      O61954   5.238   1.820   7.850
20571WAT     H161955   5.331   1.818   7.887
20571WAT     H261956   5.200   1.911   7.862
20572WAT      O61957   0.269   2.010   3.789
20572WAT     H161958   0.308   1.952   3.717
20572WAT     H261959   0.177   2.038   3.762
20573WAT      O61960   9.570   5.575   5.462
20573WAT     H161961   9.669   5.562   5.456
20573WAT     H261962   9.527   5.491   5.496
20574WAT      O61963   8.393   1.243   4.819
20574WAT     H161964   8.348   1.314   4.765
20574WAT     H261965   8.388   1.155   4.772
20575WAT      O61966   0.781   9.777   8.380
20575WAT     H161967   0.725   9.697   8.357
20575WAT     H261968   0.757   9.853   8.319
20576WAT      O61969   4.279   0.964   7.220
20576WAT     H161970   4.239   0.978   7.311
20576WAT     H261971   4.360   1.022   7.211
20577WAT      O61972   8.159   6.676   4.774
20577WAT     H161973   8.083   6.686   4.711
20577WAT     H261974   8.224   6.609   4.738
20578WAT      O61975   5.399   0.222   0.022
20578WAT     H161976   5.344   0.305   0.026
20578WAT     H261977   5.473   0.234  -0.044
20579WAT      O61978   4.878   7.057   7.687
20579WAT     H161979   4.957   7.049   7.626
20579WAT     H261980   4.794   7.039   7.636
20580WAT      O61981   2.068   3.768   5.706
20580WAT     H161982   2.050   3.679   5.749
20580WAT     H261983   1.995   3.832   5.729
20581WAT      O61984   2.840   4.000   4.936
20581WAT     H161985   2.912   4.040   4.992
20581WAT     H261986   2.876   3.981   4.844
20582WAT      O61987   7.068   7.098   8.379
20582WAT     H161988   7.030   7.005   8.379
20582WAT     H261989   7.111   7.116   8.467
20583WAT      O61990   7.912   9.742   6.026
20583WAT     H161991   7.824   9.702   6.055
20583WAT     H261992   7.973   9.669   5.995
20584WAT      O61993   5.392   8.230   7.291
20584WAT     H161994   5.306   8.202   7.247
20584WAT     H261995   5.469   8.187   7.244
20585WAT      O61996   7.745   4.400   9.478
20585WAT     H161997   7.649   4.405   9.506
20585WAT     H261998   7.780   4.493   9.464
20586WAT      O61999   4.647   1.818   4.037
20586WAT     H162000   4.579   1.746   4.043
20586WAT     H262001   4.728   1.793   4.091
20587WAT      O62002   4.991   4.219   3.998
20587WAT     H162003   4.945   4.299   3.960
20587WAT     H262004   4.973   4.140   3.940
20588WAT      O62005   5.078   2.492   1.610
20588WAT     H162006   5.044   2.572   1.560
20588WAT     H262007   5.047   2.408   1.564
20589WAT      O62008   1.928   6.062   7.755
20589WAT     H162009   1.933   6.049   7.854
20589WAT     H262010   1.833   6.057   7.725
20590WAT      O62011   6.386   5.485   7.444
20590WAT     H162012   6.295   5.447   7.463
20590WAT     H262013   6.456   5.424   7.481
20591WAT      O62014   8.702   8.545   9.752
20591WAT     H162015   8.781   8.592   9.712
20591WAT     H262016   8.628   8.542   9.685
20592WAT      O62017   3.567   6.532   8.907
20592WAT     H162018   3.582   6.436   8.884
20592WAT     H262019   3.609   6.590   8.837
20593WAT      O62020   5.003   9.758   9.720
20593WAT     H162021   4.949   9.701   9.781
20593WAT     H262022   4.968   9.852   9.722
20594WAT      O62023   1.552   0.672   0.193
20594WAT     H162024   1.495   0.711   0.120
20594WAT     H262025   1.548   0.572   0.188
20595WAT      O62026   8.264   3.580   0.085
20595WAT     H162027   8.216   3.585   0.172
20595WAT     H262028   8.198   3.582   0.010
20596WAT      O62029   3.577   4.658   8.159
20596WAT     H162030   3.584   4.564   8.126
20596WAT     H262031   3.632   4.668   8.242
20597WAT      O62032   1.158   1.371   1.422
20597WAT     H162033   1.202   1.383   1.333
20597WAT     H262034   1.156   1.460   1.469
20598WAT      O62035   2.642   7.412   7.588
20598WAT     H162036   2.723   7.402   7.530
20598WAT     H262037   2.627   7.327   7.640
20599WAT      O62038   6.853   9.543   5.122
20599WAT     H162039   6.844   9.512   5.217
20599WAT     H262040   6.789   9.618   5.106
20600WAT      O62041   1.261   2.316   8.211
20600WAT     H162042   1.247   2.219   8.231
20600WAT     H262043   1.247   2.332   8.113
20601WAT      O62044   1.102   3.099   2.291
20601WAT     H162045   1.100   3.007   2.330
20601WAT     H262046   1.153   3.098   2.205
20602WAT      O62047   8.270   9.295   7.566
20602WAT     H162048   8.348   9.359   7.566
20602WAT     H262049   8.245   9.274   7.660
20603WAT      O62050   5.650   5.437   3.519
20603WAT     H162051   5.551   5.447   3.513
20603WAT     H262052   5.674   5.390   3.604
20604WAT      O62053   6.867   7.975   7.117
20604WAT     H162054   6.839   7.927   7.200
20604WAT     H262055   6.821   7.935   7.038
20605WAT      O62056   9.696   0.418   3.547
20605WAT     H162057   9.599   0.395   3.553
20605WAT     H262058   9.745   0.372   3.622
20606WAT      O62059   8.246   4.785   7.642
20606WAT     H162060   8.248   4.710   7.576
20606WAT     H262061   8.154   4.793   7.680
20607WAT      O62062   3.504   2.798   3.961
20607WAT     H162063   3.410   2.814   3.994
20607WAT     H262064   3.566   2.862   4.007
20608WAT      O62065   3.265   7.036   8.941
20608WAT     H162066   3.229   7.046   8.849
20608WAT     H262067   3.247   7.119   8.994
20609WAT      O62068   8.003   5.917   6.891
20609WAT     H162069   8.017   5.876   6.801
20609WAT     H262070   7.978   5.846   6.957
20610WAT      O62071   5.241   0.265   8.065
20610WAT     H162072   5.203   0.346   8.021
20610WAT     H262073   5.228   0.273   8.164
20611WAT      O62074   1.586   2.326   8.553
20611WAT     H162075   1.553   2.238   8.587
20611WAT     H262076   1.564   2.335   8.456
20612WAT      O62077   6.440   9.728   7.002
20612WAT     H162078   6.521   9.725   7.061
20612WAT     H262079   6.469   9.737   6.907
20613WAT      O62080   4.953   1.939   1.125
20613WAT     H162081   4.991   1.866   1.182
20613WAT     H262082   4.864   1.910   1.089
20614WAT      O62083   2.908   9.286   6.022
20614WAT     H162084   2.860   9.348   6.084
20614WAT     H262085   3.006   9.302   6.028
20615WAT      O62086   1.714   9.417   0.119
20615WAT     H162087   1.635   9.474   0.141
20615WAT     H262088   1.731   9.419   0.021
20616WAT      O62089   4.213   9.281   9.448
20616WAT     H162090   4.143   9.271   9.378
20616WAT     H262091   4.213   9.201   9.508
20617WAT      O62092   4.516   0.593   2.289
20617WAT     H162093   4.534   0.628   2.381
20617WAT     H262094   4.575   0.639   2.223
20618WAT      O62095   2.870   3.595   9.108
20618WAT     H162096   2.890   3.549   9.022
20618WAT     H262097   2.956   3.625   9.150
20619WAT      O62098   1.867   3.613   5.501
20619WAT     H162099   1.949   3.669   5.519
20619WAT     H262100   1.803   3.665   5.446
20620WAT      O62101   8.899   8.595   8.321
20620WAT     H162102   8.937   8.680   8.356
20620WAT     H262103   8.917   8.588   8.223
20621WAT      O62104   1.883   9.687   8.828
20621WAT     H162105   1.818   9.660   8.757
20621WAT     H262106   1.872   9.784   8.850
20622WAT      O62107   9.125   7.116   7.314
20622WAT     H162108   9.222   7.093   7.321
20622WAT     H262109   9.081   7.104   7.403
20623WAT      O62110   5.654   7.843   9.110
20623WAT     H162111   5.743   7.889   9.113
20623WAT     H262112   5.652   7.771   9.180
20624WAT      O62113   9.476   5.810   5.554
20624WAT     H162114   9.498   5.895   5.506
20624WAT     H262115   9.507   5.732   5.500
20625WAT      O62116   7.159   1.327   3.522
20625WAT     H162117   7.086   1.334   3.589
20625WAT     H262118   7.206   1.415   3.515
20626WAT      O62119   5.089   6.068   2.970
20626WAT     H162120   5.101   5.987   3.027
20626WAT     H262121   5.161   6.134   2.991
20627WAT      O62122   8.439   2.792   6.296
20627WAT     H162123   8.406   2.705   6.259
20627WAT     H262124   8.536   2.802   6.276
20628WAT      O62125   1.776   3.507   4.241
20628WAT     H162126   1.692   3.555   4.268
20628WAT     H262127   1.855   3.548   4.286
20629WAT      O62128   1.188   0.219   9.318
20629WAT     H162129   1.124   0.221   9.395
20629WAT     H262130   1.240   0.305   9.317
20630WAT      O62131   9.238   4.057   8.633
20630WAT     H162132   9.334   4.033   8.647
20630WAT     H262133   9.195   4.076   8.722
20631WAT      O62134   0.194   6.640   2.253
20631WAT     H162135   0.158   6.581   2.325
20631WAT     H262136   0.142   6.725   2.250
20632WAT      O62137   2.777   4.620   2.882
20632WAT     H162138   2.724   4.565   2.948
20632WAT     H262139   2.717   4.646   2.806
20633WAT      O62140   9.873   8.419   7.881
20633WAT     H162141   9.794   8.461   7.926
20633WAT     H262142   9.857   8.321   7.872
20634WAT      O62143   5.887   3.982   1.713
20634WAT     H162144   5.919   3.974   1.618
20634WAT     H262145   5.912   3.900   1.763
20635WAT      O62146   9.626   2.956   9.695
20635WAT     H162147   9.694   3.018   9.735
20635WAT     H262148   9.612   2.878   9.757
20636WAT      O62149   6.112   8.575   6.787
20636WAT     H162150   6.191   8.580   6.727
20636WAT     H262151   6.136   8.524   6.870
20637WAT      O62152   9.060   5.936   3.121
20637WAT     H162153   9.008   5.882   3.055
20637WAT     H262154   9.031   6.031   3.117
20638WAT      O62155   2.973   4.283   9.367
20638WAT     H162156   3.063   4.292   9.411
20638WAT     H262157   2.909   4.240   9.431
20639WAT      O62158   5.390   0.008   6.219
20639WAT     H162159   5.358  -0.021   6.309
20639WAT     H262160   5.383  -0.069   6.155
20640WAT      O62161   8.493   8.921   3.558
20640WAT     H162162   8.535   8.932   3.648
20640WAT     H262163   8.546   8.973   3.491
20641WAT      O62164   6.748   7.175   2.302
20641WAT     H162165   6.751   7.206   2.208
20641WAT     H262166   6.756   7.075   2.305
20642WAT      O62167   1.513   7.865   0.227
20642WAT     H162168   1.414   7.863   0.239
20642WAT     H262169   1.557   7.806   0.295
20643WAT      O62170   1.556   1.730   2.136
20643WAT     H162171   1.545   1.631   2.126
20643WAT     H262172   1.552   1.772   2.045
20644WAT      O62173   1.422   0.479   5.785
20644WAT     H162174   1.343   0.444   5.835
20644WAT     H262175   1.391   0.522   5.700
20645WAT      O62176   9.713   5.446   8.782
20645WAT     H162177   9.624   5.483   8.809
20645WAT     H262178   9.785   5.488   8.836
20646WAT      O62179   0.393   2.944   2.491
20646WAT     H162180   0.418   3.029   2.445
20646WAT     H262181   0.294   2.928   2.481
20647WAT      O62182   8.551   3.745   1.244
20647WAT     H162183   8.512   3.836   1.257
20647WAT     H262184   8.619   3.748   1.171
20648WAT      O62185   8.329   0.106   7.178
20648WAT     H162186   8.352   0.087   7.273
20648WAT     H262187   8.232   0.087   7.163
20649WAT      O62188   3.881   8.366   7.925
20649WAT     H162189   3.976   8.337   7.914
20649WAT     H262190   3.831   8.296   7.977
20650WAT      O62191   2.315   7.219   9.452
20650WAT     H162192   2.358   7.138   9.411
20650WAT     H262193   2.284   7.196   9.545
20651WAT      O62194   9.660   8.548   5.101
20651WAT     H162195   9.734   8.501   5.051
20651WAT     H262196   9.606   8.480   5.151
20652WAT      O62197   7.433   1.187   2.657
20652WAT     H162198   7.529   1.215   2.648
20652WAT     H262199   7.390   1.239   2.731
20653WAT      O62200   8.785   2.990   2.871
20653WAT     H162201   8.827   3.075   2.905
20653WAT     H262202   8.856   2.922   2.854
20654WAT      O62203   5.896   0.735   5.302
20654WAT     H162204   5.985   0.764   5.337
20654WAT     H262205   5.829   0.809   5.317
20655WAT      O62206   1.940   1.689   2.535
20655WAT     H162207   2.040   1.700   2.537
20655WAT     H262208   1.903   1.734   2.454
20656WAT      O62209   0.772   4.668   7.912
20656WAT     H162210   0.729   4.742   7.964
20656WAT     H262211   0.867   4.691   7.893
20657WAT      O62212   6.810   1.080   8.594
20657WAT     H162213   6.904   1.103   8.619
20657WAT     H262214   6.772   1.017   8.662
20658WAT      O62215   5.360   4.476   1.470
20658WAT     H162216   5.458   4.486   1.490
20658WAT     H262217   5.307   4.504   1.550
20659WAT      O62218   3.743   5.612   9.699
20659WAT     H162219   3.841   5.604   9.681
20659WAT     H262220   3.702   5.674   9.632
20660WAT      O62221   5.174   2.863   2.490
20660WAT     H162222   5.079   2.850   2.460
20660WAT     H262223   5.175   2.884   2.588
20661WAT      O62224   0.848   8.213   2.065
20661WAT     H162225   0.940   8.173   2.057
20661WAT     H262226   0.813   8.199   2.157
20662WAT      O62227   8.544   0.520   8.171
20662WAT     H162228   8.614   0.568   8.222
20662WAT     H262229   8.503   0.582   8.104
20663WAT      O62230   7.113   3.449   6.463
20663WAT     H162231   7.112   3.498   6.550
20663WAT     H262232   7.153   3.507   6.392
20664WAT      O62233   7.418   8.576   0.692
20664WAT     H162234   7.509   8.601   0.658
20664WAT     H262235   7.402   8.479   0.674
20665WAT      O62236   4.511   7.397   4.785
20665WAT     H162237   4.437   7.332   4.802
20665WAT     H262238   4.476   7.490   4.790
20666WAT      O62239   1.043   1.612   7.421
20666WAT     H162240   1.008   1.698   7.459
20666WAT     H262241   0.987   1.536   7.455
20667WAT      O62242   7.544   9.587   2.656
20667WAT     H162243   7.473   9.643   2.612
20667WAT     H262244   7.545   9.496   2.615
20668WAT      O62245   3.457   4.850   4.730
20668WAT     H162246   3.516   4.770   4.720
20668WAT     H262247   3.513   4.933   4.727
20669WAT      O62248   9.063   2.282   4.281
20669WAT     H162249   9.065   2.380   4.300
20669WAT     H262250   9.090   2.266   4.186
20670WAT      O62251   5.345   0.394   6.279
20670WAT     H162252   5.357   0.489   6.253
20670WAT     H262253   5.360   0.384   6.378
20671WAT      O62254   7.896   1.674   0.737
20671WAT     H162255   7.963   1.691   0.810
20671WAT     H262256   7.939   1.619   0.665
20672WAT      O62257   6.923   7.041   8.038
20672WAT     H162258   6.837   7.083   8.009
20672WAT     H262259   6.985   7.113   8.071
20673WAT      O62260   7.231   1.276   5.019
20673WAT     H162261   7.276   1.361   5.045
20673WAT     H262262   7.214   1.275   4.921
20674WAT      O62263   2.135   7.970   5.894
20674WAT     H162264   2.171   7.910   5.823
20674WAT     H262265   2.098   8.053   5.853
20675WAT      O62266   6.064   9.481   5.138
20675WAT     H162267   5.967   9.501   5.122
20675WAT     H262268   6.084   9.490   5.236
20676WAT      O62269   6.589   8.530   7.114
20676WAT     H162270   6.577   8.593   7.037
20676WAT     H262271   6.686   8.508   7.123
20677WAT      O62272   4.444   5.452   8.945
20677WAT     H162273   4.477   5.532   8.895
20677WAT     H262274   4.490   5.370   8.911
20678WAT      O62275   9.655   3.539   7.880
20678WAT     H162276   9.651   3.516   7.782
20678WAT     H262277   9.603   3.472   7.932
20679WAT      O62278   8.312   1.279   8.811
20679WAT     H162279   8.287   1.204   8.751
20679WAT     H262280   8.404   1.264   8.848
20680WAT      O62281   4.958   7.627   2.996
20680WAT     H162282   5.031   7.694   3.002
20680WAT     H262283   4.996   7.535   3.000
20681WAT      O62284   6.286   7.981   1.060
20681WAT     H162285   6.273   8.019   1.152
20681WAT     H262286   6.383   7.983   1.036
20682WAT      O62287   1.024   1.298   6.872
20682WAT     H162288   1.097   1.242   6.910
20682WAT     H262289   0.963   1.241   6.817
20683WAT      O62290   7.853   8.052   0.569
20683WAT     H162291   7.869   8.147   0.540
20683WAT     H262292   7.756   8.039   0.589
20684WAT      O62293   6.104   0.954   9.891
20684WAT     H162294   6.173   0.911   9.950
20684WAT     H262295   6.147   0.980   9.804
20685WAT      O62296   3.378   5.152   7.067
20685WAT     H162297   3.345   5.187   6.979
20685WAT     H262298   3.370   5.224   7.136
20686WAT      O62299   3.775   0.188   3.240
20686WAT     H162300   3.832   0.190   3.323
20686WAT     H262301   3.684   0.154   3.262
20687WAT      O62302   5.661   2.337   1.739
20687WAT     H162303   5.681   2.433   1.762
20687WAT     H262304   5.586   2.333   1.674
20688WAT      O62305   3.704   3.844   4.429
20688WAT     H162306   3.657   3.912   4.486
20688WAT     H262307   3.726   3.764   4.484
20689WAT      O62308   0.012   1.447   1.088
20689WAT     H162309   0.087   1.380   1.090
20689WAT     H262310  -0.046   1.429   1.008
20690WAT      O62311   3.840   4.031   1.378
20690WAT     H162312   3.888   3.959   1.429
20690WAT     H262313   3.791   3.990   1.301
20691WAT      O62314   0.973   4.342   2.978
20691WAT     H162315   0.898   4.364   2.916
20691WAT     H262316   0.938   4.291   3.057
20692WAT      O62317   8.837   8.269   8.013
20692WAT     H162318   8.787   8.209   8.075
20692WAT     H262319   8.902   8.216   7.960
20693WAT      O62320   1.835   2.593   2.236
20693WAT     H162321   1.877   2.611   2.147
20693WAT     H262322   1.855   2.499   2.264
20694WAT      O62323   4.268   3.870   2.900
20694WAT     H162324   4.308   3.784   2.869
20694WAT     H262325   4.341   3.933   2.928
20695WAT      O62326   0.551   2.070   0.921
20695WAT     H162327   0.481   2.096   0.987
20695WAT     H262328   0.548   2.133   0.843
20696WAT      O62329   5.775   4.230   8.595
20696WAT     H162330   5.692   4.175   8.598
20696WAT     H262331   5.779   4.289   8.675
20697WAT      O62332   5.684   5.133   6.102
20697WAT     H162333   5.590   5.136   6.135
20697WAT     H262334   5.733   5.214   6.134
20698WAT      O62335   4.947   7.961   5.037
20698WAT     H162336   4.986   7.940   4.947
20698WAT     H262337   4.965   7.886   5.100
20699WAT      O62338   1.331   1.913   7.189
20699WAT     H162339   1.404   1.971   7.227
20699WAT     H262340   1.329   1.924   7.089
20700WAT      O62341   9.884   1.206   3.903
20700WAT     H162342   9.869   1.176   3.809
20700WAT     H262343   9.885   1.306   3.906
20701WAT      O62344   0.802   4.245   3.204
20701WAT     H162345   0.727   4.300   3.166
20701WAT     H262346   0.790   4.237   3.303
20702WAT      O62347   6.277   4.329   3.181
20702WAT     H162348   6.219   4.322   3.100
20702WAT     H262349   6.371   4.303   3.158
20703WAT      O62350   1.750   2.342   7.285
20703WAT     H162351   1.660   2.367   7.248
20703WAT     H262352   1.753   2.243   7.298
20704WAT      O62353   7.943   7.868   3.358
20704WAT     H162354   7.985   7.958   3.372
20704WAT     H262355   8.010   7.797   3.377
20705WAT      O62356   2.645   1.081   1.963
20705WAT     H162357   2.580   1.131   1.906
20705WAT     H262358   2.709   1.144   2.005
20706WAT      O62359   7.196   5.654   5.340
20706WAT     H162360   7.122   5.720   5.347
20706WAT     H262361   7.272   5.694   5.289
20707WAT      O62362   2.599   0.015   7.821
20707WAT     H162363   2.556  -0.072   7.799
20707WAT     H262364   2.686   0.022   7.772
20708WAT      O62365   3.702   4.835   7.917
20708WAT     H162366   3.611   4.795   7.908
20708WAT     H262367   3.743   4.804   8.003
20709WAT      O62368   7.411   1.944   4.456
20709WAT     H162369   7.481   1.955   4.527
20709WAT     H262370   7.371   1.853   4.462
20710WAT      O62371   5.440   5.678   0.330
20710WAT     H162372   5.424   5.775   0.312
20710WAT     H262373   5.531   5.665   0.368
20711WAT      O62374   1.765   1.544   4.538
20711WAT     H162375   1.859   1.575   4.546
20711WAT     H262376   1.704   1.623   4.537
20712WAT      O62377   1.994   6.481   5.287
20712WAT     H162378   1.969   6.445   5.377
20712WAT     H262379   2.003   6.581   5.291
20713WAT      O62380   3.245   4.241   3.747
20713WAT     H162381   3.273   4.170   3.811
20713WAT     H262382   3.169   4.294   3.786
20714WAT      O62383   3.956   5.495   1.132
20714WAT     H162384   3.918   5.587   1.135
20714WAT     H262385   3.953   5.455   1.223
20715WAT      O62386   9.230   9.700   6.455
20715WAT     H162387   9.189   9.788   6.480
20715WAT     H262388   9.196   9.673   6.365
20716WAT      O62389   2.798   9.447   5.533
20716WAT     H162390   2.796   9.365   5.476
20716WAT     H262391   2.712   9.453   5.585
20717WAT      O62392   9.548   8.702   9.346
20717WAT     H162393   9.580   8.608   9.360
20717WAT     H262394   9.449   8.706   9.360
20718WAT      O62395   5.180   9.694   1.710
20718WAT     H162396   5.226   9.626   1.767
20718WAT     H262397   5.100   9.653   1.666
20719WAT      O62398   4.506   1.526   4.773
20719WAT     H162399   4.468   1.574   4.852
20719WAT     H262400   4.485   1.578   4.690
20720WAT      O62401   3.270   8.167   7.095
20720WAT     H162402   3.212   8.158   7.176
20720WAT     H262403   3.280   8.077   7.051
20721WAT      O62404   7.690   4.473   0.121
20721WAT     H162405   7.760   4.431   0.179
20721WAT     H262406   7.614   4.410   0.108
20722WAT      O62407   5.741   3.410   5.449
20722WAT     H162408   5.701   3.502   5.446
20722WAT     H262409   5.806   3.400   5.374
20723WAT      O62410   7.459   7.466   2.583
20723WAT     H162411   7.386   7.516   2.629
20723WAT     H262412   7.436   7.369   2.580
20724WAT      O62413   8.826   9.292   8.437
20724WAT     H162414   8.767   9.212   8.443
20724WAT     H262415   8.771   9.372   8.411
20725WAT      O62416   5.802   7.043   9.105
20725WAT     H162417   5.804   6.968   9.171
20725WAT     H262418   5.894   7.058   9.068
20726WAT      O62419   0.299   5.052   8.816
20726WAT     H162420   0.289   5.145   8.853
20726WAT     H262421   0.209   5.013   8.797
20727WAT      O62422   5.669   2.981   7.666
20727WAT     H162423   5.703   3.034   7.744
20727WAT     H262424   5.585   2.934   7.692
20728WAT      O62425   2.254   0.330   5.276
20728WAT     H162426   2.234   0.406   5.338
20728WAT     H262427   2.339   0.286   5.304
20729WAT      O62428   1.950   8.067   4.299
20729WAT     H162429   2.023   8.107   4.244
20729WAT     H262430   1.979   8.064   4.395
20730WAT      O62431   0.301   6.436   3.736
20730WAT     H162432   0.305   6.518   3.679
20730WAT     H262433   0.218   6.384   3.715
20731WAT      O62434   6.406   5.079   5.633
20731WAT     H162435   6.388   5.042   5.724
20731WAT     H262436   6.320   5.091   5.584
20732WAT      O62437   9.112   7.825   5.766
20732WAT     H162438   9.111   7.917   5.727
20732WAT     H262439   9.043   7.769   5.720
20733WAT      O62440   0.410   1.864   7.953
20733WAT     H162441   0.481   1.811   7.905
20733WAT     H262442   0.346   1.901   7.886
20734WAT      O62443   8.437   0.687   6.959
20734WAT     H162444   8.391   0.615   7.013
20734WAT     H262445   8.518   0.718   7.008
20735WAT      O62446   9.573   2.768   5.075
20735WAT     H162447   9.514   2.795   4.999
20735WAT     H262448   9.668   2.791   5.054
20736WAT      O62449   1.235   8.401   6.259
20736WAT     H162450   1.269   8.310   6.284
20736WAT     H262451   1.192   8.397   6.169
20737WAT      O62452   2.328   3.940   1.727
20737WAT     H162453   2.361   3.904   1.814
20737WAT     H262454   2.392   4.009   1.693
20738WAT      O62455   1.515   7.767   6.853
20738WAT     H162456   1.432   7.712   6.850
20738WAT     H262457   1.498   7.855   6.809
20739WAT      O62458   2.731   8.372   0.491
20739WAT     H162459   2.663   8.385   0.563
20739WAT     H262460   2.808   8.434   0.505
20740WAT      O62461   4.029   1.841   7.351
20740WAT     H162462   4.070   1.752   7.332
20740WAT     H262463   4.085   1.889   7.419
20741WAT      O62464   2.352   8.585   4.842
20741WAT     H162465   2.441   8.619   4.875
20741WAT     H262466   2.279   8.620   4.901
20742WAT      O62467   9.318   0.797   6.681
20742WAT     H162468   9.245   0.864   6.674
20742WAT     H262469   9.388   0.816   6.612
20743WAT      O62470   6.583   8.475   2.161
20743WAT     H162471   6.522   8.540   2.116
20743WAT     H262472   6.531   8.420   2.227
20744WAT      O62473   0.653   5.977   6.023
20744WAT     H162474   0.747   5.975   5.988
20744WAT     H262475   0.645   5.914   6.101
20745WAT      O62476   9.498   8.827   1.213
20745WAT     H162477   9.422   8.886   1.237
20745WAT     H262478   9.463   8.744   1.169
20746WAT      O62479   6.147   8.285   0.470
20746WAT     H162480   6.133   8.375   0.511
20746WAT     H262481   6.061   8.235   0.467
20747WAT      O62482   7.145   2.773   1.600
20747WAT     H162483   7.126   2.842   1.669
20747WAT     H262484   7.239   2.782   1.569
20748WAT      O62485   1.510   8.538   4.454
20748WAT     H162486   1.476   8.629   4.478
20748WAT     H262487   1.606   8.530   4.482
20749WAT      O62488   9.226   0.621   3.512
20749WAT     H162489   9.247   0.719   3.519
20749WAT     H262490   9.237   0.578   3.601
20750WAT      O62491   7.336   3.250   0.091
20750WAT     H162492   7.368   3.169   0.043
20750WAT     H262493   7.374   3.252   0.183
20751WAT      O62494   5.457   3.856   4.868
20751WAT     H162495   5.424   3.947   4.844
20751WAT     H262496   5.407   3.787   4.814
20752WAT      O62497   3.719   9.666   2.334
20752WAT     H162498   3.673   9.749   2.302
20752WAT     H262499   3.779   9.632   2.261
20753WAT      O62500   1.190   8.743   6.695
20753WAT     H162501   1.140   8.660   6.720
20753WAT     H262502   1.269   8.754   6.755
20754WAT      O62503   6.166   2.233   0.175
20754WAT     H162504   6.236   2.278   0.231
20754WAT     H262505   6.163   2.136   0.198
20755WAT      O62506   9.841   4.391   7.190
20755WAT     H162507   9.748   4.365   7.214
20755WAT     H262508   9.863   4.480   7.230
20756WAT      O62509   6.280   6.076   5.574
20756WAT     H162510   6.296   6.139   5.650
20756WAT     H262511   6.324   5.989   5.593
20757WAT      O62512   7.312   6.302   5.673
20757WAT     H162513   7.410   6.300   5.653
20757WAT     H262514   7.291   6.384   5.727
20758WAT      O62515   4.927   5.072   1.711
20758WAT     H162516   4.898   5.101   1.620
20758WAT     H262517   4.983   5.144   1.753
20759WAT      O62518   3.835   3.305   3.971
20759WAT     H162519   3.915   3.329   4.025
20759WAT     H262520   3.776   3.244   4.024
20760WAT      O62521   0.754   9.762   4.061
20760WAT     H162522   0.764   9.673   4.017
20760WAT     H262523   0.662   9.772   4.097
20761WAT      O62524   1.988   5.008   5.672
20761WAT     H162525   2.083   5.010   5.703
20761WAT     H262526   1.934   4.950   5.733
20762WAT      O62527   0.112   0.173   9.348
20762WAT     H162528   0.063   0.257   9.370
20762WAT     H262529   0.209   0.194   9.334
20763WAT      O62530   0.408   0.650   9.281
20763WAT     H162531   0.405   0.747   9.304
20763WAT     H262532   0.490   0.631   9.227
20764WAT      O62533   0.127   0.414   3.502
20764WAT     H162534   0.156   0.321   3.525
20764WAT     H262535   0.034   0.429   3.535
20765WAT      O62536   3.932   1.303   5.132
20765WAT     H162537   3.973   1.299   5.041
20765WAT     H262538   3.898   1.213   5.158
20766WAT      O62539   3.911   8.998   5.254
20766WAT     H162540   3.942   8.984   5.160
20766WAT     H262541   3.828   8.945   5.270
20767WAT      O62542   5.707   2.733   0.874
20767WAT     H162543   5.748   2.663   0.816
20767WAT     H262544   5.618   2.702   0.908
20768WAT      O62545   0.535   9.258   2.790
20768WAT     H162546   0.579   9.294   2.872
20768WAT     H262547   0.499   9.333   2.735
20769WAT      O62548   5.604   4.684   1.436
20769WAT     H162549   5.612   4.585   1.446
20769WAT     H262550   5.569   4.723   1.522
20770WAT      O62551   1.104   5.255   3.170
20770WAT     H162552   1.138   5.196   3.097
20770WAT     H262553   1.136   5.349   3.155
20771WAT      O62554   4.811   6.909   8.650
20771WAT     H162555   4.741   6.978   8.665
20771WAT     H262556   4.838   6.909   8.553
20772WAT      O62557   6.661   5.020   2.625
20772WAT     H162558   6.572   5.003   2.667
20772WAT     H262559   6.674   4.958   2.548
20773WAT      O62560   1.046   3.951   8.895
20773WAT     H162561   1.077   3.950   8.800
20773WAT     H262562   1.103   4.014   8.948
20774WAT      O62563   5.402   6.800   1.625
20774WAT     H162564   5.352   6.726   1.581
20774WAT     H262565   5.500   6.782   1.619
20775WAT      O62566   2.877   2.152   4.947
20775WAT     H162567   2.809   2.180   4.879
20775WAT     H262568   2.834   2.087   5.011
20776WAT      O62569   8.582   2.903   7.201
20776WAT     H162570   8.638   2.849   7.138
20776WAT     H262571   8.578   2.857   7.290
20777WAT      O62572   3.676   5.887   7.866
20777WAT     H162573   3.706   5.825   7.938
20777WAT     H262574   3.747   5.956   7.851
20778WAT      O62575   1.029   5.114   6.407
20778WAT     H162576   1.061   5.209   6.396
20778WAT     H262577   1.079   5.071   6.483
20779WAT      O62578   8.979   0.417   3.163
20779WAT     H162579   9.015   0.411   3.070
20779WAT     H262580   8.943   0.328   3.191
20780WAT      O62581   7.262   8.612   4.559
20780WAT     H162582   7.243   8.684   4.492
20780WAT     H262583   7.211   8.630   4.643
20781WAT      O62584   7.892   8.378   3.594
20781WAT     H162585   7.854   8.470   3.591
20781WAT     H262586   7.850   8.327   3.669
20782WAT      O62587   9.536   1.947   8.213
20782WAT     H162588   9.590   1.981   8.290
20782WAT     H262589   9.451   1.907   8.247
20783WAT      O62590   8.675   1.036   0.803
20783WAT     H162591   8.698   1.025   0.900
20783WAT     H262592   8.674   1.133   0.779
20784WAT      O62593   3.951   8.648   9.381
20784WAT     H162594   4.049   8.643   9.358
20784WAT     H262595   3.912   8.557   9.377
20785WAT      O62596   2.570   5.789   2.491
20785WAT     H162597   2.645   5.725   2.476
20785WAT     H262598   2.558   5.846   2.410
20786WAT      O62599   2.613   4.759   3.330
20786WAT     H162600   2.606   4.830   3.400
20786WAT     H262601   2.652   4.798   3.247
20787WAT      O62602   1.841   5.982   2.112
20787WAT     H162603   1.880   6.008   2.024
20787WAT     H262604   1.907   5.927   2.162
20788WAT      O62605   1.854   8.535   4.792
20788WAT     H162606   1.763   8.506   4.822
20788WAT     H262607   1.917   8.458   4.799
20789WAT      O62608   6.363   4.104   0.234
20789WAT     H162609   6.396   4.145   0.318
20789WAT     H262610   6.387   4.162   0.156
20790WAT      O62611   4.916   2.844   8.007
20790WAT     H162612   4.930   2.746   8.024
20790WAT     H262613   4.983   2.876   7.940
20791WAT      O62614   5.289   7.281   4.472
20791WAT     H162615   5.325   7.370   4.446
20791WAT     H262616   5.344   7.209   4.428
20792WAT      O62617   7.207   8.761   9.832
20792WAT     H162618   7.269   8.815   9.888
20792WAT     H262619   7.113   8.792   9.847
20793WAT      O62620   6.269   6.389   8.884
20793WAT     H162621   6.225   6.467   8.929
20793WAT     H262622   6.323   6.421   8.807
20794WAT      O62623   2.853   8.011   6.859
20794WAT     H162624   2.913   8.064   6.798
20794WAT     H262625   2.769   8.063   6.875
20795WAT      O62626   2.472   6.302   9.836
20795WAT     H162627   2.512   6.304   9.745
20795WAT     H262628   2.541   6.272   9.902
20796WAT      O62629   1.870   2.524   8.052
20796WAT     H162630   1.818   2.609   8.061
20796WAT     H262631   1.903   2.514   7.958
20797WAT      O62632   8.326   5.753   8.777
20797WAT     H162633   8.315   5.676   8.839
20797WAT     H262634   8.270   5.739   8.696
20798WAT      O62635   8.049   0.257   2.833
20798WAT     H162636   8.085   0.242   2.740
20798WAT     H262637   8.125   0.256   2.898
20799WAT      O62638   2.272   6.266   0.505
20799WAT     H162639   2.234   6.292   0.594
20799WAT     H262640   2.256   6.169   0.489
20800WAT      O62641   7.995   3.555   3.988
20800WAT     H162642   8.064   3.628   3.987
20800WAT     H262643   7.908   3.591   3.954
20801WAT      O62644   2.182   8.385   4.536
20801WAT     H162645   2.120   8.347   4.604
20801WAT     H262646   2.268   8.334   4.537
20802WAT      O62647   4.150   5.934   3.495
20802WAT     H162648   4.057   5.966   3.480
20802WAT     H262649   4.209   5.968   3.422
20803WAT      O62650   0.154   3.233   6.993
20803WAT     H162651   0.207   3.299   6.939
20803WAT     H262652   0.113   3.166   6.932
20804WAT      O62653   7.817   0.521   1.084
20804WAT     H162654   7.883   0.589   1.053
20804WAT     H262655   7.794   0.460   1.008
20805WAT      O62656   3.912   3.673   9.458
20805WAT     H162657   3.834   3.726   9.425
20805WAT     H262658   3.992   3.692   9.400
20806WAT      O62659   5.726   0.154   1.052
20806WAT     H162660   5.739   0.059   1.082
20806WAT     H262661   5.722   0.214   1.132
20807WAT      O62662   5.516   9.090   8.221
20807WAT     H162663   5.511   9.189   8.235
20807WAT     H262664   5.545   9.072   8.127
20808WAT      O62665   0.970   9.653   1.427
20808WAT     H162666   1.005   9.718   1.494
20808WAT     H262667   1.046   9.617   1.373
20809WAT      O62668   3.799   4.799   6.472
20809WAT     H162669   3.780   4.886   6.426
20809WAT     H262670   3.792   4.812   6.571
20810WAT      O62671   0.384   1.925   2.248
20810WAT     H162672   0.322   1.979   2.192
20810WAT     H262673   0.381   1.959   2.343
20811WAT      O62674   2.464   4.991   9.185
20811WAT     H162675   2.547   5.031   9.224
20811WAT     H262676   2.487   4.942   9.101
20812WAT      O62677   1.759   5.344   0.650
20812WAT     H162678   1.704   5.335   0.567
20812WAT     H262679   1.716   5.408   0.713
20813WAT      O62680   0.119   7.265   6.999
20813WAT     H162681   0.082   7.335   7.061
20813WAT     H262682   0.191   7.214   7.046
20814WAT      O62683   4.713   2.806   9.764
20814WAT     H162684   4.691   2.900   9.789
20814WAT     H262685   4.767   2.806   9.680
20815WAT      O62686   5.560   9.594   8.888
20815WAT     H162687   5.660   9.591   8.885
20815WAT     H262688   5.523   9.510   8.848
20816WAT      O62689   1.819   7.658   8.289
20816WAT     H162690   1.812   7.560   8.268
20816WAT     H262691   1.767   7.710   8.222
20817WAT      O62692   4.556   5.279   4.980
20817WAT     H162693   4.652   5.305   4.988
20817WAT     H262694   4.500   5.332   5.044
20818WAT      O62695   4.505   4.464   7.329
20818WAT     H162696   4.471   4.542   7.275
20818WAT     H262697   4.585   4.493   7.381
20819WAT      O62698   7.442   0.693   5.920
20819WAT     H162699   7.404   0.781   5.948
20819WAT     H262700   7.457   0.694   5.821
20820WAT      O62701   0.997   1.441   5.783
20820WAT     H162702   0.962   1.523   5.829
20820WAT     H262703   1.081   1.463   5.734
20821WAT      O62704   4.853   5.606   9.767
20821WAT     H162705   4.793   5.535   9.732
20821WAT     H262706   4.908   5.643   9.692
20822WAT      O62707   2.750   4.541   1.897
20822WAT     H162708   2.804   4.461   1.871
20822WAT     H262709   2.657   4.530   1.862
20823WAT      O62710   4.207   6.420   7.035
20823WAT     H162711   4.137   6.357   7.001
20823WAT     H262712   4.270   6.372   7.096
20824WAT      O62713   3.040   3.135   6.624
20824WAT     H162714   2.996   3.073   6.558
20824WAT     H262715   2.969   3.180   6.679
20825WAT      O62716   5.322   6.893   6.492
20825WAT     H162717   5.416   6.874   6.464
20825WAT     H262718   5.273   6.937   6.417
20826WAT      O62719   7.655   3.737   1.606
20826WAT     H162720   7.603   3.684   1.674
20826WAT     H262721   7.612   3.727   1.516
20827WAT      O62722   5.425   3.544   3.273
20827WAT     H162723   5.447   3.591   3.358
20827WAT     H262724   5.410   3.611   3.200
20828WAT      O62725   8.642   2.283   0.022
20828WAT     H162726   8.607   2.371   0.054
20828WAT     H262727   8.742   2.281   0.034
20829WAT      O62728   6.972   4.630   4.137
20829WAT     H162729   6.886   4.681   4.142
20829WAT     H262730   6.980   4.589   4.046
20830WAT      O62731   3.745   5.421   4.722
20830WAT     H162732   3.724   5.519   4.722
20830WAT     H262733   3.676   5.372   4.669
20831WAT      O62734   1.265   7.051   1.158
20831WAT     H162735   1.214   6.968   1.137
20831WAT     H262736   1.357   7.044   1.118
20832WAT      O62737   2.280   0.077   6.342
20832WAT     H162738   2.268   0.003   6.276
20832WAT     H262739   2.300   0.039   6.432
20833WAT      O62740   6.725   0.350   6.951
20833WAT     H162741   6.731   0.423   7.020
20833WAT     H262742   6.638   0.358   6.902
20834WAT      O62743   8.380   1.535   3.784
20834WAT     H162744   8.390   1.623   3.738
20834WAT     H262745   8.307   1.540   3.852
20835WAT      O62746   6.715   8.928   3.382
20835WAT     H162747   6.616   8.938   3.378
20835WAT     H262748   6.744   8.855   3.319
20836WAT      O62749   5.589   1.521   0.075
20836WAT     H162750   5.678   1.527   0.029
20836WAT     H262751   5.596   1.561   0.166
20837WAT      O62752   3.441   9.707   0.501
20837WAT     H162753   3.458   9.791   0.553
20837WAT     H262754   3.436   9.629   0.564
20838WAT      O62755   5.505   4.467   2.589
20838WAT     H162756   5.444   4.408   2.535
20838WAT     H262757   5.451   4.538   2.635
20839WAT      O62758   2.155   1.359   4.888
20839WAT     H162759   2.227   1.367   4.819
20839WAT     H262760   2.182   1.292   4.957
20840WAT      O62761   1.262   3.282   9.453
20840WAT     H162762   1.312   3.345   9.512
20840WAT     H262763   1.241   3.327   9.366
20841WAT      O62764   7.286   7.773   9.550
20841WAT     H162765   7.318   7.770   9.645
20841WAT     H262766   7.217   7.844   9.541
20842WAT      O62767   2.205   3.678   4.901
20842WAT     H162768   2.259   3.594   4.910
20842WAT     H262769   2.245   3.749   4.959
20843WAT      O62770   2.771   2.346   6.068
20843WAT     H162771   2.766   2.438   6.105
20843WAT     H262772   2.736   2.281   6.135
20844WAT      O62773   6.249   8.090   1.285
20844WAT     H162774   6.181   8.045   1.342
20844WAT     H262775   6.217   8.182   1.261
20845WAT      O62776   5.780   2.626   3.318
20845WAT     H162777   5.691   2.655   3.282
20845WAT     H262778   5.851   2.689   3.288
20846WAT      O62779   6.467   8.803   1.465
20846WAT     H162780   6.517   8.837   1.544
20846WAT     H262781   6.531   8.785   1.390
20847WAT      O62782   4.782   5.713   2.852
20847WAT     H162783   4.822   5.653   2.782
20847WAT     H262784   4.756   5.800   2.809
20848WAT      O62785   4.723   1.580   2.366
20848WAT     H162786   4.640   1.623   2.403
20848WAT     H262787   4.697   1.517   2.293
20849WAT      O62788   4.877   2.875   1.558
20849WAT     H162789   4.938   2.931   1.614
20849WAT     H262790   4.826   2.933   1.495
20850WAT      O62791   3.715   1.979   6.098
20850WAT     H162792   3.796   1.952   6.047
20850WAT     H262793   3.673   1.899   6.140
20851WAT      O62794   7.388   8.912   9.566
20851WAT     H162795   7.431   8.938   9.480
20851WAT     H262796   7.289   8.911   9.555
20852WAT      O62797   3.448   0.626   4.067
20852WAT     H162798   3.376   0.557   4.069
20852WAT     H262799   3.479   0.645   4.160
20853WAT      O62800   7.086   3.450   3.922
20853WAT     H162801   7.175   3.426   3.883
20853WAT     H262802   7.037   3.367   3.948
20854WAT      O62803   3.725   1.494   2.537
20854WAT     H162804   3.658   1.568   2.545
20854WAT     H262805   3.677   1.407   2.528
20855WAT      O62806   0.297   3.771   6.552
20855WAT     H162807   0.199   3.791   6.558
20855WAT     H262808   0.334   3.760   6.644
20856WAT      O62809   3.625   2.504   9.736
20856WAT     H162810   3.662   2.553   9.814
20856WAT     H262811   3.659   2.410   9.735
20857WAT      O62812   4.901   2.552   5.279
20857WAT     H162813   4.829   2.544   5.210
20857WAT     H262814   4.990   2.541   5.236
20858WAT      O62815   0.139   4.135   8.204
20858WAT     H162816   0.234   4.130   8.172
20858WAT     H262817   0.118   4.055   8.261
20859WAT      O62818   4.749   7.253   8.384
20859WAT     H162819   4.745   7.206   8.473
20859WAT     H262820   4.759   7.185   8.312
20860WAT      O62821   6.698   5.614   0.667
20860WAT     H162822   6.798   5.614   0.677
20860WAT     H262823   6.670   5.542   0.604
20861WAT      O62824   1.605   8.360   5.905
20861WAT     H162825   1.512   8.396   5.907
20861WAT     H262826   1.615   8.298   5.827
20862WAT      O62827   5.281   9.287   4.860
20862WAT     H162828   5.267   9.196   4.820
20862WAT     H262829   5.354   9.334   4.811
20863WAT      O62830   9.401   6.557   2.157
20863WAT     H162831   9.476   6.515   2.207
20863WAT     H262832   9.435   6.597   2.073
20864WAT      O62833   5.866   3.356   7.293
20864WAT     H162834   5.934   3.428   7.291
20864WAT     H262835   5.894   3.285   7.357
20865WAT      O62836   0.413   4.051   5.567
20865WAT     H162837   0.511   4.034   5.553
20865WAT     H262838   0.362   3.966   5.548
20866WAT      O62839   9.214   3.830   8.460
20866WAT     H162840   9.292   3.770   8.480
20866WAT     H262841   9.224   3.915   8.513
20867WAT      O62842   6.225   0.766   5.123
20867WAT     H162843   6.248   0.798   5.031
20867WAT     H262844   6.154   0.825   5.161
20868WAT      O62845   1.928   9.803   6.567
20868WAT     H162846   1.943   9.889   6.616
20868WAT     H262847   1.843   9.810   6.514
20869WAT      O62848   8.808   4.562   5.226
20869WAT     H162849   8.770   4.498   5.293
20869WAT     H262850   8.734   4.598   5.170
20870WAT      O62851   7.614   3.678   7.928
20870WAT     H162852   7.615   3.590   7.977
20870WAT     H262853   7.672   3.744   7.976
20871WAT      O62854   4.727   4.571   9.008
20871WAT     H162855   4.700   4.644   8.946
20871WAT     H262856   4.660   4.565   9.082
20872WAT      O62857   7.161   9.645   4.278
20872WAT     H162858   7.129   9.739   4.291
20872WAT     H262859   7.255   9.637   4.310
20873WAT      O62860   6.060   8.857   1.755
20873WAT     H162861   6.001   8.777   1.743
20873WAT     H262862   6.018   8.936   1.710
20874WAT      O62863   7.177   5.390   8.537
20874WAT     H162864   7.122   5.308   8.549
20874WAT     H262865   7.180   5.442   8.623
20875WAT      O62866   4.925   5.256   1.921
20875WAT     H162867   4.831   5.258   1.886
20875WAT     H262868   4.924   5.254   2.021
20876WAT      O62869   8.963   9.470   6.777
20876WAT     H162870   8.889   9.414   6.739
20876WAT     H262871   8.977   9.551   6.721
20877WAT      O62872   8.447   2.216   7.765
20877WAT     H162873   8.424   2.140   7.704
20877WAT     H262874   8.382   2.291   7.751
20878WAT      O62875   4.743   1.932   6.872
20878WAT     H162876   4.794   1.901   6.792
20878WAT     H262877   4.723   1.854   6.932
20879WAT      O62878   7.843   7.467   8.267
20879WAT     H162879   7.777   7.498   8.198
20879WAT     H262880   7.853   7.368   8.261
20880WAT      O62881   5.210   1.413   2.338
20880WAT     H162882   5.149   1.472   2.391
20880WAT     H262883   5.208   1.441   2.242
20881WAT      O62884   3.981   8.475   8.798
20881WAT     H162885   4.027   8.474   8.887
20881WAT     H262886   4.004   8.390   8.749
20882WAT      O62887   1.715   8.105   4.179
20882WAT     H162888   1.686   8.187   4.129
20882WAT     H262889   1.790   8.128   4.241
20883WAT      O62890   1.059   4.974   3.784
20883WAT     H162891   0.996   4.916   3.836
20883WAT     H262892   1.153   4.953   3.810
20884WAT      O62893   0.752   7.177   0.180
20884WAT     H162894   0.672   7.227   0.215
20884WAT     H262895   0.828   7.189   0.244
20885WAT      O62896   4.131   7.235   2.155
20885WAT     H162897   4.226   7.254   2.179
20885WAT     H262898   4.080   7.209   2.237
20886WAT      O62899   0.919   0.650   3.106
20886WAT     H162900   0.839   0.621   3.159
20886WAT     H262901   0.889   0.701   3.025
20887WAT      O62902   4.755   9.187   3.151
20887WAT     H162903   4.800   9.185   3.240
20887WAT     H262904   4.814   9.144   3.083
20888WAT      O62905   9.677   5.813   7.469
20888WAT     H162906   9.647   5.905   7.490
20888WAT     H262907   9.714   5.810   7.376
20889WAT      O62908   7.553   4.229   2.637
20889WAT     H162909   7.579   4.166   2.710
20889WAT     H262910   7.607   4.313   2.643
20890WAT      O62911   0.270   1.753   7.002
20890WAT     H162912   0.296   1.657   7.000
20890WAT     H262913   0.178   1.762   7.041
20891WAT      O62914   0.284   4.415   2.548
20891WAT     H162915   0.188   4.393   2.529
20891WAT     H262916   0.304   4.508   2.518
20892WAT      O62917   8.738   0.399   8.561
20892WAT     H162918   8.657   0.407   8.618
20892WAT     H262919   8.760   0.302   8.547
20893WAT      O62920   1.342   4.323   8.181
20893WAT     H162921   1.367   4.278   8.095
20893WAT     H262922   1.421   4.372   8.218
20894WAT      O62923   4.140   4.332   7.157
20894WAT     H162924   4.158   4.281   7.072
20894WAT     H262925   4.121   4.427   7.135
20895WAT      O62926   7.103   2.139   0.996
20895WAT     H162927   7.015   2.133   1.043
20895WAT     H262928   7.175   2.102   1.055
20896WAT      O62929   0.626   2.129   6.453
20896WAT     H162930   0.551   2.105   6.392
20896WAT     H262931   0.592   2.131   6.547
20897WAT      O62932   0.004   6.869   0.602
20897WAT     H162933   0.076   6.853   0.669
20897WAT     H262934  -0.022   6.965   0.602
20898WAT      O62935   5.802   4.874   7.763
20898WAT     H162936   5.858   4.885   7.845
20898WAT     H262937   5.779   4.777   7.752
20899WAT      O62938   1.965   3.109   2.659
20899WAT     H162939   2.032   3.115   2.733
20899WAT     H262940   2.013   3.111   2.571
20900WAT      O62941   3.645   0.703   7.335
20900WAT     H162942   3.691   0.760   7.266
20900WAT     H262943   3.604   0.762   7.404
20901WAT      O62944   7.678   6.847   7.323
20901WAT     H162945   7.762   6.895   7.347
20901WAT     H262946   7.674   6.760   7.371
20902WAT      O62947   5.119   0.977   3.017
20902WAT     H162948   5.214   0.988   3.045
20902WAT     H262949   5.107   1.013   2.925
20903WAT      O62950   7.561   4.955   6.110
20903WAT     H162951   7.617   5.002   6.179
20903WAT     H262952   7.465   4.982   6.123
20904WAT      O62953   7.461   9.487   5.303
20904WAT     H162954   7.497   9.414   5.245
20904WAT     H262955   7.534   9.520   5.363
20905WAT      O62956   7.786   5.255   8.729
20905WAT     H162957   7.789   5.353   8.710
20905WAT     H262958   7.692   5.228   8.752
20906WAT      O62959   1.563   4.182   4.358
20906WAT     H162960   1.630   4.256   4.362
20906WAT     H262961   1.471   4.221   4.349
20907WAT      O62962   7.976   0.287   5.657
20907WAT     H162963   7.883   0.254   5.640
20907WAT     H262964   7.983   0.383   5.629
20908WAT      O62965   0.077   4.923   3.182
20908WAT     H162966   0.073   4.950   3.086
20908WAT     H262967   0.153   4.859   3.195
20909WAT      O62968   4.489   9.178   2.823
20909WAT     H162969   4.587   9.197   2.819
20909WAT     H262970   4.460   9.130   2.741
20910WAT      O62971   4.262   8.646   7.644
20910WAT     H162972   4.341   8.705   7.628
20910WAT     H262973   4.221   8.668   7.733
20911WAT      O62974   7.547   7.687   6.259
20911WAT     H162975   7.487   7.695   6.338
20911WAT     H262976   7.641   7.670   6.289
20912WAT      O62977   6.316   8.503   9.576
20912WAT     H162978   6.315   8.552   9.664
20912WAT     H262979   6.409   8.472   9.556
20913WAT      O62980   8.194   2.934   2.401
20913WAT     H162981   8.211   2.916   2.304
20913WAT     H262982   8.140   3.018   2.410
20914WAT      O62983   1.220   5.930   6.505
20914WAT     H162984   1.122   5.949   6.506
20914WAT     H262985   1.236   5.832   6.504
20915WAT      O62986   7.578   4.360   6.607
20915WAT     H162987   7.667   4.404   6.600
20915WAT     H262988   7.510   4.425   6.641
20916WAT      O62989   9.802   4.293   3.589
20916WAT     H162990   9.809   4.387   3.553
20916WAT     H262991   9.824   4.293   3.686
20917WAT      O62992   9.139   6.466   4.966
20917WAT     H162993   9.110   6.414   4.886
20917WAT     H262994   9.071   6.536   4.987
20918WAT      O62995   0.909   6.142   8.598
20918WAT     H162996   0.912   6.051   8.638
20918WAT     H262997   0.862   6.204   8.660
20919WAT      O62998   3.893   4.325   0.966
20919WAT     H162999   3.972   4.359   1.017
20919WAT     H263000   3.924   4.265   0.893
20920WAT      O63001   6.031   5.430   8.503
20920WAT     H163002   6.070   5.353   8.553
20920WAT     H263003   5.931   5.429   8.514
20921WAT      O63004   9.033   4.861   2.290
20921WAT     H163005   9.050   4.834   2.195
20921WAT     H263006   9.010   4.958   2.294
20922WAT      O63007   0.508   3.422   9.827
20922WAT     H163008   0.557   3.359   9.887
20922WAT     H263009   0.486   3.505   9.878
20923WAT      O63010   2.837   4.593   4.247
20923WAT     H163011   2.867   4.680   4.207
20923WAT     H263012   2.913   4.550   4.295
20924WAT      O63013   0.155   4.569   1.356
20924WAT     H163014   0.070   4.550   1.307
20924WAT     H263015   0.160   4.511   1.437
20925WAT      O63016   4.487   1.562   1.072
20925WAT     H163017   4.564   1.501   1.091
20925WAT     H263018   4.403   1.524   1.112
20926WAT      O63019   4.966   1.190   8.751
20926WAT     H163020   4.872   1.226   8.751
20926WAT     H263021   4.962   1.090   8.743
20927WAT      O63022   4.650   0.950   8.560
20927WAT     H163023   4.743   0.927   8.587
20927WAT     H263024   4.652   1.028   8.497
20928WAT      O63025   2.636   2.432   3.666
20928WAT     H163026   2.600   2.463   3.578
20928WAT     H263027   2.719   2.378   3.652
20929WAT      O63028   7.990   4.910   1.902
20929WAT     H163029   7.963   4.910   1.998
20929WAT     H263030   7.930   4.972   1.851
20930WAT      O63031   8.549   5.923   8.722
20930WAT     H163032   8.591   5.944   8.810
20930WAT     H263033   8.475   5.857   8.735
20931WAT      O63034   2.924   9.622   2.813
20931WAT     H163035   2.944   9.562   2.736
20931WAT     H263036   3.009   9.668   2.841
20932WAT      O63037   7.689   2.805   1.549
20932WAT     H163038   7.678   2.788   1.647
20932WAT     H263039   7.785   2.825   1.529
20933WAT      O63040   8.897   9.787   8.229
20933WAT     H163041   8.950   9.767   8.146
20933WAT     H263042   8.885   9.886   8.237
20934WAT      O63043   4.262   0.870   9.445
20934WAT     H163044   4.199   0.939   9.478
20934WAT     H263045   4.255   0.788   9.503
20935WAT      O63046   2.131   1.176   5.589
20935WAT     H163047   2.079   1.261   5.595
20935WAT     H263048   2.220   1.189   5.632
20936WAT      O63049   5.915   6.174   4.320
20936WAT     H163050   5.819   6.200   4.304
20936WAT     H263051   5.949   6.222   4.401
20937WAT      O63052   9.556   7.928   1.180
20937WAT     H163053   9.459   7.906   1.179
20937WAT     H263054   9.567   8.028   1.180
20938WAT      O63055   4.499   1.158   3.418
20938WAT     H163056   4.510   1.126   3.324
20938WAT     H263057   4.543   1.247   3.428
20939WAT      O63058   3.462   5.354   0.798
20939WAT     H163059   3.535   5.365   0.729
20939WAT     H263060   3.428   5.260   0.796
20940WAT      O63061   3.066   1.530   2.954
20940WAT     H163062   3.085   1.593   2.879
20940WAT     H263063   3.122   1.555   3.033
20941WAT      O63064   2.247   9.028   1.571
20941WAT     H163065   2.159   9.006   1.613
20941WAT     H263066   2.237   9.109   1.513
20942WAT      O63067   7.794   4.548   7.059
20942WAT     H163068   7.771   4.520   7.152
20942WAT     H263069   7.865   4.618   7.062
20943WAT      O63070   0.750   2.087   9.440
20943WAT     H163071   0.755   1.998   9.485
20943WAT     H263072   0.832   2.140   9.462
20944WAT      O63073   4.784   5.859   5.022
20944WAT     H163074   4.828   5.802   5.092
20944WAT     H263075   4.846   5.869   4.944
20945WAT      O63076   9.172   7.713   6.182
20945WAT     H163077   9.115   7.777   6.131
20945WAT     H263078   9.216   7.649   6.118
20946WAT      O63079   2.669   0.814   7.647
20946WAT     H163080   2.663   0.897   7.590
20946WAT     H263081   2.674   0.840   7.743
20947WAT      O63082   6.252   2.410   1.197
20947WAT     H163083   6.260   2.509   1.203
20947WAT     H263084   6.288   2.378   1.109
20948WAT      O63085   4.667   7.844   6.967
20948WAT     H163086   4.672   7.808   7.060
20948WAT     H263087   4.623   7.776   6.908
20949WAT      O63088   0.890   9.625   0.481
20949WAT     H163089   0.977   9.634   0.529
20949WAT     H263090   0.904   9.576   0.395
20950WAT      O63091   5.174   2.499   4.513
20950WAT     H163092   5.146   2.554   4.591
20950WAT     H263093   5.250   2.439   4.540
20951WAT      O63094   5.433   1.882   2.299
20951WAT     H163095   5.447   1.806   2.236
20951WAT     H263096   5.516   1.896   2.353
20952WAT      O63097   4.149   9.030   0.049
20952WAT     H163098   4.166   8.943   0.002
20952WAT     H263099   4.060   9.025   0.096
20953WAT      O63100   9.813   5.641   6.108
20953WAT     H163101   9.846   5.710   6.043
20953WAT     H263102   9.717   5.657   6.128
20954WAT      O63103   3.057   6.619   5.093
20954WAT     H163104   2.991   6.549   5.120
20954WAT     H263105   3.129   6.625   5.163
20955WAT      O63106   7.164   9.697   8.752
20955WAT     H163107   7.181   9.716   8.655
20955WAT     H263108   7.141   9.600   8.763
20956WAT      O63109   7.969   0.897   6.890
20956WAT     H163110   8.063   0.865   6.878
20956WAT     H263111   7.953   0.976   6.830
20957WAT      O63112   5.745   7.487   9.833
20957WAT     H163113   5.682   7.520   9.763
20957WAT     H263114   5.695   7.430   9.899
20958WAT      O63115   2.968   2.188   2.498
20958WAT     H163116   3.002   2.196   2.592
20958WAT     H263117   3.013   2.256   2.440
20959WAT      O63118   7.005   2.621   2.387
20959WAT     H163119   7.013   2.604   2.289
20959WAT     H263120   7.096   2.641   2.424
20960WAT      O63121   7.099   5.548   6.438
20960WAT     H163122   7.121   5.540   6.341
20960WAT     H263123   7.169   5.500   6.492
20961WAT      O63124   2.367   5.237   6.870
20961WAT     H163125   2.385   5.335   6.870
20961WAT     H263126   2.422   5.193   6.799
20962WAT      O63127   7.442   3.084   6.147
20962WAT     H163128   7.432   3.182   6.166
20962WAT     H263129   7.352   3.040   6.153
20963WAT      O63130   8.850   2.517   4.704
20963WAT     H163131   8.834   2.473   4.793
20963WAT     H263132   8.768   2.509   4.648
20964WAT      O63133   3.758   3.853   3.594
20964WAT     H163134   3.800   3.812   3.513
20964WAT     H263135   3.766   3.953   3.589
20965WAT      O63136   8.733   5.657   1.189
20965WAT     H163137   8.751   5.663   1.287
20965WAT     H263138   8.813   5.617   1.143
20966WAT      O63139   8.665   0.186   3.056
20966WAT     H163140   8.688   0.195   2.959
20966WAT     H263141   8.617   0.099   3.071
20967WAT      O63142   4.302   9.141   0.265
20967WAT     H163143   4.268   9.112   0.176
20967WAT     H263144   4.231   9.193   0.312
20968WAT      O63145   9.023   6.848   3.329
20968WAT     H163146   9.069   6.838   3.241
20968WAT     H263147   9.079   6.806   3.401
20969WAT      O63148   7.341   8.310   8.784
20969WAT     H163149   7.414   8.254   8.746
20969WAT     H263150   7.357   8.406   8.763
20970WAT      O63151   6.980   4.602   3.563
20970WAT     H163152   6.934   4.515   3.581
20970WAT     H263153   6.983   4.619   3.465
20971WAT      O63154   7.325   5.308   3.306
20971WAT     H163155   7.325   5.382   3.373
20971WAT     H263156   7.373   5.338   3.223
20972WAT      O63157   3.535   7.081   7.865
20972WAT     H163158   3.620   7.058   7.817
20972WAT     H263159   3.557   7.116   7.956
20973WAT      O63160   2.634   4.684   4.511
20973WAT     H163161   2.596   4.766   4.554
20973WAT     H263162   2.707   4.646   4.568
20974WAT      O63163   8.462   4.551   2.572
20974WAT     H163164   8.376   4.503   2.587
20974WAT     H263165   8.451   4.618   2.499
20975WAT      O63166   6.447   8.500   4.966
20975WAT     H163167   6.450   8.432   4.894
20975WAT     H263168   6.464   8.591   4.927
20976WAT      O63169   4.001   9.196   0.826
20976WAT     H163170   3.953   9.182   0.913
20976WAT     H263171   3.967   9.131   0.758
20977WAT      O63172   1.685   6.290   8.535
20977WAT     H163173   1.761   6.331   8.585
20977WAT     H263174   1.719   6.210   8.484
20978WAT      O63175   4.164   1.036   6.147
20978WAT     H163176   4.211   1.094   6.081
20978WAT     H263177   4.176   1.073   6.239
20979WAT      O63178   0.470   8.854   5.205
20979WAT     H163179   0.372   8.872   5.194
20979WAT     H263180   0.501   8.891   5.293
20980WAT      O63181   0.168   5.338   3.727
20980WAT     H163182   0.170   5.302   3.820
20980WAT     H263183   0.253   5.388   3.709
20981WAT      O63184   6.255   6.636   2.420
20981WAT     H163185   6.155   6.633   2.419
20981WAT     H263186   6.287   6.651   2.514
20982WAT      O63187   8.722   3.895   2.630
20982WAT     H163188   8.693   3.851   2.545
20982WAT     H263189   8.763   3.826   2.690
20983WAT      O63190   3.924   0.377   0.204
20983WAT     H163191   3.990   0.450   0.224
20983WAT     H263192   3.939   0.302   0.269
20984WAT      O63193   0.455   7.520   0.883
20984WAT     H163194   0.527   7.471   0.933
20984WAT     H263195   0.462   7.618   0.904
20985WAT      O63196   2.632   5.062   9.737
20985WAT     H163197   2.639   5.107   9.826
20985WAT     H263198   2.572   4.982   9.746
20986WAT      O63199   5.944   5.835   0.770
20986WAT     H163200   5.921   5.924   0.729
20986WAT     H263201   5.887   5.764   0.728
20987WAT      O63202   6.952   2.944   7.689
20987WAT     H163203   6.998   2.912   7.771
20987WAT     H263204   7.009   2.927   7.609
20988WAT      O63205   4.959   2.525   6.497
20988WAT     H163206   4.990   2.553   6.406
20988WAT     H263207   4.895   2.449   6.489
20989WAT      O63208   2.608   1.973   8.335
20989WAT     H163209   2.525   1.931   8.298
20989WAT     H263210   2.586   2.021   8.420
20990WAT      O63211   7.925   2.714   8.801
20990WAT     H163212   8.010   2.767   8.796
20990WAT     H263213   7.945   2.620   8.826
20991WAT      O63214   7.311   8.954   1.772
20991WAT     H163215   7.279   8.933   1.864
20991WAT     H263216   7.265   8.894   1.706
20992WAT      O63217   2.329   2.836   1.264
20992WAT     H163218   2.417   2.854   1.220
20992WAT     H263219   2.263   2.906   1.238
20993WAT      O63220   3.696   7.164   7.233
20993WAT     H163221   3.650   7.099   7.294
20993WAT     H263222   3.711   7.250   7.281
20994WAT      O63223   6.850   0.703   8.032
20994WAT     H163224   6.750   0.700   8.043
20994WAT     H263225   6.881   0.798   8.041
20995WAT      O63226   1.026   0.285   2.571
20995WAT     H163227   1.120   0.314   2.585
20995WAT     H263228   1.005   0.207   2.630
20996WAT      O63229   8.282   7.439   0.656
20996WAT     H163230   8.317   7.345   0.660
20996WAT     H263231   8.201   7.441   0.597
20997WAT      O63232   5.240   1.879   5.133
20997WAT     H163233   5.162   1.941   5.141
20997WAT     H263234   5.222   1.796   5.187
20998WAT      O63235   3.529   1.242   8.621
20998WAT     H163236   3.452   1.299   8.650
20998WAT     H263237   3.494   1.160   8.575
20999WAT      O63238   7.848   5.315   0.694
20999WAT     H163239   7.824   5.389   0.757
20999WAT     H263240   7.838   5.228   0.741
21000WAT      O63241   8.088   0.868   0.339
21000WAT     H163242   8.103   0.785   0.286
21000WAT     H263243   8.001   0.861   0.388
21001WAT      O63244   4.237   4.982   6.486
21001WAT     H163245   4.217   4.887   6.508
21001WAT     H263246   4.322   4.988   6.434
21002WAT      O63247   1.653   8.976   8.067
21002WAT     H163248   1.696   9.047   8.123
21002WAT     H263249   1.572   8.942   8.113
21003WAT      O63250   8.158   1.670   1.339
21003WAT     H163251   8.196   1.637   1.253
21003WAT     H263252   8.096   1.601   1.377
21004WAT      O63253   0.907   5.820   4.909
21004WAT     H163254   0.969   5.787   4.979
21004WAT     H263255   0.947   5.803   4.819
21005WAT      O63256   6.962   6.191   8.790
21005WAT     H163257   7.018   6.140   8.855
21005WAT     H263258   6.948   6.284   8.824
21006WAT      O63259   6.549   3.522   1.667
21006WAT     H163260   6.534   3.445   1.604
21006WAT     H263261   6.492   3.599   1.639
21007WAT      O63262   0.306   1.465   7.047
21007WAT     H163263   0.365   1.466   7.128
21007WAT     H263264   0.218   1.426   7.071
21008WAT      O63265   9.441   8.337   7.864
21008WAT     H163266   9.380   8.261   7.843
21008WAT     H263267   9.417   8.376   7.953
21009WAT      O63268   5.935   5.472   4.417
21009WAT     H163269   5.907   5.433   4.505
21009WAT     H263270   5.859   5.523   4.378
21010WAT      O63271   2.969   2.046   7.368
21010WAT     H163272   2.913   2.014   7.292
21010WAT     H263273   3.015   2.131   7.343
21011WAT      O63274   0.667   7.557   2.338
21011WAT     H163275   0.614   7.633   2.302
21011WAT     H263276   0.680   7.488   2.267
21012WAT      O63277   8.671   0.028   0.734
21012WAT     H163278   8.704  -0.065   0.716
21012WAT     H263279   8.620   0.029   0.820
21013WAT      O63280   0.730   5.775   3.315
21013WAT     H163281   0.824   5.769   3.283
21013WAT     H263282   0.725   5.837   3.393
21014WAT      O63283   0.835   1.184   5.435
21014WAT     H163284   0.926   1.218   5.413
21014WAT     H263285   0.843   1.098   5.486
21015WAT      O63286   1.278   6.705   3.714
21015WAT     H163287   1.369   6.713   3.672
21015WAT     H263288   1.229   6.792   3.704
21016WAT      O63289   3.176   3.369   2.423
21016WAT     H163290   3.267   3.409   2.430
21016WAT     H263291   3.134   3.366   2.513
21017WAT      O63292   1.090   7.575   2.091
21017WAT     H163293   1.081   7.623   2.178
21017WAT     H263294   1.143   7.491   2.106
21018WAT      O63295   3.222   7.465   6.329
21018WAT     H163296   3.224   7.429   6.235
21018WAT     H263297   3.184   7.396   6.390
21019WAT      O63298   4.311   8.899   4.772
21019WAT     H163299   4.363   8.978   4.805
21019WAT     H263300   4.213   8.919   4.777
21020WAT      O63301   2.609   0.988   4.937
21020WAT     H163302   2.636   0.892   4.941
21020WAT     H263303   2.663   1.036   4.868
21021WAT      O63304   5.134   9.658   0.116
21021WAT     H163305   5.037   9.654   0.091
21021WAT     H263306   5.147   9.615   0.205
21022WAT      O63307   5.267   6.213   1.263
21022WAT     H163308   5.283   6.115   1.259
21022WAT     H263309   5.353   6.260   1.281
21023WAT      O63310   6.797   6.202   0.746
21023WAT     H163311   6.712   6.209   0.694
21023WAT     H263312   6.851   6.285   0.734
21024WAT      O63313   5.108   9.252   5.347
21024WAT     H163314   5.187   9.244   5.286
21024WAT     H263315   5.037   9.188   5.318
21025WAT      O63316   5.747   6.898   8.615
21025WAT     H163317   5.710   6.975   8.668
21025WAT     H263318   5.713   6.812   8.654
21026WAT      O63319   3.889   7.065   2.711
21026WAT     H163320   3.941   6.979   2.706
21026WAT     H263321   3.950   7.141   2.688
21027WAT      O63322   6.135   8.314   9.046
21027WAT     H163323   6.185   8.228   9.045
21027WAT     H263324   6.171   8.373   9.118
21028WAT      O63325   7.172   6.215   5.943
21028WAT     H163326   7.126   6.301   5.922
21028WAT     H263327   7.176   6.158   5.861
21029WAT      O63328   8.704   7.412   4.064
21029WAT     H163329   8.733   7.375   3.975
21029WAT     H263330   8.683   7.336   4.126
21030WAT      O63331   1.728   3.240   7.171
21030WAT     H163332   1.795   3.187   7.222
21030WAT     H263333   1.699   3.188   7.090
21031WAT      O63334   2.988   7.850   0.037
21031WAT     H163335   2.908   7.809  -0.006
21031WAT     H263336   2.959   7.900   0.119
21032WAT      O63337   6.614   4.945   1.625
21032WAT     H163338   6.711   4.971   1.628
21032WAT     H263339   6.585   4.936   1.530
21033WAT      O63340   0.882   7.017   7.869
21033WAT     H163341   0.890   7.012   7.769
21033WAT     H263342   0.924   7.102   7.901
21034WAT      O63343   6.104   2.676   3.723
21034WAT     H163344   6.136   2.589   3.686
21034WAT     H263345   6.066   2.661   3.814
21035WAT      O63346   9.213   0.853   1.922
21035WAT     H163347   9.256   0.936   1.957
21035WAT     H263348   9.125   0.876   1.881
21036WAT      O63349   6.868   7.565   6.318
21036WAT     H163350   6.877   7.465   6.316
21036WAT     H263351   6.939   7.606   6.261
21037WAT      O63352   7.726   2.425   6.452
21037WAT     H163353   7.783   2.449   6.374
21037WAT     H263354   7.783   2.417   6.534
21038WAT      O63355   8.912   7.933   4.755
21038WAT     H163356   8.863   7.903   4.837
21038WAT     H263357   8.880   7.880   4.676
21039WAT      O63358   8.739   3.244   7.369
21039WAT     H163359   8.817   3.242   7.307
21039WAT     H263360   8.656   3.217   7.319
21040WAT      O63361   0.028   5.529   8.917
21040WAT     H163362   0.120   5.516   8.879
21040WAT     H263363   0.004   5.626   8.912
21041WAT      O63364   4.949   8.523   5.199
21041WAT     H163365   4.879   8.485   5.139
21041WAT     H263366   4.931   8.620   5.215
21042WAT      O63367   3.800   4.550   7.020
21042WAT     H163368   3.896   4.557   6.990
21042WAT     H263369   3.742   4.531   6.941
21043WAT      O63370   3.544   4.929   8.211
21043WAT     H163371   3.628   4.940   8.265
21043WAT     H263372   3.542   4.838   8.170
21044WAT      O63373   1.905   2.143   1.343
21044WAT     H163374   2.000   2.131   1.372
21044WAT     H263375   1.901   2.206   1.265
21045WAT      O63376   5.275   7.045   8.015
21045WAT     H163377   5.240   7.133   8.048
21045WAT     H263378   5.230   6.971   8.065
21046WAT      O63379   7.332   2.192   0.783
21046WAT     H163380   7.315   2.255   0.859
21046WAT     H263381   7.281   2.108   0.797
21047WAT      O63382   0.080   3.470   5.918
21047WAT     H163383   0.127   3.444   6.002
21047WAT     H263384   0.020   3.395   5.889
21048WAT      O63385   9.174   9.720   5.745
21048WAT     H163386   9.164   9.621   5.755
21048WAT     H263387   9.086   9.760   5.722
21049WAT      O63388   6.318   4.526   0.713
21049WAT     H163389   6.323   4.462   0.637
21049WAT     H263390   6.252   4.598   0.692
21050WAT      O63391   6.644   5.653   8.172
21050WAT     H163392   6.604   5.570   8.134
21050WAT     H263393   6.709   5.693   8.108
21051WAT      O63394   3.323   9.391   7.531
21051WAT     H163395   3.235   9.357   7.565
21051WAT     H263396   3.366   9.449   7.600
21052WAT      O63397   6.276   0.224   6.678
21052WAT     H163398   6.229   0.137   6.694
21052WAT     H263399   6.374   0.212   6.691
21053WAT      O63400   2.238   9.591   6.953
21053WAT     H163401   2.154   9.584   6.899
21053WAT     H263402   2.246   9.684   6.989
21054WAT      O63403   1.408   5.814   4.601
21054WAT     H163404   1.366   5.724   4.593
21054WAT     H263405   1.499   5.813   4.560
21055WAT      O63406   1.173   0.557   3.549
21055WAT     H163407   1.085   0.525   3.586
21055WAT     H263408   1.175   0.657   3.552
21056WAT      O63409   7.828   7.709   0.973
21056WAT     H163410   7.902   7.719   0.907
21056WAT     H263411   7.837   7.621   1.020
21057WAT      O63412   6.253   9.619   3.098
21057WAT     H163413   6.309   9.662   3.169
21057WAT     H263414   6.186   9.559   3.141
21058WAT      O63415   4.923   0.825   3.139
21058WAT     H163416   4.981   0.879   3.079
21058WAT     H263417   4.833   0.814   3.098
21059WAT      O63418   5.252   7.161   8.355
21059WAT     H163419   5.320   7.234   8.362
21059WAT     H263420   5.214   7.160   8.262
21060WAT      O63421   9.536   5.239   7.141
21060WAT     H163422   9.512   5.156   7.190
21060WAT     H263423   9.473   5.254   7.065
21061WAT      O63424   5.461   5.366   0.167
21061WAT     H163425   5.479   5.362   0.265
21061WAT     H263426   5.547   5.377   0.117
21062WAT      O63427   9.065   1.590   6.296
21062WAT     H163428   9.098   1.637   6.215
21062WAT     H263429   9.143   1.552   6.347
21063WAT      O63430   8.116   5.101   0.711
21063WAT     H163431   8.068   5.187   0.728
21063WAT     H263432   8.214   5.115   0.721
21064WAT      O63433   9.217   8.486   2.900
21064WAT     H163434   9.168   8.409   2.940
21064WAT     H263435   9.315   8.474   2.916
21065WAT      O63436   3.680   2.270   3.283
21065WAT     H163437   3.761   2.236   3.332
21065WAT     H263438   3.657   2.361   3.316
21066WAT      O63439   2.793   4.702   7.603
21066WAT     H163440   2.809   4.632   7.534
21066WAT     H263441   2.824   4.791   7.569
21067WAT      O63442   2.207   4.299   7.328
21067WAT     H163443   2.115   4.337   7.316
21067WAT     H263444   2.216   4.216   7.273
21068WAT      O63445   3.711   3.082   9.308
21068WAT     H163446   3.705   3.181   9.303
21068WAT     H263447   3.619   3.044   9.317
21069WAT      O63448   1.404   7.046   4.665
21069WAT     H163449   1.315   7.011   4.695
21069WAT     H263450   1.448   6.978   4.606
21070WAT      O63451   4.829   5.938   4.365
21070WAT     H163452   4.755   6.000   4.391
21070WAT     H263453   4.916   5.987   4.369
21071WAT      O63454   8.547   4.057   8.448
21071WAT     H163455   8.477   3.986   8.460
21071WAT     H263456   8.604   4.033   8.369
21072WAT      O63457   3.397   4.439   4.078
21072WAT     H163458   3.496   4.441   4.073
21072WAT     H263459   3.360   4.524   4.041
21073WAT      O63460   5.071   5.284   7.318
21073WAT     H163461   4.986   5.234   7.336
21073WAT     H263462   5.142   5.253   7.382
21074WAT      O63463   3.273   1.018   5.240
21074WAT     H163464   3.327   1.098   5.210
21074WAT     H263465   3.318   0.975   5.318
21075WAT      O63466   1.135   8.240   1.507
21075WAT     H163467   1.101   8.315   1.564
21075WAT     H263468   1.234   8.248   1.497
21076WAT      O63469   1.742   5.668   5.379
21076WAT     H163470   1.766   5.586   5.326
21076WAT     H263471   1.658   5.707   5.342
21077WAT      O63472   0.203   0.095   4.374
21077WAT     H163473   0.252   0.009   4.384
21077WAT     H263474   0.107   0.082   4.399
21078WAT      O63475   5.268   6.830   8.738
21078WAT     H163476   5.249   6.887   8.818
21078WAT     H263477   5.267   6.886   8.656
21079WAT      O63478   0.478   1.375   4.728
21079WAT     H163479   0.503   1.392   4.633
21079WAT     H263480   0.513   1.286   4.757
21080WAT      O63481   9.449   8.170   2.150
21080WAT     H163482   9.446   8.265   2.119
21080WAT     H263483   9.520   8.121   2.099
21081WAT      O63484   1.640   6.806   9.112
21081WAT     H163485   1.594   6.819   9.200
21081WAT     H263486   1.591   6.738   9.057
21082WAT      O63487   4.309   3.389   0.242
21082WAT     H163488   4.323   3.397   0.341
21082WAT     H263489   4.216   3.356   0.225
21083WAT      O63490   5.505   6.418   5.044
21083WAT     H163491   5.506   6.325   5.080
21083WAT     H263492   5.439   6.473   5.095
21084WAT      O63493   6.352   6.491   0.008
21084WAT     H163494   6.432   6.457  -0.042
21084WAT     H263495   6.382   6.555   0.079
21085WAT      O63496   9.674   9.300   9.343
21085WAT     H163497   9.600   9.354   9.302
21085WAT     H263498   9.636   9.215   9.379
21086WAT      O63499   7.137   2.157   5.977
21086WAT     H163500   7.191   2.073   5.964
21086WAT     H263501   7.138   2.183   6.074
21087WAT      O63502   6.982   5.721   5.640
21087WAT     H163503   6.991   5.624   5.618
21087WAT     H263504   7.057   5.772   5.599
21088WAT      O63505   5.095   8.805   4.654
21088WAT     H163506   5.162   8.736   4.625
21088WAT     H263507   5.106   8.821   4.753
21089WAT      O63508   2.740   7.440   0.980
21089WAT     H163509   2.652   7.450   1.027
21089WAT     H263510   2.810   7.494   1.028
21090WAT      O63511   4.600   9.506   4.458
21090WAT     H163512   4.657   9.567   4.403
21090WAT     H263513   4.625   9.411   4.440
21091WAT      O63514   3.539   7.681   9.084
21091WAT     H163515   3.558   7.735   9.002
21091WAT     H263516   3.469   7.612   9.064
21092WAT      O63517   4.954   0.927   8.624
21092WAT     H163518   5.048   0.904   8.647
21092WAT     H263519   4.948   0.951   8.527
21093WAT      O63520   6.041   2.263   9.226
21093WAT     H163521   6.097   2.187   9.194
21093WAT     H263522   5.988   2.233   9.306
21094WAT      O63523   3.088   0.499   9.674
21094WAT     H163524   3.134   0.565   9.733
21094WAT     H263525   3.156   0.446   9.624
21095WAT      O63526   4.593   8.461   7.645
21095WAT     H163527   4.564   8.535   7.585
21095WAT     H263528   4.684   8.429   7.616
21096WAT      O63529   0.514   6.178   2.256
21096WAT     H163530   0.557   6.262   2.223
21096WAT     H263531   0.437   6.155   2.196
21097WAT      O63532   6.805   7.862   8.494
21097WAT     H163533   6.838   7.774   8.460
21097WAT     H263534   6.843   7.881   8.584
21098WAT      O63535   6.160   5.227   2.228
21098WAT     H163536   6.102   5.288   2.175
21098WAT     H263537   6.247   5.274   2.249
21099WAT      O63538   7.491   2.245   6.445
21099WAT     H163539   7.564   2.312   6.458
21099WAT     H263540   7.430   2.276   6.372
21100WAT      O63541   7.512   3.652   1.387
21100WAT     H163542   7.428   3.703   1.405
21100WAT     H263543   7.525   3.644   1.288
21101WAT      O63544   5.003   5.842   2.057
21101WAT     H163545   4.938   5.915   2.079
21101WAT     H263546   4.987   5.765   2.118
21102WAT      O63547   2.462   3.348   3.713
21102WAT     H163548   2.385   3.288   3.694
21102WAT     H263549   2.468   3.418   3.642
21103WAT      O63550   1.966   4.245   5.181
21103WAT     H163551   1.967   4.151   5.215
21103WAT     H263552   1.964   4.244   5.081
21104WAT      O63553   6.209   0.770   4.431
21104WAT     H163554   6.211   0.830   4.351
21104WAT     H263555   6.192   0.676   4.402
21105WAT      O63556   9.485   0.941   6.836
21105WAT     H163557   9.571   0.934   6.786
21105WAT     H263558   9.421   0.872   6.803
21106WAT      O63559   8.947   8.397   9.363
21106WAT     H163560   8.972   8.492   9.380
21106WAT     H263561   8.939   8.349   9.451
21107WAT      O63562   4.138   3.693   0.251
21107WAT     H163563   4.232   3.686   0.282
21107WAT     H263564   4.129   3.653   0.160
21108WAT      O63565   6.994   0.770   6.402
21108WAT     H163566   6.987   0.805   6.495
21108WAT     H263567   6.907   0.729   6.375
21109WAT      O63568   9.870   0.428   4.212
21109WAT     H163569   9.909   0.514   4.179
21109WAT     H263570   9.887   0.419   4.310
21110WAT      O63571   0.771   0.327   9.218
21110WAT     H163572   0.761   0.380   9.302
21110WAT     H263573   0.823   0.381   9.151
21111WAT      O63574   4.661   6.991   5.898
21111WAT     H163575   4.613   7.006   5.812
21111WAT     H263576   4.737   6.928   5.884
21112WAT      O63577   5.716   1.105   6.798
21112WAT     H163578   5.815   1.121   6.798
21112WAT     H263579   5.672   1.171   6.737
21113WAT      O63580   9.502   1.720   6.723
21113WAT     H163581   9.593   1.709   6.682
21113WAT     H263582   9.482   1.818   6.733
21114WAT      O63583   9.424   4.595   3.459
21114WAT     H163584   9.489   4.601   3.534
21114WAT     H263585   9.472   4.570   3.375
21115WAT      O63586   9.839   4.607   2.188
21115WAT     H163587   9.821   4.689   2.243
21115WAT     H263588   9.776   4.534   2.214
21116WAT      O63589   1.588   5.143   9.856
21116WAT     H163590   1.658   5.159   9.925
21116WAT     H263591   1.534   5.227   9.843
21117WAT      O63592   3.520   7.671   2.338
21117WAT     H163593   3.595   7.618   2.378
21117WAT     H263594   3.474   7.617   2.268
21118WAT      O63595   0.600   2.741   7.156
21118WAT     H163596   0.512   2.717   7.116
21118WAT     H263597   0.591   2.750   7.255
21119WAT      O63598   4.497   8.823   0.111
21119WAT     H163599   4.492   8.903   0.051
21119WAT     H263600   4.472   8.741   0.059
21120WAT      O63601   3.418   5.989   0.493
21120WAT     H163602   3.400   5.922   0.565
21120WAT     H263603   3.461   6.070   0.534
21121WAT      O63604   3.674   2.994   4.059
21121WAT     H163605   3.675   3.071   3.994
21121WAT     H263606   3.694   3.028   4.151
21122WAT      O63607   5.413   0.812   9.235
21122WAT     H163608   5.328   0.758   9.228
21122WAT     H263609   5.475   0.786   9.161
21123WAT      O63610   9.427   0.574   0.303
21123WAT     H163611   9.501   0.600   0.242
21123WAT     H263612   9.401   0.479   0.285
21124WAT      O63613   1.715   4.466   4.961
21124WAT     H163614   1.782   4.539   4.950
21124WAT     H263615   1.735   4.415   5.045
21125WAT      O63616   9.394   6.034   0.664
21125WAT     H163617   9.317   5.972   0.679
21125WAT     H263618   9.444   6.046   0.750
21126WAT      O63619   3.370   1.999   5.845
21126WAT     H163620   3.285   2.005   5.792
21126WAT     H263621   3.385   1.904   5.873
21127WAT      O63622   4.959   9.091   6.452
21127WAT     H163623   4.961   9.164   6.383
21127WAT     H263624   4.890   9.024   6.427
21128WAT      O63625   3.848   2.496   6.705
21128WAT     H163626   3.888   2.588   6.707
21128WAT     H263627   3.850   2.461   6.612
21129WAT      O63628   6.452   1.508   6.658
21129WAT     H163629   6.371   1.478   6.608
21129WAT     H263630   6.424   1.550   6.744
21130WAT      O63631   2.849   3.038   0.774
21130WAT     H163632   2.875   3.043   0.871
21130WAT     H263633   2.753   3.011   0.767
21131WAT      O63634   1.925   5.193   5.405
21131WAT     H163635   1.868   5.114   5.422
21131WAT     H263636   1.930   5.250   5.487
21132WAT      O63637   5.883   3.712   3.749
21132WAT     H163638   5.915   3.688   3.840
21132WAT     H263639   5.866   3.810   3.744
21133WAT      O63640   7.538   8.179   8.713
21133WAT     H163641   7.570   8.095   8.670
21133WAT     H263642   7.600   8.254   8.688
21134WAT      O63643   0.567   2.956   2.217
21134WAT     H163644   0.479   2.996   2.190
21134WAT     H263645   0.640   2.999   2.164
21135WAT      O63646   5.362   4.149   7.234
21135WAT     H163647   5.277   4.168   7.184
21135WAT     H263648   5.375   4.218   7.305
21136WAT      O63649   5.427   4.114   9.113
21136WAT     H163650   5.450   4.035   9.169
21136WAT     H263651   5.329   4.112   9.090
21137WAT      O63652   6.870   0.473   3.830
21137WAT     H163653   6.825   0.557   3.803
21137WAT     H263654   6.856   0.403   3.760
21138WAT      O63655   9.158   4.390   4.389
21138WAT     H163656   9.113   4.324   4.449
21138WAT     H263657   9.256   4.394   4.412
21139WAT      O63658   0.552   9.495   6.359
21139WAT     H163659   0.609   9.572   6.328
21139WAT     H263660   0.559   9.487   6.458
21140WAT      O63661   6.297   9.677   2.532
21140WAT     H163662   6.313   9.775   2.542
21140WAT     H263663   6.341   9.645   2.449
21141WAT      O63664   3.484   1.990   6.464
21141WAT     H163665   3.464   2.046   6.384
21141WAT     H263666   3.575   2.011   6.499
21142WAT      O63667   9.005   2.115   3.729
21142WAT     H163668   9.015   2.042   3.797
21142WAT     H263669   8.993   2.203   3.776
21143WAT      O63670   6.987   4.626   5.411
21143WAT     H163671   7.026   4.653   5.499
21143WAT     H263672   6.948   4.706   5.366
21144WAT      O63673   1.203   3.476   1.128
21144WAT     H163674   1.240   3.542   1.063
21144WAT     H263675   1.228   3.503   1.221
21145WAT      O63676   0.587   2.801   4.632
21145WAT     H163677   0.517   2.745   4.589
21145WAT     H263678   0.556   2.831   4.722
21146WAT      O63679   4.421   8.498   9.692
21146WAT     H163680   4.351   8.533   9.630
21146WAT     H263681   4.409   8.400   9.704
21147WAT      O63682   3.607   8.427   8.682
21147WAT     H163683   3.621   8.399   8.587
21147WAT     H263684   3.509   8.441   8.698
21148WAT      O63685   5.682   6.585   5.165
21148WAT     H163686   5.639   6.512   5.112
21148WAT     H263687   5.639   6.592   5.255
21149WAT      O63688   0.845   8.442   3.504
21149WAT     H163689   0.863   8.348   3.475
21149WAT     H263690   0.932   8.491   3.511
21150WAT      O63691   4.807   4.395   2.875
21150WAT     H163692   4.878   4.392   2.946
21150WAT     H263693   4.776   4.489   2.863
21151WAT      O63694   1.088   8.462   3.903
21151WAT     H163695   1.139   8.459   3.988
21151WAT     H263696   0.992   8.439   3.921
21152WAT      O63697   3.966   5.518   8.497
21152WAT     H163698   4.053   5.467   8.501
21152WAT     H263699   3.939   5.544   8.590
21153WAT      O63700   1.861   1.661   1.758
21153WAT     H163701   1.863   1.562   1.770
21153WAT     H263702   1.914   1.705   1.831
21154WAT      O63703   8.847   3.483   7.490
21154WAT     H163704   8.796   3.477   7.575
21154WAT     H263705   8.820   3.408   7.430
21155WAT      O63706   5.132   7.536   7.067
21155WAT     H163707   5.183   7.614   7.031
21155WAT     H263708   5.141   7.458   7.004
21156WAT      O63709   0.006   0.742   6.575
21156WAT     H163710  -0.018   0.666   6.636
21156WAT     H263711  -0.003   0.713   6.480
21157WAT      O63712   2.461   1.679   6.283
21157WAT     H163713   2.479   1.765   6.332
21157WAT     H263714   2.529   1.611   6.309
21158WAT      O63715   0.208   7.067   1.040
21158WAT     H163716   0.219   7.034   0.946
21158WAT     H263717   0.128   7.023   1.081
21159WAT      O63718   9.455   7.316   5.649
21159WAT     H163719   9.461   7.337   5.746
21159WAT     H263720   9.361   7.329   5.618
21160WAT      O63721   3.463   9.209   7.966
21160WAT     H163722   3.379   9.217   7.912
21160WAT     H263723   3.541   9.241   7.912
21161WAT      O63724   8.687   5.043   2.763
21161WAT     H163725   8.606   4.987   2.782
21161WAT     H263726   8.737   5.004   2.686
21162WAT      O63727   0.887   2.403   4.820
21162WAT     H163728   0.831   2.325   4.790
21162WAT     H263729   0.977   2.397   4.778
21163WAT      O63730   4.674   8.619   1.376
21163WAT     H163731   4.615   8.549   1.337
21163WAT     H263732   4.750   8.637   1.314
21164WAT      O63733   7.918   8.217   8.191
21164WAT     H163734   7.931   8.292   8.256
21164WAT     H263735   7.974   8.233   8.110
21165WAT      O63736   8.173   7.334   5.637
21165WAT     H163737   8.234   7.322   5.716
21165WAT     H263738   8.125   7.248   5.619
21166WAT      O63739   7.084   3.627   0.195
21166WAT     H163740   6.986   3.608   0.203
21166WAT     H263741   7.103   3.716   0.236
21167WAT      O63742   0.380   5.371   1.684
21167WAT     H163743   0.384   5.436   1.609
21167WAT     H263744   0.334   5.287   1.653
21168WAT      O63745   6.709   9.559   9.204
21168WAT     H163746   6.657   9.643   9.188
21168WAT     H263747   6.719   9.509   9.118
21169WAT      O63748   2.740   4.872   5.022
21169WAT     H163749   2.796   4.866   4.939
21169WAT     H263750   2.799   4.862   5.102
21170WAT      O63751   6.935   3.899   6.237
21170WAT     H163752   6.979   3.942   6.316
21170WAT     H263753   6.939   3.960   6.159
21171WAT      O63754   5.517   5.484   7.255
21171WAT     H163755   5.495   5.427   7.176
21171WAT     H263756   5.488   5.438   7.339
21172WAT      O63757   4.002   9.073   4.242
21172WAT     H163758   4.014   9.118   4.331
21172WAT     H263759   4.072   9.002   4.232
21173WAT      O63760   1.947   1.119   9.061
21173WAT     H163761   1.991   1.141   8.974
21173WAT     H263762   1.911   1.027   9.058
21174WAT      O63763   5.482   8.338   1.659
21174WAT     H163764   5.417   8.306   1.590
21174WAT     H263765   5.439   8.334   1.749
21175WAT      O63766   3.523   0.225   6.455
21175WAT     H163767   3.465   0.203   6.377
21175WAT     H263768   3.619   0.225   6.426
21176WAT      O63769   6.665   6.054   9.717
21176WAT     H163770   6.610   6.043   9.635
21176WAT     H263771   6.616   6.110   9.784
21177WAT      O63772   1.620   0.426   1.665
21177WAT     H163773   1.584   0.348   1.613
21177WAT     H263774   1.544   0.474   1.709
21178WAT      O63775   2.972   5.903   4.667
21178WAT     H163776   3.048   5.866   4.721
21178WAT     H263777   2.999   5.992   4.629
21179WAT      O63778   9.743   7.540   8.267
21179WAT     H163779   9.762   7.512   8.361
21179WAT     H263780   9.828   7.535   8.214
21180WAT      O63781   8.486   1.865   7.787
21180WAT     H163782   8.579   1.895   7.767
21180WAT     H263783   8.462   1.890   7.881
21181WAT      O63784   2.706   7.240   4.897
21181WAT     H163785   2.768   7.170   4.932
21181WAT     H263786   2.658   7.206   4.816
21182WAT      O63787   9.554   5.432   4.865
21182WAT     H163788   9.552   5.352   4.924
21182WAT     H263789   9.503   5.413   4.781
21183WAT      O63790   8.188   2.431   2.324
21183WAT     H163791   8.260   2.445   2.392
21183WAT     H263792   8.215   2.359   2.261
21184WAT      O63793   2.651   9.574   6.670
21184WAT     H163794   2.563   9.538   6.700
21184WAT     H263795   2.637   9.646   6.602
21185WAT      O63796   4.178   6.489   1.660
21185WAT     H163797   4.265   6.438   1.659
21185WAT     H263798   4.161   6.528   1.569
21186WAT      O63799   5.698   1.130   6.249
21186WAT     H163800   5.659   1.131   6.157
21186WAT     H263801   5.763   1.205   6.258
21187WAT      O63802   3.891   7.512   4.086
21187WAT     H163803   3.805   7.552   4.055
21187WAT     H263804   3.877   7.464   4.172
21188WAT      O63805   2.851   0.388   9.867
21188WAT     H163806   2.780   0.411   9.934
21188WAT     H263807   2.889   0.473   9.828
21189WAT      O63808   1.899   7.631   2.647
21189WAT     H163809   1.841   7.710   2.663
21189WAT     H263810   1.896   7.606   2.551
21190WAT      O63811   0.388   5.651   3.090
21190WAT     H163812   0.326   5.618   3.019
21190WAT     H263813   0.431   5.736   3.060
21191WAT      O63814   4.219   1.548   8.295
21191WAT     H163815   4.130   1.543   8.339
21191WAT     H263816   4.210   1.524   8.198
21192WAT      O63817   9.460   9.419   8.717
21192WAT     H163818   9.506   9.431   8.628
21192WAT     H263819   9.460   9.322   8.742
21193WAT      O63820   8.554   2.138   5.149
21193WAT     H163821   8.598   2.091   5.226
21193WAT     H263822   8.512   2.071   5.088
21194WAT      O63823   0.294   9.701   4.450
21194WAT     H163824   0.380   9.667   4.412
21194WAT     H263825   0.235   9.624   4.474
21195WAT      O63826   6.287   4.432   9.631
21195WAT     H163827   6.371   4.478   9.603
21195WAT     H263828   6.238   4.489   9.697
21196WAT      O63829   0.813   0.584   2.377
21196WAT     H163830   0.797   0.497   2.425
21196WAT     H263831   0.882   0.637   2.428
21197WAT      O63832   4.451   8.534   3.757
21197WAT     H163833   4.474   8.625   3.790
21197WAT     H263834   4.394   8.542   3.675
21198WAT      O63835   1.021   0.225   6.783
21198WAT     H163836   0.929   0.197   6.811
21198WAT     H263837   1.016   0.316   6.741
21199WAT      O63838   4.207   6.910   3.830
21199WAT     H163839   4.188   6.911   3.732
21199WAT     H263840   4.281   6.974   3.850
21200WAT      O63841   4.391   0.977   5.270
21200WAT     H163842   4.392   0.878   5.255
21200WAT     H263843   4.483   1.009   5.293
21201WAT      O63844   5.901   5.696   8.388
21201WAT     H163845   5.934   5.602   8.397
21201WAT     H263846   5.822   5.710   8.447
21202WAT      O63847   3.848   3.214   1.448
21202WAT     H163848   3.809   3.186   1.536
21202WAT     H263849   3.836   3.312   1.436
21203WAT      O63850   4.621   9.240   7.710
21203WAT     H163851   4.600   9.210   7.617
21203WAT     H263852   4.636   9.339   7.710
21204WAT      O63853   0.727   9.273   6.357
21204WAT     H163854   0.683   9.358   6.329
21204WAT     H263855   0.777   9.288   6.442
21205WAT      O63856   5.641   8.357   2.002
21205WAT     H163857   5.658   8.263   2.031
21205WAT     H263858   5.559   8.360   1.944
21206WAT      O63859   0.811   6.445   7.569
21206WAT     H163860   0.852   6.495   7.645
21206WAT     H263861   0.812   6.347   7.590
21207WAT      O63862   4.721   4.948   8.244
21207WAT     H163863   4.806   4.983   8.203
21207WAT     H263864   4.643   4.992   8.200
21208WAT      O63865   3.575   2.616   1.337
21208WAT     H163866   3.530   2.704   1.354
21208WAT     H263867   3.512   2.542   1.358
21209WAT      O63868   9.498   5.551   0.036
21209WAT     H163869   9.497   5.512   0.129
21209WAT     H263870   9.457   5.486  -0.027
21210WAT      O63871   4.205   7.978   8.014
21210WAT     H163872   4.145   7.898   8.014
21210WAT     H263873   4.269   7.971   7.938
21211WAT      O63874   7.524   5.401   9.120
21211WAT     H163875   7.610   5.439   9.084
21211WAT     H263876   7.451   5.418   9.054
21212WAT      O63877   1.132   5.996   9.356
21212WAT     H163878   1.121   5.933   9.432
21212WAT     H263879   1.107   6.089   9.386
21213WAT      O63880   8.895   3.690   0.200
21213WAT     H163881   8.914   3.755   0.126
21213WAT     H263882   8.980   3.645   0.228
21214WAT      O63883   8.640   2.655   8.807
21214WAT     H163884   8.643   2.666   8.708
21214WAT     H263885   8.707   2.716   8.849
21215WAT      O63886   7.255   3.982   4.176
21215WAT     H163887   7.299   4.049   4.116
21215WAT     H263888   7.160   3.970   4.149
21216WAT      O63889   5.579   4.430   8.795
21216WAT     H163890   5.585   4.344   8.846
21216WAT     H263891   5.626   4.502   8.845
21217WAT      O63892   0.168   6.957   4.529
21217WAT     H163893   0.198   6.981   4.436
21217WAT     H263894   0.242   6.908   4.575
21218WAT      O63895   6.720   4.715   7.559
21218WAT     H163896   6.675   4.799   7.530
21218WAT     H263897   6.802   4.700   7.504
21219WAT      O63898   3.000   9.671   1.757
21219WAT     H163899   3.045   9.582   1.752
21219WAT     H263900   2.988   9.707   1.664
21220WAT      O63901   8.080   7.335   6.716
21220WAT     H163902   8.146   7.272   6.676
21220WAT     H263903   8.031   7.289   6.790
21221WAT      O63904   4.483   5.753   5.743
21221WAT     H163905   4.478   5.734   5.841
21221WAT     H263906   4.528   5.841   5.728
21222WAT      O63907   1.455   1.116   5.167
21222WAT     H163908   1.464   1.088   5.263
21222WAT     H263909   1.521   1.065   5.112
21223WAT      O63910   3.184   8.057   0.498
21223WAT     H163911   3.173   8.052   0.399
21223WAT     H263912   3.242   7.981   0.529
21224WAT      O63913   7.104   2.924   7.036
21224WAT     H163914   7.103   2.857   7.110
21224WAT     H263915   7.037   2.995   7.054
21225WAT      O63916   0.202   1.245   1.130
21225WAT     H163917   0.213   1.274   1.225
21225WAT     H263918   0.279   1.187   1.104
21226WAT      O63919   1.652   6.425   3.102
21226WAT     H163920   1.732   6.372   3.075
21226WAT     H263921   1.677   6.490   3.174
21227WAT      O63922   7.564   6.723   5.442
21227WAT     H163923   7.577   6.801   5.504
21227WAT     H263924   7.643   6.662   5.448
21228WAT      O63925   9.030   0.636   7.262
21228WAT     H163926   9.057   0.672   7.351
21228WAT     H263927   8.993   0.710   7.205
21229WAT      O63928   2.881   0.785   8.340
21229WAT     H163929   2.895   0.692   8.306
21229WAT     H263930   2.962   0.840   8.320
21230WAT      O63931   4.332   7.595   0.955
21230WAT     H163932   4.274   7.676   0.958
21230WAT     H263933   4.319   7.549   0.867
21231WAT      O63934   1.903   8.618   8.584
21231WAT     H163935   1.850   8.701   8.565
21231WAT     H263936   1.858   8.566   8.657
21232WAT      O63937   6.026   5.192   7.842
21232WAT     H163938   5.982   5.243   7.915
21232WAT     H263939   6.110   5.239   7.815
21233WAT      O63940   7.470   2.626   6.925
21233WAT     H163941   7.400   2.556   6.912
21233WAT     H263942   7.436   2.696   6.988
21234WAT      O63943   8.945   8.401   6.853
21234WAT     H163944   8.999   8.318   6.842
21234WAT     H263945   8.994   8.466   6.911
21235WAT      O63946   6.982   8.555   9.561
21235WAT     H163947   6.940   8.604   9.485
21235WAT     H263948   7.079   8.580   9.567
21236WAT      O63949   4.515   3.710   1.790
21236WAT     H163950   4.576   3.642   1.831
21236WAT     H263951   4.468   3.670   1.712
21237WAT      O63952   9.158   3.929   4.373
21237WAT     H163953   9.082   3.867   4.394
21237WAT     H263954   9.206   3.952   4.458
21238WAT      O63955   5.799   9.659   6.346
21238WAT     H163956   5.841   9.627   6.261
21238WAT     H263957   5.766   9.580   6.398
21239WAT      O63958   5.603   0.269   2.804
21239WAT     H163959   5.655   0.193   2.843
21239WAT     H263960   5.597   0.343   2.872
21240WAT      O63961   2.068   6.276   9.578
21240WAT     H163962   2.077   6.238   9.486
21240WAT     H263963   2.144   6.244   9.635
21241WAT      O63964   4.025   4.092   7.201
21241WAT     H163965   4.056   4.072   7.294
21241WAT     H263966   4.036   4.189   7.182
21242WAT      O63967   8.752   5.244   5.554
21242WAT     H163968   8.813   5.312   5.594
21242WAT     H263969   8.798   5.200   5.477
21243WAT      O63970   5.730   1.159   1.720
21243WAT     H163971   5.769   1.123   1.635
21243WAT     H263972   5.791   1.138   1.796
21244WAT      O63973   8.787   0.055   1.151
21244WAT     H163974   8.847   0.116   1.204
21244WAT     H263975   8.839  -0.025   1.122
21245WAT      O63976   3.931   2.814   2.233
21245WAT     H163977   3.989   2.883   2.275
21245WAT     H263978   3.987   2.736   2.204
21246WAT      O63979   3.927   2.133   7.738
21246WAT     H163980   3.913   2.059   7.803
21246WAT     H263981   3.955   2.216   7.786
21247WAT      O63982   0.822   6.049   3.066
21247WAT     H163983   0.857   6.132   3.109
21247WAT     H263984   0.790   6.071   2.974
21248WAT      O63985   9.870   6.426   2.894
21248WAT     H163986   9.783   6.465   2.864
21248WAT     H263987   9.912   6.377   2.819
21249WAT      O63988   0.113   8.552   0.625
21249WAT     H163989   0.211   8.543   0.609
21249WAT     H263990   0.063   8.532   0.541
21250WAT      O63991   4.607   1.325   0.551
21250WAT     H163992   4.627   1.423   0.548
21250WAT     H263993   4.539   1.303   0.481
21251WAT      O63994   0.901   1.373   1.922
21251WAT     H163995   0.886   1.406   2.015
21251WAT     H263996   0.979   1.422   1.882
21252WAT      O63997   6.358   8.624   7.903
21252WAT     H163998   6.458   8.615   7.906
21252WAT     H263999   6.318   8.538   7.871
21253WAT      O64000   7.008   6.514   5.709
21253WAT     H164001   6.984   6.448   5.638
21253WAT     H264002   6.939   6.585   5.713
21254WAT      O64003   5.314   4.540   4.688
21254WAT     H164004   5.217   4.550   4.709
21254WAT     H264005   5.367   4.541   4.773
21255WAT      O64006   0.062   5.817   3.268
21255WAT     H164007   0.098   5.731   3.304
21255WAT     H264008   0.021   5.801   3.178
21256WAT      O64009   1.434   8.261   4.825
21256WAT     H164010   1.480   8.295   4.907
21256WAT     H264011   1.395   8.338   4.774
21257WAT      O64012   4.398   5.849   6.629
21257WAT     H164013   4.317   5.893   6.669
21257WAT     H264014   4.415   5.762   6.675
21258WAT      O64015   1.748   1.457   8.519
21258WAT     H164016   1.777   1.362   8.507
21258WAT     H264017   1.828   1.517   8.518
21259WAT      O64018   5.151   4.305   0.505
21259WAT     H164019   5.126   4.236   0.574
21259WAT     H264020   5.102   4.390   0.524
21260WAT      O64021   1.097   8.611   9.584
21260WAT     H164022   1.164   8.619   9.658
21260WAT     H264023   1.022   8.551   9.613
21261WAT      O64024   4.204   5.520   5.105
21261WAT     H164025   4.207   5.479   5.014
21261WAT     H264026   4.149   5.463   5.166
21262WAT      O64027   2.612   9.366   0.754
21262WAT     H164028   2.621   9.426   0.675
21262WAT     H264029   2.665   9.282   0.738
21263WAT      O64030   0.525   3.163   6.803
21263WAT     H164031   0.510   3.102   6.725
21263WAT     H264032   0.450   3.229   6.809
21264WAT      O64033   0.519   6.044   0.214
21264WAT     H164034   0.436   5.999   0.181
21264WAT     H264035   0.577   5.976   0.260
21265WAT      O64036   1.942   1.929   5.491
21265WAT     H164037   1.861   1.873   5.474
21265WAT     H264038   2.024   1.873   5.478
21266WAT      O64039   7.587   4.926   8.631
21266WAT     H164040   7.618   4.865   8.704
21266WAT     H264041   7.652   4.924   8.556
21267WAT      O64042   4.174   3.909   7.048
21267WAT     H164043   4.156   3.906   6.950
21267WAT     H264044   4.123   3.984   7.089
21268WAT      O64045   6.717   7.297   1.034
21268WAT     H164046   6.728   7.206   0.995
21268WAT     H264047   6.660   7.352   0.973
21269WAT      O64048   8.305   9.683   6.054
21269WAT     H164049   8.235   9.691   6.125
21269WAT     H264050   8.280   9.739   5.975
21270WAT      O64051   6.152   7.461   6.448
21270WAT     H164052   6.198   7.548   6.430
21270WAT     H264053   6.195   7.416   6.526
21271WAT      O64054   5.987   7.348   5.602
21271WAT     H164055   6.072   7.331   5.652
21271WAT     H264056   5.939   7.424   5.643
21272WAT      O64057   3.152   1.581   5.212
21272WAT     H164058   3.119   1.513   5.146
21272WAT     H264059   3.088   1.658   5.215
21273WAT      O64060   3.813   4.181   1.637
21273WAT     H164061   3.785   4.129   1.556
21273WAT     H264062   3.908   4.211   1.626
21274WAT      O64063   8.427   4.018   4.948
21274WAT     H164064   8.355   3.982   4.887
21274WAT     H264065   8.503   3.954   4.950
21275WAT      O64066   5.092   0.973   5.494
21275WAT     H164067   5.162   1.026   5.542
21275WAT     H264068   5.057   0.902   5.555
21276WAT      O64069   7.416   6.143   3.726
21276WAT     H164070   7.449   6.237   3.731
21276WAT     H264071   7.493   6.080   3.735
21277WAT      O64072   2.357   3.971   9.078
21277WAT     H164073   2.413   3.949   8.998
21277WAT     H264074   2.411   4.023   9.144
21278WAT      O64075   2.286   3.518   3.534
21278WAT     H164076   2.196   3.519   3.577
21278WAT     H264077   2.277   3.494   3.437
21279WAT      O64078   9.720   8.940   1.981
21279WAT     H164079   9.794   8.945   1.915
21279WAT     H264080   9.684   9.032   1.998
21280WAT      O64081   7.476   9.182   4.791
21280WAT     H164082   7.416   9.168   4.870
21280WAT     H264083   7.569   9.154   4.814
21281WAT      O64084   5.820   9.147   2.705
21281WAT     H164085   5.792   9.236   2.668
21281WAT     H264086   5.919   9.148   2.722
21282WAT      O64087   8.286   1.829   5.809
21282WAT     H164088   8.320   1.808   5.902
21282WAT     H264089   8.330   1.767   5.744
21283WAT      O64090   3.641   1.306   0.678
21283WAT     H164091   3.560   1.313   0.736
21283WAT     H264092   3.645   1.216   0.635
21284WAT      O64093   8.394   6.140   3.062
21284WAT     H164094   8.304   6.153   3.103
21284WAT     H264095   8.397   6.054   3.012
21285WAT      O64096   3.521   2.792   5.101
21285WAT     H164097   3.510   2.891   5.087
21285WAT     H264098   3.607   2.774   5.149
21286WAT      O64099   5.121   8.024   2.363
21286WAT     H164100   5.107   7.929   2.390
21286WAT     H264101   5.141   8.079   2.445
21287WAT      O64102   9.276   0.512   3.784
21287WAT     H164103   9.353   0.553   3.832
21287WAT     H264104   9.198   0.506   3.845
21288WAT      O64105   2.266   6.098   2.350
21288WAT     H164106   2.169   6.115   2.367
21288WAT     H264107   2.314   6.186   2.339
21289WAT      O64108   0.004   0.014   8.852
21289WAT     H164109   0.065  -0.019   8.924
21289WAT     H264110  -0.021  -0.062   8.792
21290WAT      O64111   5.065   8.804   5.529
21290WAT     H164112   5.069   8.710   5.560
21290WAT     H264113   5.009   8.858   5.592
21291WAT      O64114   6.956   1.305   9.021
21291WAT     H164115   6.927   1.339   9.111
21291WAT     H264116   6.904   1.223   8.999
21292WAT      O64117   6.603   9.038   4.459
21292WAT     H164118   6.679   9.081   4.412
21292WAT     H264119   6.635   8.996   4.544
21293WAT      O64120   2.182   3.444   4.161
21293WAT     H164121   2.263   3.389   4.175
21293WAT     H264122   2.104   3.401   4.206
21294WAT      O64123   3.251   9.230   7.791
21294WAT     H164124   3.229   9.146   7.742
21294WAT     H264125   3.166   9.281   7.809
21295WAT      O64126   6.994   2.634   3.922
21295WAT     H164127   6.957   2.622   3.830
21295WAT     H264128   7.063   2.706   3.921
21296WAT      O64129   6.629   3.941   8.231
21296WAT     H164130   6.727   3.928   8.223
21296WAT     H264131   6.609   4.010   8.301
21297WAT      O64132   6.614   3.768   3.001
21297WAT     H164133   6.515   3.772   3.005
21297WAT     H264134   6.644   3.770   2.906
21298WAT      O64135   8.725   9.348   2.473
21298WAT     H164136   8.673   9.273   2.432
21298WAT     H264137   8.728   9.425   2.410
21299WAT      O64138   4.345   3.545   4.560
21299WAT     H164139   4.264   3.499   4.523
21299WAT     H264140   4.317   3.618   4.622
21300WAT      O64141   4.024   4.556   9.859
21300WAT     H164142   4.013   4.509   9.947
21300WAT     H264143   4.075   4.640   9.872
21301WAT      O64144   0.909   1.660   5.901
21301WAT     H164145   0.972   1.718   5.953
21301WAT     H264146   0.827   1.644   5.955
21302WAT      O64147   8.624   4.229   5.282
21302WAT     H164148   8.707   4.223   5.226
21302WAT     H264149   8.580   4.318   5.267
21303WAT      O64150   9.633   5.135   3.596
21303WAT     H164151   9.603   5.191   3.673
21303WAT     H264152   9.638   5.192   3.514
21304WAT      O64153   7.372   2.547   0.747
21304WAT     H164154   7.310   2.580   0.675
21304WAT     H264155   7.467   2.564   0.719
21305WAT      O64156   6.507   5.502   5.272
21305WAT     H164157   6.573   5.567   5.232
21305WAT     H264158   6.557   5.425   5.312
21306WAT      O64159   9.074   9.298   2.991
21306WAT     H164160   9.029   9.375   3.037
21306WAT     H264161   9.160   9.278   3.036
21307WAT      O64162   9.799   3.038   4.347
21307WAT     H164163   9.762   3.075   4.433
21307WAT     H264164   9.731   2.977   4.306
21308WAT      O64165   6.536   8.328   1.881
21308WAT     H164166   6.582   8.277   1.954
21308WAT     H264167   6.493   8.410   1.920
21309WAT      O64168   4.875   3.671   8.086
21309WAT     H164169   4.949   3.684   8.019
21309WAT     H264170   4.915   3.645   8.174
21310WAT      O64171   9.440   4.168   4.374
21310WAT     H164172   9.463   4.140   4.281
21310WAT     H264173   9.469   4.263   4.389
21311WAT      O64174   8.456   6.422   7.187
21311WAT     H164175   8.366   6.439   7.226
21311WAT     H264176   8.486   6.503   7.137
21312WAT      O64177   1.703   8.355   8.242
21312WAT     H164178   1.696   8.289   8.317
21312WAT     H264179   1.627   8.341   8.179
21313WAT      O64180   8.276   3.129   4.748
21313WAT     H164181   8.317   3.048   4.789
21313WAT     H264182   8.194   3.155   4.799
21314WAT      O64183   3.351   3.709   3.086
21314WAT     H164184   3.390   3.658   3.009
21314WAT     H264185   3.425   3.753   3.138
21315WAT      O64186   7.543   2.957   3.466
21315WAT     H164187   7.468   2.954   3.531
21315WAT     H264188   7.544   2.873   3.412
21316WAT      O64189   1.130   9.381   0.563
21316WAT     H164190   1.124   9.293   0.609
21316WAT     H264191   1.149   9.453   0.630
21317WAT      O64192   8.160   4.696   1.096
21317WAT     H164193   8.173   4.795   1.092
21317WAT     H264194   8.121   4.672   1.185
21318WAT      O64195   2.610   1.134   6.282
21318WAT     H164196   2.657   1.048   6.305
21318WAT     H264197   2.511   1.119   6.281
21319WAT      O64198   5.752   8.884   2.289
21319WAT     H164199   5.766   8.944   2.211
21319WAT     H264200   5.739   8.790   2.257
21320WAT      O64201   8.193   5.522   2.802
21320WAT     H164202   8.245   5.437   2.797
21320WAT     H264203   8.256   5.600   2.801
21321WAT      O64204   4.920   2.817   2.001
21321WAT     H164205   5.012   2.778   2.012
21321WAT     H264206   4.918   2.910   2.037
21322WAT      O64207   7.422   1.431   5.498
21322WAT     H164208   7.469   1.450   5.411
21322WAT     H264209   7.324   1.442   5.486
21323WAT      O64210   4.668   1.598   5.749
21323WAT     H164211   4.644   1.649   5.831
21323WAT     H264212   4.588   1.589   5.690
21324WAT      O64213   8.972   0.039   0.791
21324WAT     H164214   9.017  -0.046   0.818
21324WAT     H264215   8.873   0.027   0.793
21325WAT      O64216   5.552   7.615   5.423
21325WAT     H164217   5.621   7.543   5.427
21325WAT     H264218   5.592   7.698   5.386
21326WAT      O64219   6.584   0.205   8.575
21326WAT     H164220   6.639   0.192   8.657
21326WAT     H264221   6.535   0.292   8.581
21327WAT      O64222   9.492   6.958   6.959
21327WAT     H164223   9.401   6.992   6.935
21327WAT     H264224   9.504   6.865   6.922
21328WAT      O64225   3.262   0.159   4.162
21328WAT     H164226   3.179   0.166   4.218
21328WAT     H264227   3.286   0.063   4.150
21329WAT      O64228   3.102   6.665   6.560
21329WAT     H164229   3.162   6.661   6.480
21329WAT     H264230   3.041   6.743   6.551
21330WAT      O64231   2.080   1.809   1.543
21330WAT     H164232   2.097   1.888   1.602
21330WAT     H264233   2.141   1.814   1.464
21331WAT      O64234   4.639   8.868   3.642
21331WAT     H164235   4.637   8.864   3.542
21331WAT     H264236   4.733   8.853   3.675
21332WAT      O64237   3.920   9.473   7.681
21332WAT     H164238   4.005   9.470   7.629
21332WAT     H264239   3.888   9.568   7.689
21333WAT      O64240   2.305   7.460   0.938
21333WAT     H164241   2.382   7.457   1.001
21333WAT     H264242   2.239   7.528   0.969
21334WAT      O64243   0.319   5.021   6.109
21334WAT     H164244   0.325   4.974   6.021
21334WAT     H264245   0.247   5.090   6.105
21335WAT      O64246   8.394   4.102   9.027
21335WAT     H164247   8.391   4.175   8.959
21335WAT     H264248   8.311   4.046   9.019
21336WAT      O64249   3.210   4.375   1.128
21336WAT     H164250   3.260   4.403   1.046
21336WAT     H264251   3.210   4.450   1.194
21337WAT      O64252   7.182   0.288   8.049
21337WAT     H164253   7.116   0.362   8.062
21337WAT     H264254   7.161   0.240   7.964
21338WAT      O64255   9.590   4.891   7.006
21338WAT     H164256   9.684   4.867   7.029
21338WAT     H264257   9.541   4.919   7.089
21339WAT      O64258   6.820   6.184   0.310
21339WAT     H164259   6.758   6.130   0.254
21339WAT     H264260   6.886   6.124   0.355
21340WAT      O64261   6.837   2.783   0.318
21340WAT     H164262   6.898   2.704   0.325
21340WAT     H264263   6.846   2.840   0.399
21341WAT      O64264   7.296   9.318   9.437
21341WAT     H164265   7.296   9.362   9.527
21341WAT     H264266   7.316   9.386   9.367
21342WAT      O64267   1.500   8.711   4.747
21342WAT     H164268   1.556   8.652   4.806
21342WAT     H264269   1.450   8.776   4.804
21343WAT      O64270   3.512   3.772   4.237
21343WAT     H164271   3.570   3.819   4.304
21343WAT     H264272   3.565   3.701   4.191
21344WAT      O64273   3.979   1.207   7.706
21344WAT     H164274   4.068   1.199   7.750
21344WAT     H264275   3.915   1.255   7.767
21345WAT      O64276   1.035   8.599   1.997
21345WAT     H164277   1.103   8.669   1.976
21345WAT     H264278   0.964   8.600   1.926
21346WAT      O64279   0.322   5.270   4.498
21346WAT     H164280   0.366   5.299   4.583
21346WAT     H264281   0.392   5.257   4.428
21347WAT      O64282   2.211   5.034   9.061
21347WAT     H164283   2.243   5.107   9.000
21347WAT     H264284   2.290   4.986   9.099
21348WAT      O64285   2.513   1.883   6.449
21348WAT     H164286   2.599   1.919   6.413
21348WAT     H264287   2.446   1.957   6.457
21349WAT      O64288   8.157   9.652   6.478
21349WAT     H164289   8.155   9.621   6.573
21349WAT     H264290   8.243   9.625   6.436
21350WAT      O64291   2.378   5.241   1.109
21350WAT     H164292   2.332   5.276   1.191
21350WAT     H264293   2.471   5.214   1.133
21351WAT      O64294   2.736   6.545   2.925
21351WAT     H164295   2.774   6.625   2.972
21351WAT     H264296   2.639   6.535   2.948
21352WAT      O64297   4.238   7.282   8.785
21352WAT     H164298   4.244   7.319   8.877
21352WAT     H264299   4.147   7.302   8.747
21353WAT      O64300   1.085   9.447   5.190
21353WAT     H164301   1.163   9.398   5.152
21353WAT     H264302   1.090   9.543   5.163
21354WAT      O64303   8.086   9.191   5.388
21354WAT     H164304   8.090   9.155   5.296
21354WAT     H264305   8.091   9.116   5.454
21355WAT      O64306   8.798   5.262   1.571
21355WAT     H164307   8.770   5.278   1.476
21355WAT     H264308   8.751   5.327   1.631
21356WAT      O64309   5.315   1.864   7.300
21356WAT     H164310   5.320   1.898   7.394
21356WAT     H264311   5.335   1.938   7.236
21357WAT      O64312   0.146   3.535   3.088
21357WAT     H164313   0.125   3.632   3.103
21357WAT     H264314   0.090   3.501   3.012
21358WAT      O64315   1.062   9.088   0.329
21358WAT     H164316   1.001   9.167   0.330
21358WAT     H264317   1.128   9.096   0.404
21359WAT      O64318   0.867   7.249   2.961
21359WAT     H164319   0.819   7.299   3.033
21359WAT     H264320   0.847   7.152   2.969
21360WAT      O64321   4.983   0.249   9.356
21360WAT     H164322   4.954   0.344   9.357
21360WAT     H264323   4.905   0.190   9.379
21361WAT      O64324   5.281   8.675   7.818
21361WAT     H164325   5.378   8.656   7.831
21361WAT     H264326   5.268   8.723   7.731
21362WAT      O64327   7.617   1.983   8.065
21362WAT     H164328   7.531   1.951   8.024
21362WAT     H264329   7.598   2.055   8.131
21363WAT      O64330   0.675   1.344   6.876
21363WAT     H164331   0.732   1.280   6.825
21363WAT     H264332   0.732   1.394   6.942
21364WAT      O64333   7.726   1.506   6.482
21364WAT     H164334   7.718   1.449   6.564
21364WAT     H264335   7.803   1.474   6.427
21365WAT      O64336   6.294   2.084   7.326
21365WAT     H164337   6.248   2.052   7.409
21365WAT     H264338   6.317   2.005   7.269
21366WAT      O64339   5.914   2.174   9.446
21366WAT     H164340   5.864   2.087   9.445
21366WAT     H264341   5.879   2.232   9.519
21367WAT      O64342   1.770   7.329   3.665
21367WAT     H164343   1.828   7.410   3.657
21367WAT     H264344   1.699   7.346   3.734
21368WAT      O64345   7.294   3.162   9.491
21368WAT     H164346   7.242   3.165   9.406
21368WAT     H264347   7.300   3.254   9.530
21369WAT      O64348   0.484   7.803   2.307
21369WAT     H164349   0.434   7.884   2.338
21369WAT     H264350   0.475   7.730   2.374
21370WAT      O64351   6.309   2.225   7.868
21370WAT     H164352   6.281   2.306   7.817
21370WAT     H264353   6.387   2.183   7.823
21371WAT      O64354   3.248   4.964   3.803
21371WAT     H164355   3.287   4.977   3.894
21371WAT     H264356   3.309   5.003   3.734
21372WAT      O64357   0.646   1.142   2.022
21372WAT     H164358   0.693   1.179   1.942
21372WAT     H264359   0.644   1.042   2.016
21373WAT      O64360   0.855   8.495   9.111
21373WAT     H164361   0.780   8.528   9.169
21373WAT     H264362   0.818   8.434   9.041
21374WAT      O64363   0.904   4.513   4.138
21374WAT     H164364   0.875   4.469   4.223
21374WAT     H264365   0.895   4.448   4.062
21375WAT      O64366   7.521   5.019   0.678
21375WAT     H164367   7.505   4.932   0.632
21375WAT     H264368   7.433   5.061   0.701
21376WAT      O64369   3.943   6.109   4.705
21376WAT     H164370   4.000   6.037   4.744
21376WAT     H264371   4.002   6.176   4.659
21377WAT      O64372   0.237   3.127   7.330
21377WAT     H164373   0.278   3.180   7.404
21377WAT     H264374   0.303   3.118   7.255
21378WAT      O64375   9.348   2.114   9.699
21378WAT     H164376   9.324   2.209   9.678
21378WAT     H264377   9.392   2.109   9.789
21379WAT      O64378   3.738   0.894   7.921
21379WAT     H164379   3.732   0.814   7.980
21379WAT     H264380   3.788   0.966   7.969
21380WAT      O64381   2.445   4.624   3.043
21380WAT     H164382   2.461   4.719   3.018
21380WAT     H264383   2.521   4.568   3.011
21381WAT      O64384   0.170   1.742   6.640
21381WAT     H164385   0.259   1.769   6.605
21381WAT     H264386   0.168   1.644   6.656
21382WAT      O64387   3.685   9.546   5.455
21382WAT     H164388   3.727   9.625   5.411
21382WAT     H264389   3.626   9.576   5.530
21383WAT      O64390   7.068   5.674   9.319
21383WAT     H164391   7.010   5.706   9.394
21383WAT     H264392   7.041   5.582   9.293
21384WAT      O64393   2.621   0.527   5.256
21384WAT     H164394   2.592   0.495   5.346
21384WAT     H264395   2.558   0.598   5.225
21385WAT      O64396   4.311   7.521   8.234
21385WAT     H164397   4.304   7.545   8.331
21385WAT     H264398   4.342   7.600   8.182
21386WAT      O64399   6.977   0.933   8.036
21386WAT     H164400   7.077   0.930   8.037
21386WAT     H264401   6.947   1.027   8.053
21387WAT      O64402   2.499   9.038   5.569
21387WAT     H164403   2.502   9.077   5.661
21387WAT     H264404   2.583   8.986   5.552
21388WAT      O64405   4.373   8.515   0.920
21388WAT     H164406   4.459   8.564   0.905
21388WAT     H264407   4.298   8.581   0.927
21389WAT      O64408   1.860   7.980   2.319
21389WAT     H164409   1.773   7.932   2.324
21389WAT     H264410   1.934   7.914   2.308
21390WAT      O64411   1.278   1.884   6.915
21390WAT     H164412   1.314   1.928   6.833
21390WAT     H264413   1.189   1.844   6.894
21391WAT      O64414   9.563   5.568   7.533
21391WAT     H164415   9.607   5.526   7.613
21391WAT     H264416   9.601   5.659   7.518
21392WAT      O64417   5.733   7.595   8.423
21392WAT     H164418   5.731   7.500   8.453
21392WAT     H264419   5.828   7.624   8.409
21393WAT      O64420   6.112   8.776   5.816
21393WAT     H164421   6.181   8.780   5.888
21393WAT     H264422   6.149   8.816   5.732
21394WAT      O64423   5.661   2.601   7.675
21394WAT     H164424   5.631   2.675   7.735
21394WAT     H264425   5.733   2.549   7.721
21395WAT      O64426   5.492   2.162   9.877
21395WAT     H164427   5.582   2.202   9.895
21395WAT     H264428   5.421   2.215   9.924
21396WAT      O64429   7.631   2.616   5.221
21396WAT     H164430   7.694   2.683   5.262
21396WAT     H264431   7.584   2.658   5.144
21397WAT      O64432   3.679   8.934   7.212
21397WAT     H164433   3.647   8.840   7.209
21397WAT     H264434   3.762   8.939   7.267
21398WAT      O64435   6.087   1.520   9.063
21398WAT     H164436   6.171   1.474   9.091
21398WAT     H264437   6.082   1.610   9.108
21399WAT      O64438   0.110   6.491   4.273
21399WAT     H164439   0.042   6.532   4.335
21399WAT     H264440   0.065   6.466   4.187
21400WAT      O64441   4.376   7.937   3.940
21400WAT     H164442   4.403   8.008   3.875
21400WAT     H264443   4.318   7.871   3.894
21401WAT      O64444   7.793   1.836   4.702
21401WAT     H164445   7.773   1.756   4.758
21401WAT     H264446   7.863   1.812   4.634
21402WAT      O64447   9.143   9.040   7.916
21402WAT     H164448   9.111   9.119   7.969
21402WAT     H264449   9.196   9.072   7.838
21403WAT      O64450   0.033   5.227   2.734
21403WAT     H164451   0.020   5.317   2.775
21403WAT     H264452  -0.056   5.182   2.725
21404WAT      O64453   6.300   7.576   3.569
21404WAT     H164454   6.245   7.623   3.638
21404WAT     H264455   6.384   7.542   3.611
21405WAT      O64456   2.407   0.255   7.514
21405WAT     H164457   2.477   0.274   7.583
21405WAT     H264458   2.366   0.342   7.484
21406WAT      O64459   9.579   8.107   9.596
21406WAT     H164460   9.593   8.008   9.592
21406WAT     H264461   9.657   8.153   9.552
21407WAT      O64462   9.266   5.443   5.993
21407WAT     H164463   9.323   5.361   5.993
21407WAT     H264464   9.290   5.500   5.914
21408WAT      O64465   8.542   7.095   1.123
21408WAT     H164466   8.624   7.152   1.115
21408WAT     H264467   8.556   7.027   1.195
21409WAT      O64468   2.421   4.508   0.945
21409WAT     H164469   2.338   4.454   0.958
21409WAT     H264470   2.420   4.551   0.855
21410WAT      O64471   6.931   6.108   4.301
21410WAT     H164472   6.868   6.179   4.270
21410WAT     H264473   6.967   6.058   4.223
21411WAT      O64474   3.687   3.731   2.909
21411WAT     H164475   3.665   3.805   2.973
21411WAT     H264476   3.687   3.644   2.957
21412WAT      O64477   5.176   6.273   2.668
21412WAT     H164478   5.261   6.220   2.665
21412WAT     H264479   5.155   6.296   2.762
21413WAT      O64480   1.373   0.563   8.299
21413WAT     H164481   1.343   0.502   8.373
21413WAT     H264482   1.421   0.509   8.230
21414WAT      O64483   1.675   1.272   6.366
21414WAT     H164484   1.675   1.220   6.281
21414WAT     H264485   1.649   1.213   6.442
21415WAT      O64486   6.651   8.981   5.267
21415WAT     H164487   6.711   9.062   5.269
21415WAT     H264488   6.691   8.912   5.206
21416WAT      O64489   3.433   8.595   2.249
21416WAT     H164490   3.422   8.501   2.217
21416WAT     H264491   3.392   8.658   2.184
21417WAT      O64492   0.511   4.140   6.982
21417WAT     H164493   0.573   4.130   7.060
21417WAT     H264494   0.564   4.149   6.898
21418WAT      O64495   7.450   6.221   9.657
21418WAT     H164496   7.447   6.121   9.650
21418WAT     H264497   7.520   6.248   9.723
21419WAT      O64498   0.178   3.298   1.123
21419WAT     H164499   0.276   3.287   1.105
21419WAT     H264500   0.132   3.326   1.040
21420WAT      O64501   2.668   4.364   5.570
21420WAT     H164502   2.725   4.318   5.639
21420WAT     H264503   2.572   4.346   5.588
21421WAT      O64504   0.974   5.686   0.325
21421WAT     H164505   0.894   5.656   0.376
21421WAT     H264506   1.040   5.728   0.387
21422WAT      O64507   1.190   5.195   6.854
21422WAT     H164508   1.288   5.190   6.838
21422WAT     H264509   1.168   5.159   6.944
21423WAT      O64510   5.019   8.630   8.024
21423WAT     H164511   4.957   8.645   8.101
21423WAT     H264512   5.025   8.714   7.970
21424WAT      O64513   9.779   8.761   5.242
21424WAT     H164514   9.868   8.722   5.264
21424WAT     H264515   9.717   8.688   5.213
21425WAT      O64516   3.934   7.399   2.019
21425WAT     H164517   4.009   7.379   2.081
21425WAT     H264518   3.880   7.316   2.004
21426WAT      O64519   6.477   6.365   4.452
21426WAT     H164520   6.408   6.418   4.401
21426WAT     H264521   6.443   6.346   4.544
21427WAT      O64522   8.882   1.991   1.186
21427WAT     H164523   8.830   2.044   1.120
21427WAT     H264524   8.917   1.907   1.142
21428WAT      O64525   0.386   2.966   7.654
21428WAT     H164526   0.484   2.982   7.657
21428WAT     H264527   0.360   2.937   7.562
21429WAT      O64528   8.083   7.693   5.933
21429WAT     H164529   8.142   7.766   5.969
21429WAT     H264530   7.988   7.711   5.957
21430WAT      O64531   6.960   7.135   3.714
21430WAT     H164532   6.922   7.159   3.803
21430WAT     H264533   7.033   7.199   3.691
21431WAT      O64534   2.188   4.573   5.684
21431WAT     H164535   2.231   4.658   5.653
21431WAT     H264536   2.151   4.586   5.776
21432WAT      O64537   2.088   9.539   2.978
21432WAT     H164538   2.082   9.453   2.927
21432WAT     H264539   2.081   9.616   2.915
21433WAT      O64540   1.286   9.041   1.664
21433WAT     H164541   1.317   8.952   1.699
21433WAT     H264542   1.362   9.085   1.615
21434WAT      O64543   7.484   3.583   9.068
21434WAT     H164544   7.455   3.626   8.982
21434WAT     H264545   7.403   3.560   9.122
21435WAT      O64546   7.207   8.091   8.696
21435WAT     H164547   7.230   8.082   8.599
21435WAT     H264548   7.240   8.179   8.730
21436WAT      O64549   2.317   4.736   0.277
21436WAT     H164550   2.361   4.768   0.362
21436WAT     H264551   2.381   4.744   0.201
21437WAT      O64552   2.026   5.637   9.579
21437WAT     H164553   1.938   5.676   9.550
21437WAT     H264554   2.050   5.671   9.670
21438WAT      O64555   1.093   2.982   4.964
21438WAT     H164556   1.119   2.900   4.914
21438WAT     H264557   1.119   3.063   4.911
21439WAT      O64558   7.255   1.915   5.202
21439WAT     H164559   7.269   1.994   5.142
21439WAT     H264560   7.194   1.850   5.157
21440WAT      O64561   4.131   5.026   2.321
21440WAT     H164562   4.145   4.966   2.399
21440WAT     H264563   4.081   5.107   2.350
21441WAT      O64564   3.541   5.946   5.491
21441WAT     H164565   3.570   6.031   5.447
21441WAT     H264566   3.567   5.868   5.434
21442WAT      O64567   6.857   3.371   1.777
21442WAT     H164568   6.859   3.471   1.771
21442WAT     H264569   6.771   3.336   1.739
21443WAT      O64570   3.034   9.243   5.288
21443WAT     H164571   3.105   9.303   5.253
21443WAT     H264572   3.076   9.159   5.323
21444WAT      O64573   6.339   7.556   5.362
21444WAT     H164574   6.280   7.576   5.440
21444WAT     H264575   6.308   7.607   5.282
21445WAT      O64576   4.156   8.794   1.643
21445WAT     H164577   4.062   8.780   1.675
21445WAT     H264578   4.180   8.890   1.651
21446WAT      O64579   8.803   6.436   4.860
21446WAT     H164580   8.765   6.435   4.953
21446WAT     H264581   8.799   6.344   4.822
21447WAT      O64582   0.885   0.515   7.041
21447WAT     H164583   0.877   0.517   6.941
21447WAT     H264584   0.793   0.518   7.081
21448WAT      O64585   4.642   4.594   9.540
21448WAT     H164586   4.721   4.535   9.554
21448WAT     H264587   4.672   4.686   9.518
21449WAT      O64588   8.536   9.501   6.656
21449WAT     H164589   8.544   9.559   6.574
21449WAT     H264590   8.527   9.559   6.737
21450WAT      O64591   1.527   6.115   1.334
21450WAT     H164592   1.606   6.142   1.279
21450WAT     H264593   1.522   6.172   1.416
21451WAT      O64594   0.618   5.543   1.168
21451WAT     H164595   0.534   5.558   1.117
21451WAT     H264596   0.597   5.498   1.255
21452WAT      O64597   0.539   7.910   7.044
21452WAT     H164598   0.458   7.851   7.039
21452WAT     H264599   0.589   7.906   6.958
21453WAT      O64600   3.633   3.455   6.497
21453WAT     H164601   3.675   3.452   6.588
21453WAT     H264602   3.701   3.487   6.430
21454WAT      O64603   4.138   7.064   0.868
21454WAT     H164604   4.153   7.130   0.941
21454WAT     H264605   4.101   7.111   0.788
21455WAT      O64606   6.025   8.374   7.198
21455WAT     H164607   6.044   8.276   7.201
21455WAT     H264608   5.942   8.394   7.250
21456WAT      O64609   0.112   6.858   7.239
21456WAT     H164610   0.075   6.839   7.148
21456WAT     H264611   0.146   6.773   7.280
21457WAT      O64612   5.009   1.197   7.858
21457WAT     H164613   5.032   1.101   7.842
21457WAT     H264614   4.960   1.234   7.779
21458WAT      O64615   1.603   2.353   1.785
21458WAT     H164616   1.528   2.406   1.746
21458WAT     H264617   1.688   2.374   1.735
21459WAT      O64618   0.708   5.894   5.375
21459WAT     H164619   0.727   5.880   5.278
21459WAT     H264620   0.758   5.974   5.408
21460WAT      O64621   2.044   3.456   1.828
21460WAT     H164622   2.080   3.368   1.858
21460WAT     H264623   2.040   3.519   1.905
21461WAT      O64624   4.333   3.442   0.500
21461WAT     H164625   4.242   3.413   0.531
21461WAT     H264626   4.398   3.437   0.575
21462WAT      O64627   6.182   2.985   6.380
21462WAT     H164628   6.240   3.046   6.325
21462WAT     H264629   6.209   2.993   6.476
21463WAT      O64630   2.649   6.411   6.167
21463WAT     H164631   2.718   6.423   6.238
21463WAT     H264632   2.562   6.385   6.209
21464WAT      O64633   0.346   1.323   2.895
21464WAT     H164634   0.345   1.338   2.796
21464WAT     H264635   0.422   1.374   2.935
21465WAT      O64636   8.153   5.078   7.021
21465WAT     H164637   8.117   5.170   7.004
21465WAT     H264638   8.179   5.070   7.117
21466WAT      O64639   2.865   7.038   3.030
21466WAT     H164640   2.842   7.098   2.953
21466WAT     H264641   2.958   7.059   3.061
21467WAT      O64642   4.590   6.024   2.590
21467WAT     H164643   4.676   6.042   2.638
21467WAT     H264644   4.558   5.931   2.611
21468WAT      O64645   9.525   5.736   3.890
21468WAT     H164646   9.570   5.718   3.978
21468WAT     H264647   9.576   5.808   3.842
21469WAT      O64648   5.818   3.823   5.889
21469WAT     H164649   5.914   3.799   5.881
21469WAT     H264650   5.794   3.889   5.817
21470WAT      O64651   6.372   9.509   5.662
21470WAT     H164652   6.315   9.566   5.722
21470WAT     H264653   6.437   9.457   5.717
21471WAT      O64654   7.197   7.430   0.642
21471WAT     H164655   7.294   7.435   0.668
21471WAT     H264656   7.178   7.497   0.570
21472WAT      O64657   4.185   5.879   2.033
21472WAT     H164658   4.187   5.780   2.015
21472WAT     H264659   4.091   5.907   2.053
21473WAT      O64660   3.856   1.557   7.737
21473WAT     H164661   3.826   1.641   7.693
21473WAT     H264662   3.818   1.478   7.689
21474WAT      O64663   8.393   1.196   7.854
21474WAT     H164664   8.397   1.211   7.755
21474WAT     H264665   8.311   1.238   7.892
21475WAT      O64666   2.453   9.769   3.983
21475WAT     H164667   2.495   9.700   4.042
21475WAT     H264668   2.436   9.853   4.035
21476WAT      O64669   2.048   6.939   3.181
21476WAT     H164670   2.055   6.964   3.277
21476WAT     H264671   1.973   6.873   3.169
21477WAT      O64672   5.705   4.454   6.757
21477WAT     H164673   5.644   4.504   6.818
21477WAT     H264674   5.693   4.487   6.663
21478WAT      O64675   4.559   2.941   4.489
21478WAT     H164676   4.459   2.945   4.484
21478WAT     H264677   4.598   2.969   4.402
21479WAT      O64678   7.825   9.074   3.350
21479WAT     H164679   7.880   9.125   3.416
21479WAT     H264680   7.758   9.136   3.308
21480WAT      O64681   8.615   4.623   5.059
21480WAT     H164682   8.609   4.720   5.037
21480WAT     H264683   8.648   4.572   4.980
21481WAT      O64684   5.427   0.593   6.065
21481WAT     H164685   5.458   0.687   6.050
21481WAT     H264686   5.342   0.578   6.015
21482WAT      O64687   0.988   9.239   8.744
21482WAT     H164688   0.997   9.212   8.840
21482WAT     H264689   0.984   9.157   8.687
21483WAT      O64690   7.598   0.797   8.575
21483WAT     H164691   7.599   0.804   8.475
21483WAT     H264692   7.574   0.886   8.614
21484WAT      O64693   6.294   4.474   2.916
21484WAT     H164694   6.291   4.386   2.868
21484WAT     H264695   6.389   4.496   2.938
21485WAT      O64696   1.569   7.160   4.930
21485WAT     H164697   1.515   7.077   4.914
21485WAT     H264698   1.656   7.154   4.881
21486WAT      O64699   3.768   4.780   4.450
21486WAT     H164700   3.706   4.840   4.501
21486WAT     H264701   3.747   4.685   4.472
21487WAT      O64702   3.755   0.694   8.121
21487WAT     H164703   3.849   0.689   8.156
21487WAT     H264704   3.718   0.602   8.110
21488WAT      O64705   0.149   8.384   0.090
21488WAT     H164706   0.183   8.448   0.021
21488WAT     H264707   0.202   8.394   0.174
21489WAT      O64708   5.115   2.772   7.594
21489WAT     H164709   5.090   2.714   7.671
21489WAT     H264710   5.038   2.779   7.530
21490WAT      O64711   4.818   4.188   7.700
21490WAT     H164712   4.884   4.163   7.629
21490WAT     H264713   4.791   4.106   7.750
21491WAT      O64714   4.555   5.051   3.272
21491WAT     H164715   4.629   5.012   3.216
21491WAT     H264716   4.480   5.079   3.212
21492WAT      O64717   5.708   2.407   4.537
21492WAT     H164718   5.742   2.397   4.631
21492WAT     H264719   5.784   2.397   4.473
21493WAT      O64720   5.185   5.857   3.887
21493WAT     H164721   5.163   5.822   3.979
21493WAT     H264722   5.274   5.821   3.859
21494WAT      O64723   7.447   9.457   0.505
21494WAT     H164724   7.374   9.394   0.530
21494WAT     H264725   7.524   9.446   0.568
21495WAT      O64726   1.926   4.063   8.492
21495WAT     H164727   1.974   4.040   8.408
21495WAT     H264728   1.981   4.035   8.571
21496WAT      O64729   3.275   1.154   2.868
21496WAT     H164730   3.233   1.153   2.777
21496WAT     H264731   3.364   1.108   2.864
21497WAT      O64732   9.789   3.360   8.552
21497WAT     H164733   9.877   3.408   8.550
21497WAT     H264734   9.798   3.273   8.503
21498WAT      O64735   1.878   5.963   4.740
21498WAT     H164736   1.810   5.940   4.671
21498WAT     H264737   1.967   5.974   4.697
21499WAT      O64738   6.832   1.501   5.684
21499WAT     H164739   6.835   1.412   5.638
21499WAT     H264740   6.780   1.565   5.628
21500WAT      O64741   0.026   6.947   2.474
21500WAT     H164742   0.009   6.881   2.546
21500WAT     H264743   0.034   7.039   2.514
21501WAT      O64744   3.727   3.441   1.890
21501WAT     H164745   3.741   3.342   1.890
21501WAT     H264746   3.815   3.487   1.893
21502WAT      O64747   3.365   6.550   6.860
21502WAT     H164748   3.399   6.546   6.766
21502WAT     H264749   3.297   6.623   6.869
21503WAT      O64750   5.652   1.882   0.535
21503WAT     H164751   5.613   1.922   0.451
21503WAT     H264752   5.589   1.814   0.571
21504WAT      O64753   8.393   4.575   9.047
21504WAT     H164754   8.299   4.585   9.012
21504WAT     H264755   8.434   4.666   9.056
21505WAT      O64756   2.753   3.505   5.704
21505WAT     H164757   2.768   3.473   5.798
21505WAT     H264758   2.736   3.426   5.645
21506WAT      O64759   7.435   6.908   4.752
21506WAT     H164760   7.507   6.973   4.729
21506WAT     H264761   7.370   6.952   4.814
21507WAT      O64762   3.771   5.126   0.706
21507WAT     H164763   3.750   5.117   0.803
21507WAT     H264764   3.870   5.137   0.695
21508WAT      O64765   3.538   2.310   3.744
21508WAT     H164766   3.517   2.402   3.778
21508WAT     H264767   3.605   2.267   3.805
21509WAT      O64768   4.855   1.595   7.607
21509WAT     H164769   4.937   1.652   7.615
21509WAT     H264770   4.775   1.655   7.596
21510WAT      O64771   5.525   1.923   5.587
21510WAT     H164772   5.482   1.989   5.526
21510WAT     H264773   5.455   1.868   5.632
21511WAT      O64774   1.653   1.101   2.201
21511WAT     H164775   1.664   1.182   2.259
21511WAT     H264776   1.621   1.130   2.111
21512WAT      O64777   3.982   5.616   7.868
21512WAT     H164778   3.886   5.593   7.856
21512WAT     H264779   4.002   5.627   7.966
21513WAT      O64780   8.323   3.907   7.126
21513WAT     H164781   8.308   4.003   7.148
21513WAT     H264782   8.280   3.885   7.039
21514WAT      O64783   1.078   0.818   9.526
21514WAT     H164784   0.997   0.763   9.509
21514WAT     H264785   1.072   0.861   9.616
21515WAT      O64786   5.444   3.626   2.660
21515WAT     H164787   5.494   3.684   2.595
21515WAT     H264788   5.417   3.541   2.615
21516WAT      O64789   0.236   7.637   8.633
21516WAT     H164790   0.296   7.566   8.595
21516WAT     H264791   0.253   7.723   8.585
21517WAT      O64792   4.172   0.353   7.843
21517WAT     H164793   4.235   0.386   7.914
21517WAT     H264794   4.188   0.255   7.828
21518WAT      O64795   1.958   0.491   7.805
21518WAT     H164796   2.042   0.445   7.837
21518WAT     H264797   1.885   0.424   7.797
21519WAT      O64798   3.533   7.459   5.811
21519WAT     H164799   3.433   7.462   5.810
21519WAT     H264800   3.566   7.438   5.903
21520WAT      O64801   3.062   6.428   6.741
21520WAT     H164802   3.050   6.463   6.834
21520WAT     H264803   3.071   6.504   6.677
21521WAT      O64804   5.493   8.094   6.517
21521WAT     H164805   5.590   8.084   6.537
21521WAT     H264806   5.453   8.162   6.580
21522WAT      O64807   8.350   0.893   0.463
21522WAT     H164808   8.346   0.913   0.561
21522WAT     H264809   8.258   0.902   0.423
21523WAT      O64810   9.470   1.809   3.838
21523WAT     H164811   9.439   1.838   3.748
21523WAT     H264812   9.391   1.790   3.897
21524WAT      O64813   4.563   8.540   0.304
21524WAT     H164814   4.627   8.616   0.308
21524WAT     H264815   4.472   8.574   0.278
21525WAT      O64816   1.066   9.513   9.891
21525WAT     H164817   1.158   9.477   9.879
21525WAT     H264818   1.012   9.495   9.809
21526WAT      O64819   3.995   4.381   6.379
21526WAT     H164820   3.966   4.473   6.352
21526WAT     H264821   3.919   4.317   6.368
21527WAT      O64822   9.514   4.533   8.137
21527WAT     H164823   9.551   4.546   8.045
21527WAT     H264824   9.567   4.588   8.202
21528WAT      O64825   0.760   7.773   4.218
21528WAT     H164826   0.829   7.766   4.146
21528WAT     H264827   0.670   7.783   4.177
21529WAT      O64828   1.718   3.439   6.878
21529WAT     H164829   1.760   3.363   6.828
21529WAT     H264830   1.626   3.413   6.907
21530WAT      O64831   5.686   2.946   3.852
21530WAT     H164832   5.592   2.945   3.887
21530WAT     H264833   5.740   3.011   3.906
21531WAT      O64834   1.376   0.948   5.623
21531WAT     H164835   1.291   0.930   5.574
21531WAT     H264836   1.360   1.016   5.694
21532WAT      O64837   9.591   9.194   1.334
21532WAT     H164838   9.506   9.216   1.286
21532WAT     H264839   9.644   9.277   1.347
21533WAT      O64840   0.593   8.561   9.216
21533WAT     H164841   0.594   8.593   9.121
21533WAT     H264842   0.545   8.473   9.221
21534WAT      O64843   0.137   4.127   4.951
21534WAT     H164844   0.104   4.049   4.897
21534WAT     H264845   0.074   4.204   4.940
21535WAT      O64846   2.463   1.269   4.640
21535WAT     H164847   2.437   1.228   4.727
21535WAT     H264848   2.545   1.224   4.605
21536WAT      O64849   3.310   0.623   8.281
21536WAT     H164850   3.381   0.594   8.347
21536WAT     H264851   3.346   0.612   8.188
21537WAT      O64852   2.998   4.237   2.532
21537WAT     H164853   3.059   4.184   2.591
21537WAT     H264854   2.904   4.224   2.562
21538WAT      O64855   1.584   9.752   3.188
21538WAT     H164856   1.668   9.743   3.134
21538WAT     H264857   1.567   9.849   3.208
21539WAT      O64858   8.939   8.962   0.024
21539WAT     H164859   9.017   8.988   0.081
21539WAT     H264860   8.930   9.026  -0.052
21540WAT      O64861   8.178   8.586   7.472
21540WAT     H164862   8.244   8.611   7.402
21540WAT     H264863   8.174   8.658   7.541
21541WAT      O64864   6.475   1.201   0.894
21541WAT     H164865   6.454   1.137   0.967
21541WAT     H264866   6.391   1.226   0.846
21542WAT      O64867   3.268   8.665   1.719
21542WAT     H164868   3.315   8.753   1.706
21542WAT     H264869   3.302   8.598   1.654
21543WAT      O64870   2.530   1.805   4.270
21543WAT     H164871   2.463   1.751   4.218
21543WAT     H264872   2.493   1.895   4.290
21544WAT      O64873   2.414   0.703   8.914
21544WAT     H164874   2.465   0.703   8.828
21544WAT     H264875   2.428   0.791   8.961
21545WAT      O64876   3.991   3.922   6.368
21545WAT     H164877   4.008   3.855   6.296
21545WAT     H264878   3.963   3.876   6.452
21546WAT      O64879   5.260   2.315   9.212
21546WAT     H164880   5.305   2.362   9.136
21546WAT     H264881   5.330   2.273   9.271
21547WAT      O64882   5.186   3.957   7.460
21547WAT     H164883   5.195   3.919   7.368
21547WAT     H264884   5.108   4.019   7.463
21548WAT      O64885   5.497   2.669   8.880
21548WAT     H164886   5.538   2.598   8.824
21548WAT     H264887   5.423   2.713   8.829
21549WAT      O64888   5.518   8.496   5.574
21549WAT     H164889   5.456   8.541   5.509
21549WAT     H264890   5.522   8.398   5.553
21550WAT      O64891   0.516   1.015   0.347
21550WAT     H164892   0.572   1.018   0.264
21550WAT     H264893   0.566   0.968   0.419
21551WAT      O64894   2.496   8.308   2.214
21551WAT     H164895   2.496   8.275   2.120
21551WAT     H264896   2.558   8.385   2.223
21552WAT      O64897   8.646   3.660   8.830
21552WAT     H164898   8.668   3.676   8.926
21552WAT     H264899   8.729   3.667   8.775
21553WAT      O64900   1.401   5.086   9.199
21553WAT     H164901   1.489   5.074   9.154
21553WAT     H264902   1.328   5.059   9.136
21554WAT      O64903   9.665   3.537   0.481
21554WAT     H164904   9.634   3.629   0.507
21554WAT     H264905   9.647   3.473   0.556
21555WAT      O64906   4.966   0.787   1.274
21555WAT     H164907   4.976   0.778   1.373
21555WAT     H264908   4.891   0.850   1.253
21556WAT      O64909   4.569   4.519   0.030
21556WAT     H164910   4.519   4.566   0.103
21556WAT     H264911   4.563   4.420   0.043
21557WAT      O64912   0.451   3.677   4.313
21557WAT     H164913   0.366   3.632   4.284
21557WAT     H264914   0.433   3.733   4.394
21558WAT      O64915   7.544   7.811   1.517
21558WAT     H164916   7.529   7.851   1.427
21558WAT     H264917   7.537   7.883   1.587
21559WAT      O64918   7.288   5.905   0.278
21559WAT     H164919   7.292   5.972   0.204
21559WAT     H264920   7.350   5.829   0.258
21560WAT      O64921   0.381   8.370   3.105
21560WAT     H164922   0.478   8.376   3.129
21560WAT     H264923   0.331   8.445   3.147
21561WAT      O64924   7.320   4.155   2.221
21561WAT     H164925   7.237   4.208   2.237
21561WAT     H264926   7.296   4.061   2.197
21562WAT      O64927   2.206   2.619   1.351
21562WAT     H164928   2.110   2.629   1.322
21562WAT     H264929   2.257   2.700   1.324
21563WAT      O64930   9.322   6.371   4.268
21563WAT     H164931   9.255   6.432   4.310
21563WAT     H264932   9.274   6.309   4.205
21564WAT      O64933   2.371   7.384   8.617
21564WAT     H164934   2.362   7.366   8.519
21564WAT     H264935   2.375   7.483   8.633
21565WAT      O64936   0.979   5.122   1.371
21565WAT     H164937   1.059   5.096   1.318
21565WAT     H264938   0.985   5.219   1.396
21566WAT      O64939   7.080   5.076   7.493
21566WAT     H164940   7.096   5.113   7.401
21566WAT     H264941   7.134   4.993   7.506
21567WAT      O64942   0.750   5.234   0.613
21567WAT     H164943   0.655   5.262   0.596
21567WAT     H264944   0.752   5.170   0.689
21568WAT      O64945   3.429   8.190   3.102
21568WAT     H164946   3.422   8.099   3.141
21568WAT     H264947   3.524   8.221   3.103
21569WAT      O64948   8.527   4.464   9.254
21569WAT     H164949   8.513   4.523   9.334
21569WAT     H264950   8.474   4.499   9.177
21570WAT      O64951   8.367   2.463   3.940
21570WAT     H164952   8.338   2.386   3.997
21570WAT     H264953   8.457   2.495   3.970
21571WAT      O64954   4.811   0.710   8.676
21571WAT     H164955   4.871   0.789   8.662
21571WAT     H264956   4.780   0.676   8.587
21572WAT      O64957   8.172   4.543   2.726
21572WAT     H164958   8.249   4.582   2.777
21572WAT     H264959   8.105   4.507   2.791
21573WAT      O64960   2.261   4.592   3.679
21573WAT     H164961   2.309   4.511   3.711
21573WAT     H264962   2.198   4.567   3.606
21574WAT      O64963   3.603   5.835   1.498
21574WAT     H164964   3.597   5.815   1.400
21574WAT     H264965   3.661   5.766   1.542
21575WAT      O64966   8.608   1.029   3.743
21575WAT     H164967   8.701   1.045   3.778
21575WAT     H264968   8.565   1.116   3.722
21576WAT      O64969   2.374   8.974   6.809
21576WAT     H164970   2.296   8.912   6.814
21576WAT     H264971   2.370   9.024   6.723
21577WAT      O64972   8.165   3.120   3.065
21577WAT     H164973   8.091   3.147   3.002
21577WAT     H264974   8.215   3.043   3.026
21578WAT      O64975   4.610   6.931   6.601
21578WAT     H164976   4.602   6.955   6.697
21578WAT     H264977   4.609   7.015   6.546
21579WAT      O64978   3.050   0.632   7.183
21579WAT     H164979   3.030   0.683   7.099
21579WAT     H264980   3.139   0.587   7.174
21580WAT      O64981   4.318   4.507   6.471
21580WAT     H164982   4.277   4.498   6.380
21580WAT     H264983   4.376   4.427   6.488
21581WAT      O64984   8.775   3.912   5.223
21581WAT     H164985   8.786   4.008   5.199
21581WAT     H264986   8.717   3.867   5.155
21582WAT      O64987   0.209   4.799   2.148
21582WAT     H164988   0.253   4.846   2.224
21582WAT     H264989   0.188   4.705   2.174
21583WAT      O64990   0.711   7.004   9.643
21583WAT     H164991   0.767   6.921   9.643
21583WAT     H264992   0.771   7.085   9.646
21584WAT      O64993   3.925   5.274   6.432
21584WAT     H164994   3.873   5.313   6.356
21584WAT     H264995   3.999   5.217   6.396
21585WAT      O64996   1.397   0.554   3.717
21585WAT     H164997   1.476   0.509   3.676
21585WAT     H264998   1.324   0.564   3.649
21586WAT      O64999   5.116   3.705   5.507
21586WAT     H165000   5.167   3.663   5.583
21586WAT     H265001   5.175   3.708   5.426
21587WAT      O65002   0.984   3.853   3.300
21587WAT     H165003   0.936   3.765   3.297
21587WAT     H265004   0.936   3.916   3.361
21588WAT      O65005   8.136   5.983   1.662
21588WAT     H165006   8.082   6.009   1.743
21588WAT     H265007   8.086   6.008   1.579
21589WAT      O65008   1.333   2.463   3.834
21589WAT     H165009   1.361   2.465   3.738
21589WAT     H265010   1.375   2.385   3.880
21590WAT      O65011   8.313   1.130   1.662
21590WAT     H165012   8.403   1.175   1.660
21590WAT     H265013   8.324   1.038   1.700
21591WAT      O65014   0.666   1.363   0.307
21591WAT     H165015   0.730   1.389   0.234
21591WAT     H265016   0.574   1.352   0.267
21592WAT      O65017   5.138   5.903   0.952
21592WAT     H165018   5.051   5.935   0.990
21592WAT     H265019   5.129   5.808   0.923
21593WAT      O65020   3.425   3.820   1.822
21593WAT     H165021   3.479   3.826   1.738
21593WAT     H265022   3.466   3.753   1.884
21594WAT      O65023   2.799   1.146   1.677
21594WAT     H165024   2.861   1.079   1.717
21594WAT     H265025   2.705   1.127   1.708
21595WAT      O65026   3.007   8.943   5.836
21595WAT     H165027   3.004   8.887   5.919
21595WAT     H265028   3.004   8.883   5.756
21596WAT      O65029   0.724   9.611   5.045
21596WAT     H165030   0.720   9.613   5.145
21596WAT     H265031   0.715   9.705   5.010
21597WAT      O65032   9.067   3.207   9.297
21597WAT     H165033   9.113   3.208   9.386
21597WAT     H265034   8.971   3.182   9.310
21598WAT      O65035   7.716   3.216   8.407
21598WAT     H165036   7.663   3.217   8.491
21598WAT     H265037   7.694   3.133   8.355
21599WAT      O65038   5.670   8.919   8.741
21599WAT     H165039   5.689   8.961   8.652
21599WAT     H265040   5.572   8.909   8.752
21600WAT      O65041   4.173   6.693   5.070
21600WAT     H165042   4.194   6.615   5.012
21600WAT     H265043   4.195   6.670   5.165
21601WAT      O65044   6.632   6.187   8.481
21601WAT     H165045   6.597   6.250   8.550
21601WAT     H265046   6.614   6.223   8.390
21602WAT      O65047   5.349   5.998   1.909
21602WAT     H165048   5.425   5.975   1.848
21602WAT     H265049   5.336   5.924   1.975
21603WAT      O65050   9.376   3.631   7.928
21603WAT     H165051   9.452   3.594   7.980
21603WAT     H265052   9.330   3.703   7.981
21604WAT      O65053   7.751   8.607   3.618
21604WAT     H165054   7.755   8.677   3.546
21604WAT     H265055   7.658   8.605   3.656
21605WAT      O65056   0.613   2.718   8.607
21605WAT     H165057   0.582   2.773   8.530
21605WAT     H265058   0.649   2.631   8.575
21606WAT      O65059   3.336   2.119   6.688
21606WAT     H165060   3.378   2.087   6.603
21606WAT     H265061   3.401   2.177   6.737
21607WAT      O65062   8.487   9.344   8.759
21607WAT     H165063   8.429   9.290   8.820
21607WAT     H265064   8.546   9.404   8.814
21608WAT      O65065   2.507   7.502   1.560
21608WAT     H165066   2.587   7.491   1.620
21608WAT     H265067   2.537   7.507   1.465
21609WAT      O65068   1.315   3.166   2.793
21609WAT     H165069   1.243   3.236   2.792
21609WAT     H265070   1.335   3.138   2.699
21610WAT      O65071   3.858   6.961   0.130
21610WAT     H165072   3.911   6.888   0.086
21610WAT     H265073   3.842   7.034   0.064
21611WAT      O65074   4.909   1.280   2.550
21611WAT     H165075   4.996   1.234   2.572
21611WAT     H265076   4.834   1.214   2.556
21612WAT      O65077   4.707   6.156   7.499
21612WAT     H165078   4.740   6.229   7.559
21612WAT     H265079   4.785   6.108   7.459
21613WAT      O65080   1.820   0.904   6.125
21613WAT     H165081   1.884   0.851   6.069
21613WAT     H265082   1.733   0.912   6.078
21614WAT      O65083   7.439   4.750   0.550
21614WAT     H165084   7.501   4.781   0.478
21614WAT     H265085   7.462   4.656   0.576
21615WAT      O65086   7.919   9.507   7.536
21615WAT     H165087   7.928   9.466   7.626
21615WAT     H265088   7.980   9.460   7.472
21616WAT      O65089   2.480   6.622   9.062
21616WAT     H165090   2.413   6.574   9.119
21616WAT     H265091   2.508   6.707   9.106
21617WAT      O65092   9.772   5.381   5.287
21617WAT     H165093   9.862   5.379   5.244
21617WAT     H265094   9.717   5.454   5.245
21618WAT      O65095   9.230   3.745   2.974
21618WAT     H165096   9.263   3.685   3.047
21618WAT     H265097   9.306   3.768   2.912
21619WAT      O65098   8.932   0.911   9.095
21619WAT     H165099   8.956   0.972   9.171
21619WAT     H265100   9.010   0.854   9.072
21620WAT      O65101   0.048   9.659   7.375
21620WAT     H165102   0.046   9.759   7.377
21620WAT     H265103   0.143   9.628   7.376
21621WAT      O65104   8.324   1.242   1.113
21621WAT     H165105   8.252   1.307   1.088
21621WAT     H265106   8.290   1.181   1.185
21622WAT      O65107   2.605   5.367   3.414
21622WAT     H165108   2.639   5.343   3.323
21622WAT     H265109   2.682   5.393   3.472
21623WAT      O65110   4.178   1.952   7.549
21623WAT     H165111   4.178   1.886   7.624
21623WAT     H265112   4.250   2.020   7.565
21624WAT      O65113   5.851   1.316   0.401
21624WAT     H165114   5.818   1.239   0.456
21624WAT     H265115   5.782   1.388   0.399
21625WAT      O65116   1.459   6.547   4.021
21625WAT     H165117   1.487   6.480   3.952
21625WAT     H265118   1.539   6.598   4.053
21626WAT      O65119   2.322   4.420   9.208
21626WAT     H165120   2.365   4.456   9.126
21626WAT     H265121   2.272   4.336   9.186
21627WAT      O65122   5.287   8.747   6.125
21627WAT     H165123   5.330   8.758   6.035
21627WAT     H265124   5.217   8.818   6.136
21628WAT      O65125   9.284   4.162   6.311
21628WAT     H165126   9.273   4.085   6.373
21628WAT     H265127   9.229   4.147   6.229
21629WAT      O65128   0.689   7.018   6.053
21629WAT     H165129   0.711   7.114   6.068
21629WAT     H265130   0.773   6.963   6.060
21630WAT      O65131   9.854   2.758   8.876
21630WAT     H165132   9.792   2.710   8.814
21630WAT     H265133   9.946   2.719   8.870
21631WAT      O65134   7.283   1.246   7.823
21631WAT     H165135   7.267   1.150   7.804
21631WAT     H265136   7.363   1.256   7.882
21632WAT      O65137   6.904   0.053   2.267
21632WAT     H165138   6.895   0.089   2.360
21632WAT     H265139   6.821   0.075   2.215
21633WAT      O65140   8.046   9.149   3.486
21633WAT     H165141   8.085   9.238   3.463
21633WAT     H265142   8.115   9.078   3.475
21634WAT      O65143   8.263   2.393   7.661
21634WAT     H165144   8.185   2.346   7.702
21634WAT     H265145   8.235   2.486   7.635
21635WAT      O65146   3.992   7.376   1.576
21635WAT     H165147   3.951   7.425   1.653
21635WAT     H265148   3.940   7.393   1.493
21636WAT      O65149   8.255   5.863   2.525
21636WAT     H165150   8.338   5.808   2.535
21636WAT     H265151   8.181   5.805   2.492
21637WAT      O65152   8.280   4.788   4.040
21637WAT     H165153   8.370   4.819   4.010
21637WAT     H265154   8.215   4.863   4.033
21638WAT      O65155   9.257   9.721   1.249
21638WAT     H165156   9.322   9.650   1.280
21638WAT     H265157   9.292   9.763   1.165
21639WAT      O65158   7.110   9.461   5.603
21639WAT     H165159   7.197   9.429   5.565
21639WAT     H265160   7.124   9.494   5.697
21640WAT      O65161   7.491   4.560   5.071
21640WAT     H165162   7.461   4.515   5.156
21640WAT     H265163   7.535   4.492   5.012
21641WAT      O65164   6.666   0.973   3.501
21641WAT     H165165   6.626   0.963   3.410
21641WAT     H265166   6.765   0.981   3.493
21642WAT      O65167   7.457   7.906   3.750
21642WAT     H165168   7.486   7.852   3.829
21642WAT     H265169   7.431   7.846   3.675
21643WAT      O65170   6.584   7.310   8.330
21643WAT     H165171   6.669   7.296   8.280
21643WAT     H265172   6.508   7.270   8.279
21644WAT      O65173   3.754   4.877   3.710
21644WAT     H165174   3.847   4.877   3.673
21644WAT     H265175   3.689   4.854   3.637
21645WAT      O65176   2.522   6.867   7.023
21645WAT     H165177   2.511   6.837   6.928
21645WAT     H265178   2.442   6.839   7.076
21646WAT      O65179   4.887   7.380   2.294
21646WAT     H165180   4.868   7.429   2.379
21646WAT     H265181   4.820   7.306   2.282
21647WAT      O65182   1.210   9.558   1.307
21647WAT     H165183   1.195   9.471   1.354
21647WAT     H265184   1.233   9.541   1.211
21648WAT      O65185   0.540   7.215   7.629
21648WAT     H165186   0.636   7.223   7.602
21648WAT     H265187   0.483   7.263   7.563
21649WAT      O65188   1.555   9.246   5.993
21649WAT     H165189   1.597   9.155   5.990
21649WAT     H265190   1.543   9.279   5.899
21650WAT      O65191   6.526   6.327   5.004
21650WAT     H165192   6.471   6.279   5.072
21650WAT     H265193   6.560   6.262   4.936
21651WAT      O65194   4.654   2.951   0.920
21651WAT     H165195   4.605   2.931   0.836
21651WAT     H265196   4.724   2.881   0.936
21652WAT      O65197   4.706   9.385   7.059
21652WAT     H165198   4.689   9.481   7.035
21652WAT     H265199   4.720   9.378   7.158
21653WAT      O65200   9.800   0.505   6.669
21653WAT     H165201   9.721   0.460   6.628
21653WAT     H265202   9.787   0.512   6.768
21654WAT      O65203   7.754   1.151   1.255
21654WAT     H165204   7.758   1.197   1.343
21654WAT     H265205   7.842   1.106   1.237
21655WAT      O65206   4.704   6.927   6.242
21655WAT     H165207   4.755   6.843   6.259
21655WAT     H265208   4.685   6.937   6.144
21656WAT      O65209   3.956   5.271   9.232
21656WAT     H165210   4.044   5.310   9.208
21656WAT     H265211   3.884   5.309   9.173
21657WAT      O65212   4.992   4.442   6.221
21657WAT     H165213   4.902   4.418   6.258
21657WAT     H265214   5.015   4.535   6.250
21658WAT      O65215   7.597   1.400   8.819
21658WAT     H165216   7.670   1.429   8.757
21658WAT     H265217   7.614   1.307   8.851
21659WAT      O65218   2.883   1.890   9.419
21659WAT     H165219   2.933   1.977   9.421
21659WAT     H265220   2.946   1.815   9.437
21660WAT      O65221   4.153   8.771   4.150
21660WAT     H165222   4.106   8.695   4.105
21660WAT     H265223   4.120   8.782   4.243
21661WAT      O65224   4.978   6.766   4.278
21661WAT     H165225   4.970   6.744   4.375
21661WAT     H265226   4.918   6.706   4.225
21662WAT      O65227   8.124   4.855   8.243
21662WAT     H165228   8.134   4.949   8.275
21662WAT     H265229   8.171   4.844   8.156
21663WAT      O65230   9.210   5.290   6.894
21663WAT     H165231   9.266   5.359   6.940
21663WAT     H265232   9.232   5.289   6.797
21664WAT      O65233   2.080   8.700   7.996
21664WAT     H165234   1.980   8.690   7.988
21664WAT     H265235   2.112   8.646   8.074
21665WAT      O65236   3.841   4.939   7.212
21665WAT     H165237   3.909   4.930   7.139
21665WAT     H265238   3.752   4.961   7.171
21666WAT      O65239   2.875   2.021   0.234
21666WAT     H165240   2.859   2.119   0.245
21666WAT     H265241   2.937   1.989   0.305
21667WAT      O65242   3.869   7.322   4.736
21667WAT     H165243   3.799   7.285   4.674
21667WAT     H265244   3.829   7.395   4.792
21668WAT      O65245   5.956   7.762   1.106
21668WAT     H165246   5.867   7.758   1.152
21668WAT     H265247   6.029   7.744   1.173
21669WAT      O65248   5.000   9.457   9.036
21669WAT     H165249   5.030   9.367   9.068
21669WAT     H265250   5.061   9.528   9.072
21670WAT      O65251   8.621   6.196   8.595
21670WAT     H165252   8.586   6.105   8.615
21670WAT     H265253   8.547   6.263   8.598
21671WAT      O65254   8.857   3.286   1.910
21671WAT     H165255   8.912   3.208   1.880
21671WAT     H265256   8.762   3.272   1.884
21672WAT      O65257   0.867   3.677   2.465
21672WAT     H165258   0.877   3.592   2.413
21672WAT     H265259   0.940   3.740   2.440
21673WAT      O65260   8.498   1.594   9.559
21673WAT     H165261   8.454   1.592   9.469
21673WAT     H265262   8.472   1.678   9.606
21674WAT      O65263   6.389   3.586   1.331
21674WAT     H165264   6.403   3.627   1.421
21674WAT     H265265   6.343   3.497   1.342
21675WAT      O65266   7.260   0.896   8.012
21675WAT     H165267   7.239   0.801   8.036
21675WAT     H265268   7.359   0.906   8.004
21676WAT      O65269   9.759   8.592   6.280
21676WAT     H165270   9.692   8.520   6.299
21676WAT     H265271   9.771   8.649   6.361
21677WAT      O65272   5.732   6.109   7.532
21677WAT     H165273   5.668   6.032   7.543
21677WAT     H265274   5.680   6.193   7.515
21678WAT      O65275   8.743   9.208   3.596
21678WAT     H165276   8.816   9.259   3.642
21678WAT     H265277   8.681   9.271   3.551
21679WAT      O65278   1.163   6.485   1.849
21679WAT     H165279   1.099   6.525   1.783
21679WAT     H265280   1.174   6.548   1.926
21680WAT      O65281   6.070   6.353   4.732
21680WAT     H165282   6.017   6.345   4.648
21680WAT     H265283   6.026   6.418   4.794
21681WAT      O65284   0.778   7.772   5.963
21681WAT     H165285   0.863   7.806   6.003
21681WAT     H265286   0.708   7.843   5.969
21682WAT      O65287   8.736   8.641   5.015
21682WAT     H165288   8.671   8.653   5.091
21682WAT     H265289   8.829   8.640   5.052
21683WAT      O65290   3.130   1.557   5.894
21683WAT     H165291   3.132   1.556   5.994
21683WAT     H265292   3.108   1.465   5.861
21684WAT      O65293   2.407   6.143   5.774
21684WAT     H165294   2.424   6.070   5.840
21684WAT     H265295   2.414   6.231   5.820
21685WAT      O65296   5.605   2.973   7.074
21685WAT     H165297   5.535   3.019   7.129
21685WAT     H265298   5.654   2.907   7.132
21686WAT      O65299   2.765   0.635   3.080
21686WAT     H165300   2.842   0.588   3.036
21686WAT     H265301   2.768   0.620   3.178
21687WAT      O65302   2.267   3.411   1.308
21687WAT     H165303   2.346   3.436   1.251
21687WAT     H265304   2.291   3.335   1.368
21688WAT      O65305   0.842   5.310   5.561
21688WAT     H165306   0.804   5.396   5.595
21688WAT     H265307   0.848   5.313   5.461
21689WAT      O65308   1.858   5.297   3.872
21689WAT     H165309   1.856   5.227   3.943
21689WAT     H265310   1.764   5.323   3.848
21690WAT      O65311   1.576   7.339   6.014
21690WAT     H165312   1.542   7.313   5.924
21690WAT     H265313   1.652   7.403   6.003
21691WAT      O65314   6.902   4.991   5.970
21691WAT     H165315   6.859   5.064   5.917
21691WAT     H265316   6.887   5.006   6.067
21692WAT      O65317   3.898   8.878   3.939
21692WAT     H165318   3.835   8.890   4.016
21692WAT     H265319   3.893   8.785   3.905
21693WAT      O65320   8.966   6.207   3.698
21693WAT     H165321   9.021   6.268   3.640
21693WAT     H265322   8.957   6.118   3.653
21694WAT      O65323   2.760   3.036   7.674
21694WAT     H165324   2.777   3.123   7.722
21694WAT     H265325   2.735   2.966   7.741
21695WAT      O65326   3.256   5.706   4.485
21695WAT     H165327   3.175   5.749   4.445
21695WAT     H265328   3.266   5.735   4.580
21696WAT      O65329   6.436   2.971   9.072
21696WAT     H165330   6.369   3.027   9.122
21696WAT     H265331   6.388   2.914   9.005
21697WAT      O65332   9.388   3.882   6.107
21697WAT     H165333   9.295   3.884   6.145
21697WAT     H265334   9.413   3.972   6.074
21698WAT      O65335   6.431   3.969   1.197
21698WAT     H165336   6.471   3.916   1.272
21698WAT     H265337   6.437   4.066   1.217
21699WAT      O65338   9.028   6.115   4.940
21699WAT     H165339   9.097   6.121   5.012
21699WAT     H265340   8.937   6.120   4.981
21700WAT      O65341   4.739   6.121   0.108
21700WAT     H165342   4.714   6.212   0.142
21700WAT     H265343   4.695   6.105   0.019
21701WAT      O65344   2.001   5.070   0.473
21701WAT     H165345   2.045   5.031   0.392
21701WAT     H265346   2.015   5.009   0.551
21702WAT      O65347   2.678   7.804   0.820
21702WAT     H165348   2.610   7.763   0.760
21702WAT     H265349   2.769   7.773   0.792
21703WAT      O65350   3.515   0.235   3.544
21703WAT     H165351   3.552   0.323   3.513
21703WAT     H265352   3.543   0.218   3.638
21704WAT      O65353   6.947   6.513   1.532
21704WAT     H165354   7.037   6.555   1.542
21704WAT     H265355   6.946   6.423   1.576
21705WAT      O65356   2.013   6.722   9.891
21705WAT     H165357   2.002   6.660   9.814
21705WAT     H265358   2.001   6.673   9.977
21706WAT      O65359   9.596   4.908   9.476
21706WAT     H165360   9.674   4.955   9.517
21706WAT     H265361   9.525   4.895   9.545
21707WAT      O65362   0.606   8.676   7.828
21707WAT     H165363   0.669   8.619   7.880
21707WAT     H265364   0.656   8.753   7.787
21708WAT      O65365   5.372   9.246   2.348
21708WAT     H165366   5.297   9.312   2.352
21708WAT     H265367   5.339   9.156   2.376
21709WAT      O65368   5.013   5.356   5.758
21709WAT     H165369   5.002   5.257   5.767
21709WAT     H265370   5.069   5.376   5.677
21710WAT      O65371   0.550   7.009   1.306
21710WAT     H165372   0.622   6.947   1.335
21710WAT     H265373   0.506   7.049   1.386
21711WAT      O65374   5.762   8.249   9.184
21711WAT     H165375   5.845   8.281   9.229
21711WAT     H265376   5.761   8.282   9.089
21712WAT      O65377   9.809   3.142   8.395
21712WAT     H165378   9.831   3.122   8.300
21712WAT     H265379   9.732   3.085   8.424
21713WAT      O65380   2.323   6.482   5.610
21713WAT     H165381   2.390   6.538   5.562
21713WAT     H265382   2.236   6.485   5.562
21714WAT      O65383   6.995   0.380   1.782
21714WAT     H165384   6.897   0.363   1.777
21714WAT     H265385   7.022   0.442   1.708
21715WAT      O65386   3.060   7.096   0.787
21715WAT     H165387   3.053   7.186   0.742
21715WAT     H265388   2.969   7.063   0.809
21716WAT      O65389   8.323   2.791   2.140
21716WAT     H165390   8.297   2.878   2.098
21716WAT     H265391   8.268   2.717   2.100
21717WAT      O65392   2.008   2.735   4.128
21717WAT     H165393   1.992   2.648   4.175
21717WAT     H265394   1.921   2.772   4.096
21718WAT      O65395   2.654   0.755   6.692
21718WAT     H165396   2.657   0.846   6.734
21718WAT     H265397   2.575   0.749   6.631
21719WAT      O65398   3.258   2.822   4.229
21719WAT     H165399   3.243   2.746   4.166
21719WAT     H265400   3.356   2.844   4.231
21720WAT      O65401   3.212   4.071   2.954
21720WAT     H165402   3.230   4.105   3.046
21720WAT     H265403   3.114   4.058   2.942
21721WAT      O65404   2.914   1.247   9.807
21721WAT     H165405   2.892   1.189   9.886
21721WAT     H265406   3.014   1.255   9.799
21722WAT      O65407   6.399   7.913   0.469
21722WAT     H165408   6.485   7.938   0.512
21722WAT     H265409   6.368   7.825   0.504
21723WAT      O65410   9.891   4.934   6.063
21723WAT     H165411   9.905   4.922   5.965
21723WAT     H265412   9.794   4.944   6.082
21724WAT      O65413   8.435   5.857   4.524
21724WAT     H165414   8.434   5.941   4.578
21724WAT     H265415   8.528   5.840   4.491
21725WAT      O65416   8.479   3.783   3.194
21725WAT     H165417   8.525   3.834   3.122
21725WAT     H265418   8.394   3.829   3.218
21726WAT      O65419   5.229   7.318   9.753
21726WAT     H165420   5.244   7.235   9.808
21726WAT     H265421   5.132   7.327   9.731
21727WAT      O65422   6.750   3.380   0.045
21727WAT     H165423   6.790   3.456   0.096
21727WAT     H265424   6.815   3.349  -0.025
21728WAT      O65425   8.634   3.465   5.237
21728WAT     H165426   8.613   3.375   5.198
21728WAT     H265427   8.692   3.453   5.318
21729WAT      O65428   8.286   5.155  -0.003
21729WAT     H165429   8.219   5.161   0.071
21729WAT     H265430   8.350   5.080   0.016
21730WAT      O65431   3.370   3.918   0.634
21730WAT     H165432   3.373   4.016   0.613
21730WAT     H265433   3.362   3.905   0.732
21731WAT      O65434   8.761   1.979   7.169
21731WAT     H165435   8.748   1.912   7.096
21731WAT     H265436   8.858   1.985   7.192
21732WAT      O65437   4.225   6.095   5.269
21732WAT     H165438   4.323   6.080   5.285
21732WAT     H265439   4.206   6.088   5.171
21733WAT      O65440   9.508   5.611   8.863
21733WAT     H165441   9.441   5.598   8.790
21733WAT     H265442   9.565   5.690   8.843
21734WAT      O65443   1.600   3.713   8.960
21734WAT     H165444   1.538   3.785   8.929
21734WAT     H265445   1.654   3.746   9.037
21735WAT      O65446   2.676   8.023   8.605
21735WAT     H165447   2.736   8.100   8.583
21735WAT     H265448   2.665   8.016   8.704
21736WAT      O65449   9.448   8.441   0.892
21736WAT     H165450   9.461   8.488   0.805
21736WAT     H265451   9.521   8.374   0.905
21737WAT      O65452   2.434   5.562   3.292
21737WAT     H165453   2.503   5.631   3.273
21737WAT     H265454   2.478   5.479   3.326
21738WAT      O65455   4.507   0.341   0.603
21738WAT     H165456   4.456   0.376   0.524
21738WAT     H265457   4.573   0.410   0.632
21739WAT      O65458   9.723   0.610   5.963
21739WAT     H165459   9.682   0.644   6.048
21739WAT     H265460   9.690   0.666   5.886
21740WAT      O65461   1.864   1.498   3.654
21740WAT     H165462   1.812   1.583   3.661
21740WAT     H265463   1.952   1.509   3.702
21741WAT      O65464   7.919   9.052   3.943
21741WAT     H165465   7.933   9.089   4.035
21741WAT     H265466   8.007   9.029   3.902
21742WAT      O65467   8.981   0.842   2.811
21742WAT     H165468   8.979   0.883   2.720
21742WAT     H265469   8.902   0.873   2.864
21743WAT      O65470   5.326   0.075   7.647
21743WAT     H165471   5.266   0.043   7.720
21743WAT     H265472   5.420   0.079   7.681
21744WAT      O65473   1.519   9.491   2.817
21744WAT     H165474   1.537   9.553   2.740
21744WAT     H265475   1.486   9.403   2.782
21745WAT      O65476   9.389   7.184   6.547
21745WAT     H165477   9.379   7.098   6.597
21745WAT     H265478   9.411   7.258   6.610
21746WAT      O65479   9.737   5.521   4.497
21746WAT     H165480   9.831   5.540   4.466
21746WAT     H265481   9.721   5.422   4.495
21747WAT      O65482   0.551   4.941   5.663
21747WAT     H165483   0.621   5.009   5.685
21747WAT     H265484   0.572   4.855   5.708
21748WAT      O65485   1.066   5.355   7.538
21748WAT     H165486   1.158   5.384   7.562
21748WAT     H265487   1.048   5.265   7.579
21749WAT      O65488   8.826   1.587   2.340
21749WAT     H165489   8.848   1.497   2.378
21749WAT     H265490   8.911   1.639   2.326
21750WAT      O65491   1.086   6.468   1.388
21750WAT     H165492   1.112   6.559   1.356
21750WAT     H265493   1.044   6.417   1.313
21751WAT      O65494   9.254   7.976   7.265
21751WAT     H165495   9.179   8.041   7.251
21751WAT     H265496   9.219   7.883   7.258
21752WAT      O65497   7.430   3.569   6.093
21752WAT     H165498   7.398   3.624   6.016
21752WAT     H265499   7.482   3.627   6.156
21753WAT      O65500   2.238   9.631   7.994
21753WAT     H165501   2.237   9.560   7.924
21753WAT     H265502   2.331   9.641   8.030
21754WAT      O65503   1.729   4.515   0.293
21754WAT     H165504   1.807   4.493   0.234
21754WAT     H265505   1.666   4.438   0.296
21755WAT      O65506   4.330   3.469   3.581
21755WAT     H165507   4.288   3.475   3.672
21755WAT     H265508   4.422   3.509   3.584
21756WAT      O65509   6.544   6.731   1.959
21756WAT     H165510   6.531   6.805   1.894
21756WAT     H265511   6.457   6.686   1.977
21757WAT      O65512   5.499   6.536   4.401
21757WAT     H165513   5.547   6.535   4.313
21757WAT     H265514   5.506   6.626   4.442
21758WAT      O65515   5.337   1.119   7.065
21758WAT     H165516   5.388   1.203   7.046
21758WAT     H265517   5.383   1.041   7.023
21759WAT      O65518   3.976   7.226   2.372
21759WAT     H165519   4.029   7.155   2.418
21759WAT     H265520   3.990   7.314   2.417
21760WAT      O65521   6.650   6.899   6.125
21760WAT     H165522   6.581   6.971   6.119
21760WAT     H265523   6.741   6.939   6.116
21761WAT      O65524   0.098   8.650   7.710
21761WAT     H165525   0.195   8.627   7.706
21761WAT     H265526   0.053   8.592   7.778
21762WAT      O65527   5.339   1.133   8.627
21762WAT     H165528   5.292   1.213   8.665
21762WAT     H265529   5.302   1.050   8.668
21763WAT      O65530   8.488   5.729   2.535
21763WAT     H165531   8.582   5.730   2.569
21763WAT     H265532   8.487   5.752   2.438
21764WAT      O65533   2.059   8.207   5.809
21764WAT     H165534   1.991   8.235   5.878
21764WAT     H265535   2.150   8.217   5.847
21765WAT      O65536   4.748   2.622   5.906
21765WAT     H165537   4.740   2.533   5.861
21765WAT     H265538   4.829   2.670   5.873
21766WAT      O65539   0.128   6.042   9.380
21766WAT     H165540   0.224   6.056   9.404
21766WAT     H265541   0.102   5.948   9.401
21767WAT      O65542   1.263   3.403   5.008
21767WAT     H165543   1.315   3.488   5.014
21767WAT     H265544   1.226   3.393   4.916
21768WAT      O65545   9.776   3.964   6.298
21768WAT     H165546   9.869   3.968   6.260
21768WAT     H265547   9.712   3.937   6.226
21769WAT      O65548   1.699   3.478   5.264
21769WAT     H165549   1.654   3.520   5.343
21769WAT     H265550   1.681   3.380   5.264
21770WAT      O65551   3.405   7.968   3.875
21770WAT     H165552   3.381   8.019   3.958
21770WAT     H265553   3.327   7.913   3.846
21771WAT      O65554   2.346   8.141   3.872
21771WAT     H165555   2.275   8.137   3.802
21771WAT     H265556   2.366   8.049   3.905
21772WAT      O65557   9.675   3.848   8.461
21772WAT     H165558   9.586   3.864   8.419
21772WAT     H265559   9.673   3.762   8.512
21773WAT      O65560   6.731   5.612   5.197
21773WAT     H165561   6.766   5.656   5.114
21773WAT     H265562   6.755   5.516   5.197
21774WAT      O65563   9.769   7.527   2.665
21774WAT     H165564   9.798   7.623   2.666
21774WAT     H265565   9.796   7.485   2.579
21775WAT      O65566   2.292   9.130   5.021
21775WAT     H165567   2.291   9.055   4.956
21775WAT     H265568   2.386   9.150   5.048
21776WAT      O65569   7.287   2.201   2.988
21776WAT     H165570   7.340   2.285   2.981
21776WAT     H265571   7.217   2.212   3.058
21777WAT      O65572   0.168   7.803   5.005
21777WAT     H165573   0.120   7.885   5.036
21777WAT     H265574   0.258   7.799   5.047
21778WAT      O65575   1.939   3.897   5.261
21778WAT     H165576   1.999   3.885   5.340
21778WAT     H265577   1.860   3.952   5.286
21779WAT      O65578   6.303   4.240   2.820
21779WAT     H165579   6.329   4.163   2.879
21779WAT     H265580   6.323   4.216   2.725
21780WAT      O65581   2.156   7.310   3.900
21780WAT     H165582   2.158   7.297   3.801
21780WAT     H265583   2.075   7.265   3.938
21781WAT      O65584   6.729   0.706   7.690
21781WAT     H165585   6.697   0.720   7.596
21781WAT     H265586   6.752   0.610   7.703
21782WAT      O65587   6.386   6.670   4.095
21782WAT     H165588   6.455   6.636   4.031
21782WAT     H265589   6.418   6.756   4.135
21783WAT      O65590   4.836   8.060   4.239
21783WAT     H165591   4.854   8.062   4.141
21783WAT     H265592   4.745   8.097   4.258
21784WAT      O65593   3.035   4.033   7.202
21784WAT     H165594   3.048   4.049   7.104
21784WAT     H265595   2.957   3.973   7.217
21785WAT      O65596   1.643   5.482   9.590
21785WAT     H165597   1.690   5.425   9.522
21785WAT     H265598   1.571   5.428   9.634
21786WAT      O65599   3.094   4.741   5.864
21786WAT     H165600   2.999   4.768   5.853
21786WAT     H265601   3.099   4.646   5.895
21787WAT      O65602   6.402   0.106   1.981
21787WAT     H165603   6.456   0.039   1.930
21787WAT     H265604   6.327   0.060   2.028
21788WAT      O65605   8.036   4.480   4.244
21788WAT     H165606   8.110   4.547   4.245
21788WAT     H265607   8.067   4.396   4.200
21789WAT      O65608   4.985   8.340   8.713
21789WAT     H165609   5.079   8.322   8.741
21789WAT     H265610   4.985   8.384   8.623
21790WAT      O65611   5.383   7.436   4.092
21790WAT     H165612   5.296   7.477   4.066
21790WAT     H265613   5.458   7.488   4.050
21791WAT      O65614   7.014   7.831   6.088
21791WAT     H165615   7.050   7.920   6.116
21791WAT     H265616   7.079   7.759   6.113
21792WAT      O65617   1.586   7.103   6.113
21792WAT     H165618   1.595   7.193   6.070
21792WAT     H265619   1.492   7.071   6.102
21793WAT      O65620   2.412   0.480   0.031
21793WAT     H165621   2.495   0.478   0.086
21793WAT     H265622   2.336   0.515   0.086
21794WAT      O65623   7.847   6.130   6.837
21794WAT     H165624   7.889   6.044   6.867
21794WAT     H265625   7.910   6.179   6.778
21795WAT      O65626   0.503   8.295   1.499
21795WAT     H165627   0.457   8.223   1.447
21795WAT     H265628   0.463   8.384   1.478
21796WAT      O65629   3.547   8.371   9.883
21796WAT     H165630   3.503   8.422   9.808
21796WAT     H265631   3.500   8.284   9.896
21797WAT      O65632   1.863   7.700   5.024
21797WAT     H165633   1.814   7.693   4.938
21797WAT     H265634   1.850   7.615   5.077
21798WAT      O65635   6.010   7.203   2.518
21798WAT     H165636   5.913   7.191   2.497
21798WAT     H265637   6.059   7.117   2.501
21799WAT      O65638   6.472   3.649   1.084
21799WAT     H165639   6.429   3.591   1.014
21799WAT     H265640   6.432   3.629   1.173
21800WAT      O65641   3.079   8.393   2.492
21800WAT     H165642   2.996   8.339   2.487
21800WAT     H265643   3.107   8.404   2.587
21801WAT      O65644   8.861   5.508   5.467
21801WAT     H165645   8.885   5.434   5.405
21801WAT     H265646   8.911   5.497   5.553
21802WAT      O65647   4.714   4.688   5.840
21802WAT     H165648   4.727   4.688   5.939
21802WAT     H265649   4.637   4.630   5.816
21803WAT      O65650   5.857   3.307   1.698
21803WAT     H165651   5.956   3.321   1.695
21803WAT     H265652   5.835   3.217   1.662
21804WAT      O65653   3.659   1.666   6.159
21804WAT     H165654   3.560   1.667   6.169
21804WAT     H265655   3.700   1.728   6.226
21805WAT      O65656   7.812   4.942   9.471
21805WAT     H165657   7.893   4.986   9.432
21805WAT     H265658   7.732   5.000   9.458
21806WAT      O65659   8.225   8.126   0.966
21806WAT     H165660   8.205   8.203   0.905
21806WAT     H265661   8.262   8.050   0.912
21807WAT      O65662   0.645   9.534   6.604
21807WAT     H165663   0.726   9.593   6.596
21807WAT     H265664   0.628   9.514   6.700
21808WAT      O65665   8.153   3.169   6.190
21808WAT     H165666   8.056   3.186   6.205
21808WAT     H265667   8.173   3.174   6.092
21809WAT      O65668   7.002   2.483   6.968
21809WAT     H165669   6.947   2.523   7.041
21809WAT     H265670   6.968   2.391   6.947
21810WAT      O65671   9.533   5.605   0.719
21810WAT     H165672   9.603   5.619   0.649
21810WAT     H265673   9.443   5.597   0.675
21811WAT      O65674   0.621   3.162   2.598
21811WAT     H165675   0.577   3.125   2.680
21811WAT     H265676   0.551   3.186   2.531
21812WAT      O65677   3.470   5.332   2.554
21812WAT     H165678   3.430   5.245   2.525
21812WAT     H265679   3.536   5.363   2.486
21813WAT      O65680   2.931   5.087   6.618
21813WAT     H165681   2.842   5.132   6.627
21813WAT     H265682   2.919   4.988   6.613
21814WAT      O65683   6.854   6.524   8.873
21814WAT     H165684   6.785   6.453   8.888
21814WAT     H265685   6.826   6.583   8.797
21815WAT      O65686   2.488   9.461   7.267
21815WAT     H165687   2.521   9.383   7.319
21815WAT     H265688   2.399   9.441   7.228
21816WAT      O65689   6.385   4.084   2.592
21816WAT     H165690   6.414   3.988   2.592
21816WAT     H265691   6.463   4.143   2.572
21817WAT      O65692   6.416   9.181   3.910
21817WAT     H165693   6.443   9.085   3.918
21817WAT     H265694   6.400   9.203   3.813
21818WAT      O65695   1.993   5.255   6.229
21818WAT     H165696   1.906   5.304   6.228
21818WAT     H265697   1.998   5.193   6.151
21819WAT      O65698   6.520   0.515   3.603
21819WAT     H165699   6.489   0.598   3.650
21819WAT     H265700   6.535   0.443   3.670
21820WAT      O65701   1.146   9.105   0.603
21820WAT     H165702   1.101   9.070   0.685
21820WAT     H265703   1.195   9.031   0.557
21821WAT      O65704   4.754   2.911   3.259
21821WAT     H165705   4.692   2.937   3.184
21821WAT     H265706   4.820   2.985   3.274
21822WAT      O65707   1.160   3.640   4.362
21822WAT     H165708   1.201   3.549   4.363
21822WAT     H265709   1.175   3.684   4.451
21823WAT      O65710   4.456   8.156   0.192
21823WAT     H165711   4.430   8.090   0.263
21823WAT     H265712   4.375   8.197   0.152
21824WAT      O65713   8.577   8.944   1.326
21824WAT     H165714   8.525   8.995   1.257
21824WAT     H265715   8.607   8.857   1.287
21825WAT      O65716   5.413   4.628   0.371
21825WAT     H165717   5.479   4.655   0.302
21825WAT     H265718   5.373   4.539   0.348
21826WAT      O65719   6.510   1.108   5.351
21826WAT     H165720   6.424   1.146   5.316
21826WAT     H265721   6.546   1.169   5.422
21827WAT      O65722   5.219   7.676   4.403
21827WAT     H165723   5.152   7.716   4.341
21827WAT     H265724   5.173   7.640   4.485
21828WAT      O65725   1.236   3.101   0.307
21828WAT     H165726   1.162   3.035   0.295
21828WAT     H265727   1.216   3.159   0.386
21829WAT      O65728   2.930   9.202   9.519
21829WAT     H165729   3.013   9.159   9.483
21829WAT     H265730   2.860   9.204   9.447
21830WAT      O65731   3.677   8.784   8.428
21830WAT     H165732   3.668   8.797   8.527
21830WAT     H265733   3.760   8.731   8.409
21831WAT      O65734   1.141   0.773   5.805
21831WAT     H165735   1.152   0.872   5.811
21831WAT     H265736   1.129   0.746   5.709
21832WAT      O65737   4.779   7.635   4.064
21832WAT     H165738   4.798   7.536   4.064
21832WAT     H265739   4.704   7.653   4.128
21833WAT      O65740   0.909   8.747   0.699
21833WAT     H165741   0.885   8.744   0.796
21833WAT     H265742   0.859   8.822   0.655
21834WAT      O65743   4.770   8.208   0.282
21834WAT     H165744   4.810   8.214   0.190
21834WAT     H265745   4.670   8.202   0.274
21835WAT      O65746   5.874   6.758   5.108
21835WAT     H165747   5.923   6.711   5.035
21835WAT     H265748   5.798   6.702   5.138
21836WAT      O65749   4.244   6.642   5.865
21836WAT     H165750   4.273   6.707   5.795
21836WAT     H265751   4.174   6.581   5.828
21837WAT      O65752   8.389   4.968   3.152
21837WAT     H165753   8.320   4.995   3.219
21837WAT     H265754   8.460   5.039   3.147
21838WAT      O65755   1.467   9.843   8.963
21838WAT     H165756   1.384   9.787   8.970
21838WAT     H265757   1.467   9.893   8.876
21839WAT      O65758   0.433   2.291   1.380
21839WAT     H165759   0.509   2.248   1.331
21839WAT     H265760   0.356   2.228   1.383
21840WAT      O65761   3.575   2.455   2.971
21840WAT     H165762   3.516   2.380   3.002
21840WAT     H265763   3.660   2.454   3.023
21841WAT      O65764   2.083   4.074   4.744
21841WAT     H165765   2.141   4.053   4.666
21841WAT     H265766   2.098   4.007   4.816
21842WAT      O65767   3.014   5.564   9.525
21842WAT     H165768   3.040   5.597   9.615
21842WAT     H265769   3.086   5.506   9.488
21843WAT      O65770   3.741   0.331   2.683
21843WAT     H165771   3.651   0.341   2.640
21843WAT     H265772   3.787   0.420   2.686
21844WAT      O65773   9.505   3.078   4.117
21844WAT     H165774   9.441   3.134   4.170
21844WAT     H265775   9.592   3.126   4.107
21845WAT      O65776   9.327   0.212   7.530
21845WAT     H165777   9.281   0.199   7.617
21845WAT     H265778   9.350   0.308   7.518
21846WAT      O65779   6.002   0.378   2.964
21846WAT     H165780   6.001   0.476   2.984
21846WAT     H265781   5.909   0.342   2.967
21847WAT      O65782   7.387   0.209   9.143
21847WAT     H165783   7.389   0.280   9.073
21847WAT     H265784   7.422   0.124   9.105
21848WAT      O65785   3.566   5.270   6.001
21848WAT     H165786   3.584   5.317   6.088
21848WAT     H265787   3.493   5.317   5.952
21849WAT      O65788   7.356   1.006   0.414
21849WAT     H165789   7.303   1.031   0.334
21849WAT     H265790   7.453   1.014   0.395
21850WAT      O65791   4.442   5.991   4.810
21850WAT     H165792   4.367   6.033   4.758
21850WAT     H265793   4.443   5.892   4.794
21851WAT      O65794   1.175   1.584   0.327
21851WAT     H165795   1.254   1.532   0.358
21851WAT     H265796   1.128   1.534   0.254
21852WAT      O65797   2.290   9.044   0.316
21852WAT     H165798   2.352   9.046   0.394
21852WAT     H265799   2.219   9.112   0.327
21853WAT      O65800   5.972   4.630   0.842
21853WAT     H165801   5.965   4.724   0.875
21853WAT     H265802   5.921   4.569   0.903
21854WAT      O65803   5.708   6.354   9.847
21854WAT     H165804   5.771   6.398   9.910
21854WAT     H265805   5.730   6.257   9.839
21855WAT      O65806   2.393   4.992   0.414
21855WAT     H165807   2.349   5.030   0.494
21855WAT     H265808   2.355   5.034   0.331
21856WAT      O65809   3.025   2.117   7.654
21856WAT     H165810   3.025   2.108   7.555
21856WAT     H265811   2.990   2.033   7.696
21857WAT      O65812   4.985   3.203   7.325
21857WAT     H165813   4.902   3.201   7.269
21857WAT     H265814   5.065   3.188   7.266
21858WAT      O65815   9.363   4.513   2.396
21858WAT     H165816   9.266   4.518   2.377
21858WAT     H265817   9.390   4.588   2.456
21859WAT      O65818   0.302   9.131   1.478
21859WAT     H165819   0.370   9.186   1.429
21859WAT     H265820   0.349   9.064   1.536
21860WAT      O65821   8.862   7.305   8.118
21860WAT     H165822   8.783   7.245   8.122
21860WAT     H265823   8.853   7.367   8.040
21861WAT      O65824   5.311   8.906   6.663
21861WAT     H165825   5.365   8.989   6.666
21861WAT     H265826   5.279   8.889   6.569
21862WAT      O65827   8.827   1.393   5.746
21862WAT     H165828   8.735   1.365   5.776
21862WAT     H265829   8.890   1.390   5.823
21863WAT      O65830   0.415   4.920   6.779
21863WAT     H165831   0.440   4.994   6.841
21863WAT     H265832   0.316   4.916   6.769
21864WAT      O65833   6.366   7.730   4.142
21864WAT     H165834   6.460   7.762   4.129
21864WAT     H265835   6.317   7.794   4.201
21865WAT      O65836   5.031   7.392   3.797
21865WAT     H165837   5.102   7.459   3.818
21865WAT     H265838   5.073   7.309   3.762
21866WAT      O65839   7.167   6.212   7.345
21866WAT     H165840   7.196   6.158   7.266
21866WAT     H265841   7.219   6.297   7.349
21867WAT      O65842   2.793   2.252   3.359
21867WAT     H165843   2.826   2.176   3.304
21867WAT     H265844   2.846   2.257   3.444
21868WAT      O65845   9.786   0.561   8.165
21868WAT     H165846   9.817   0.651   8.132
21868WAT     H265847   9.797   0.557   8.265
21869WAT      O65848   3.747   6.520   5.826
21869WAT     H165849   3.818   6.472   5.876
21869WAT     H265850   3.661   6.469   5.833
21870WAT      O65851   0.171   0.748   1.550
21870WAT     H165852   0.151   0.822   1.614
21870WAT     H265853   0.267   0.723   1.558
21871WAT      O65854   1.702   6.638   7.124
21871WAT     H165855   1.608   6.630   7.089
21871WAT     H265856   1.729   6.734   7.124
21872WAT      O65857   4.479   8.852   7.752
21872WAT     H165858   4.430   8.921   7.699
21872WAT     H265859   4.568   8.834   7.708
21873WAT      O65860   6.535   8.125   9.422
21873WAT     H165861   6.555   8.112   9.324
21873WAT     H265862   6.450   8.176   9.433
21874WAT      O65863   9.369   6.198   0.438
21874WAT     H165864   9.283   6.249   0.443
21874WAT     H265865   9.374   6.135   0.515
21875WAT      O65866   3.348   1.136   2.054
21875WAT     H165867   3.331   1.209   1.989
21875WAT     H265868   3.422   1.077   2.021
21876WAT      O65869   7.743   7.410   0.846
21876WAT     H165870   7.748   7.437   0.750
21876WAT     H265871   7.830   7.430   0.890
21877WAT      O65872   3.218   1.852   9.607
21877WAT     H165873   3.276   1.884   9.532
21877WAT     H265874   3.192   1.929   9.665
21878WAT      O65875   6.347   4.557   4.282
21878WAT     H165876   6.381   4.607   4.203
21878WAT     H265877   6.372   4.607   4.366
21879WAT      O65878   5.286   5.360   8.892
21879WAT     H165879   5.262   5.263   8.898
21879WAT     H265880   5.205   5.415   8.911
21880WAT      O65881   6.002   0.881   2.021
21880WAT     H165882   6.101   0.892   2.024
21880WAT     H265883   5.979   0.784   2.035
21881WAT      O65884   2.682   4.435   4.817
21881WAT     H165885   2.645   4.374   4.887
21881WAT     H265886   2.609   4.494   4.782
21882WAT      O65887   6.061   8.797   8.253
21882WAT     H165888   6.061   8.761   8.160
21882WAT     H265889   6.117   8.880   8.258
21883WAT      O65890   0.672   5.445   4.805
21883WAT     H165891   0.667   5.544   4.816
21883WAT     H265892   0.729   5.423   4.726
21884WAT      O65893   5.019   6.222   3.839
21884WAT     H165894   5.018   6.157   3.763
21884WAT     H265895   4.946   6.288   3.827
21885WAT      O65896   1.894   2.631   4.994
21885WAT     H165897   1.916   2.539   4.963
21885WAT     H265898   1.831   2.674   4.928
21886WAT      O65899   4.739   2.276   8.820
21886WAT     H165900   4.732   2.306   8.725
21886WAT     H265901   4.684   2.193   8.833
21887WAT      O65902   0.313   3.584   8.018
21887WAT     H165903   0.222   3.617   8.046
21887WAT     H265904   0.334   3.499   8.066
21888WAT      O65905   8.023   8.812   1.103
21888WAT     H165906   7.958   8.752   1.057
21888WAT     H265907   7.983   8.845   1.188
21889WAT      O65908   7.028   9.172   2.320
21889WAT     H165909   7.061   9.084   2.287
21889WAT     H265910   6.939   9.160   2.365
21890WAT      O65911   3.563   7.622   8.105
21890WAT     H165912   3.496   7.640   8.177
21890WAT     H265913   3.652   7.605   8.147
21891WAT      O65914   8.298   6.391   2.494
21891WAT     H165915   8.227   6.399   2.564
21891WAT     H265916   8.265   6.331   2.420
21892WAT      O65917   9.105   5.570   1.539
21892WAT     H165918   9.057   5.488   1.571
21892WAT     H265919   9.114   5.566   1.439
21893WAT      O65920   0.201   1.280   1.395
21893WAT     H165921   0.192   1.379   1.389
21893WAT     H265922   0.115   1.240   1.427
21894WAT      O65923   4.616   6.181   4.726
21894WAT     H165924   4.560   6.261   4.703
21894WAT     H265925   4.562   6.117   4.780
21895WAT      O65926   4.157   1.429   7.395
21895WAT     H165927   4.075   1.464   7.349
21895WAT     H265928   4.168   1.474   7.483
21896WAT      O65929   1.063   8.725   5.609
21896WAT     H165930   1.076   8.819   5.642
21896WAT     H265931   1.149   8.674   5.617
21897WAT      O65932   4.767   7.328   3.864
21897WAT     H165933   4.854   7.326   3.814
21897WAT     H265934   4.785   7.359   3.958
21898WAT      O65935   0.252   1.674   3.767
21898WAT     H165936   0.289   1.725   3.690
21898WAT     H265937   0.308   1.689   3.848
21899WAT      O65938   2.077   7.464   5.631
21899WAT     H165939   2.047   7.473   5.536
21899WAT     H265940   2.038   7.381   5.671
21900WAT      O65941   1.485   9.100   1.481
21900WAT     H165942   1.458   9.188   1.443
21900WAT     H265943   1.491   9.033   1.407
21901WAT      O65944   9.318   2.752   8.700
21901WAT     H165945   9.329   2.672   8.760
21901WAT     H265946   9.311   2.721   8.605
21902WAT      O65947   5.001   2.436   5.763
21902WAT     H165948   4.978   2.344   5.794
21902WAT     H265949   5.008   2.437   5.664
21903WAT      O65950   9.080   3.363   2.543
21903WAT     H165951   9.083   3.443   2.603
21903WAT     H265952   9.014   3.297   2.578
21904WAT      O65953   1.604   2.489   7.861
21904WAT     H165954   1.701   2.490   7.837
21904WAT     H265955   1.587   2.417   7.927
21905WAT      O65956   4.038   3.882   3.376
21905WAT     H165957   4.114   3.871   3.312
21905WAT     H265958   3.977   3.802   3.369
21906WAT      O65959   1.694   1.882   9.722
21906WAT     H165960   1.738   1.955   9.773
21906WAT     H265961   1.688   1.906   9.625
21907WAT      O65962   4.321   3.589   2.006
21907WAT     H165963   4.400   3.548   2.052
21907WAT     H265964   4.352   3.646   1.930
21908WAT      O65965   3.251   4.892   2.226
21908WAT     H165966   3.166   4.841   2.213
21908WAT     H265967   3.244   4.980   2.179
21909WAT      O65968   7.431   1.326   3.394
21909WAT     H165969   7.337   1.311   3.362
21909WAT     H265970   7.430   1.342   3.492
21910WAT      O65971   4.401   5.161   2.711
21910WAT     H165972   4.445   5.097   2.774
21910WAT     H265973   4.302   5.155   2.721
21911WAT      O65974   1.763   1.242   6.026
21911WAT     H165975   1.671   1.276   6.005
21911WAT     H265976   1.803   1.203   5.943
21912WAT      O65977   0.295   3.144   4.393
21912WAT     H165978   0.222   3.197   4.350
21912WAT     H265979   0.344   3.202   4.458
21913WAT      O65980   8.176   1.944   1.205
21913WAT     H165981   8.096   2.002   1.216
21913WAT     H265982   8.171   1.867   1.270
21914WAT      O65983   7.341   1.531   6.056
21914WAT     H165984   7.278   1.455   6.047
21914WAT     H265985   7.413   1.523   5.987
21915WAT      O65986   2.562   8.996   4.193
21915WAT     H165987   2.574   8.939   4.112
21915WAT     H265988   2.469   8.984   4.228
21916WAT      O65989   6.218   4.884   0.538
21916WAT     H165990   6.186   4.791   0.554
21916WAT     H265991   6.246   4.893   0.442
21917WAT      O65992   9.399   1.421   8.292
21917WAT     H165993   9.311   1.466   8.282
21917WAT     H265994   9.430   1.427   8.387
21918WAT      O65995   9.259   3.522   3.439
21918WAT     H165996   9.202   3.591   3.483
21918WAT     H265997   9.353   3.531   3.472
21919WAT      O65998   5.239   8.581   2.005
21919WAT     H165999   5.170   8.579   1.932
21919WAT     H266000   5.274   8.674   2.016
21920WAT      O66001   9.589   4.371   4.121
21920WAT     H166002   9.582   4.291   4.061
21920WAT     H266003   9.505   4.425   4.115
21921WAT      O66004   8.231   5.607   4.183
21921WAT     H166005   8.268   5.546   4.253
21921WAT     H266006   8.255   5.702   4.206
21922WAT      O66007   4.495   9.073   1.438
21922WAT     H166008   4.409   9.115   1.408
21922WAT     H266009   4.485   8.973   1.438
21923WAT      O66010   1.909   0.664   6.845
21923WAT     H166011   1.868   0.753   6.867
21923WAT     H266012   1.897   0.602   6.922
21924WAT      O66013   1.776   9.764   2.897
21924WAT     H166014   1.809   9.672   2.877
21924WAT     H266015   1.833   9.831   2.850
21925WAT      O66016   5.481   8.540   7.245
21925WAT     H166017   5.463   8.578   7.154
21925WAT     H266018   5.491   8.441   7.238
21926WAT      O66019   0.541   1.188   8.814
21926WAT     H166020   0.594   1.150   8.738
21926WAT     H266021   0.503   1.276   8.787
21927WAT      O66022   9.628   8.751   4.917
21927WAT     H166023   9.661   8.704   4.999
21927WAT     H266024   9.704   8.760   4.852
21928WAT      O66025   7.355   4.878   1.450
21928WAT     H166026   7.318   4.814   1.518
21928WAT     H266027   7.300   4.874   1.367
21929WAT      O66028   1.158   7.265   6.003
21929WAT     H166029   1.108   7.212   5.935
21929WAT     H266030   1.115   7.354   6.015
21930WAT      O66031   4.996   9.092   2.572
21930WAT     H166032   4.982   9.001   2.613
21930WAT     H266033   4.909   9.124   2.534
21931WAT      O66034   8.542   7.026   3.742
21931WAT     H166035   8.572   7.009   3.835
21931WAT     H266036   8.604   7.091   3.698
21932WAT      O66037   5.707   1.842   3.952
21932WAT     H166038   5.659   1.914   4.001
21932WAT     H266039   5.700   1.756   4.003
21933WAT      O66040   2.333   7.807   8.023
21933WAT     H166041   2.357   7.889   8.075
21933WAT     H266042   2.235   7.792   8.027
21934WAT      O66043   4.862   4.017   3.347
21934WAT     H166044   4.899   4.083   3.282
21934WAT     H266045   4.765   4.038   3.365
21935WAT      O66046   4.305   1.892   0.803
21935WAT     H166047   4.222   1.926   0.758
21935WAT     H266048   4.345   1.965   0.859
21936WAT      O66049   9.707   3.879   2.226
21936WAT     H166050   9.607   3.874   2.218
21936WAT     H266051   9.749   3.853   2.139
21937WAT      O66052   3.371   8.181   8.307
21937WAT     H166053   3.383   8.279   8.318
21937WAT     H266054   3.276   8.162   8.280
21938WAT      O66055   5.708   1.539   0.489
21938WAT     H166056   5.709   1.615   0.424
21938WAT     H266057   5.617   1.500   0.494
21939WAT      O66058   6.968   8.430   8.002
21939WAT     H166059   6.908   8.475   8.068
21939WAT     H266060   7.011   8.350   8.045
21940WAT      O66061   7.804   8.460   6.558
21940WAT     H166062   7.763   8.456   6.466
21940WAT     H266063   7.794   8.553   6.594
21941WAT      O66064   2.583   8.148   2.495
21941WAT     H166065   2.578   8.122   2.592
21941WAT     H266066   2.491   8.151   2.457
21942WAT      O66067   3.808   0.605   1.565
21942WAT     H166068   3.868   0.659   1.624
21942WAT     H266069   3.748   0.666   1.513
21943WAT      O66070   2.369   0.824   7.898
21943WAT     H166071   2.465   0.807   7.921
21943WAT     H266072   2.316   0.838   7.981
21944WAT      O66073   5.898   9.054   1.645
21944WAT     H166074   5.946   9.133   1.606
21944WAT     H266075   5.851   9.004   1.572
21945WAT      O66076   4.468   3.217   6.906
21945WAT     H166077   4.443   3.306   6.869
21945WAT     H266078   4.542   3.178   6.852
21946WAT      O66079   2.496   0.535   2.184
21946WAT     H166080   2.413   0.479   2.188
21946WAT     H266081   2.526   0.543   2.089
21947WAT      O66082   0.163   1.744   6.287
21947WAT     H166083   0.162   1.645   6.298
21947WAT     H266084   0.121   1.787   6.368
21948WAT      O66085   3.253   5.942   7.858
21948WAT     H166086   3.324   5.979   7.799
21948WAT     H266087   3.294   5.877   7.922
21949WAT      O66088   4.610   5.755   3.644
21949WAT     H166089   4.624   5.705   3.729
21949WAT     H266090   4.574   5.692   3.574
21950WAT      O66091   2.306   2.648   9.454
21950WAT     H166092   2.349   2.597   9.528
21950WAT     H266093   2.229   2.701   9.490
21951WAT      O66094   2.348   2.682   7.827
21951WAT     H166095   2.354   2.742   7.747
21951WAT     H266096   2.429   2.694   7.884
21952WAT      O66097   2.704   2.599   8.682
21952WAT     H166098   2.754   2.651   8.613
21952WAT     H266099   2.727   2.502   8.674
21953WAT      O66100   1.429   3.086   3.495
21953WAT     H166101   1.365   3.149   3.538
21953WAT     H266102   1.515   3.084   3.547
21954WAT      O66103   9.138   5.725   7.831
21954WAT     H166104   9.182   5.778   7.903
21954WAT     H266105   9.138   5.778   7.746
21955WAT      O66106   0.206   9.809   0.196
21955WAT     H166107   0.267   9.861   0.256
21955WAT     H266108   0.226   9.832   0.101
21956WAT      O66109   2.785   4.199   5.764
21956WAT     H166110   2.815   4.180   5.858
21956WAT     H266111   2.757   4.113   5.720
21957WAT      O66112   8.876   2.444   6.603
21957WAT     H166113   8.861   2.454   6.505
21957WAT     H266114   8.864   2.349   6.630
21958WAT      O66115   7.492   8.270   4.231
21958WAT     H166116   7.584   8.231   4.230
21958WAT     H266117   7.460   8.284   4.137
21959WAT      O66118   0.087   1.693   2.019
21959WAT     H166119   0.093   1.601   1.980
21959WAT     H266120   0.155   1.702   2.093
21960WAT      O66121   8.106   3.057   0.403
21960WAT     H166122   8.044   3.097   0.471
21960WAT     H266123   8.177   3.005   0.451
21961WAT      O66124   7.468   2.184   0.009
21961WAT     H166125   7.402   2.137   0.068
21961WAT     H266126   7.439   2.176  -0.086
21962WAT      O66127   0.946   1.918   4.127
21962WAT     H166128   1.013   1.854   4.164
21962WAT     H266129   0.887   1.870   4.062
21963WAT      O66130   3.153   3.330   9.206
21963WAT     H166131   3.082   3.270   9.170
21963WAT     H266132   3.203   3.372   9.130
21964WAT      O66133   2.625   8.092   6.466
21964WAT     H166134   2.555   8.023   6.483
21964WAT     H266135   2.626   8.157   6.542
21965WAT      O66136   4.469   6.987   5.384
21965WAT     H166137   4.432   6.912   5.329
21965WAT     H266138   4.535   7.038   5.330
21966WAT      O66139   1.102   4.377   9.579
21966WAT     H166140   1.111   4.316   9.500
21966WAT     H266141   1.075   4.469   9.547
21967WAT      O66142   3.542   0.288   6.711
21967WAT     H166143   3.528   0.383   6.737
21967WAT     H266144   3.519   0.276   6.614
21968WAT      O66145   9.054   6.964   0.571
21968WAT     H166146   9.055   7.021   0.654
21968WAT     H266147   9.137   6.983   0.517
21969WAT      O66148   7.545   9.278   5.156
21969WAT     H166149   7.491   9.217   5.097
21969WAT     H266150   7.641   9.273   5.129
21970WAT      O66151   8.567   4.250   7.179
21970WAT     H166152   8.576   4.153   7.199
21970WAT     H266153   8.657   4.290   7.162
21971WAT      O66154   5.653   9.452   5.391
21971WAT     H166155   5.689   9.545   5.385
21971WAT     H266156   5.584   9.439   5.320
21972WAT      O66157   4.104   3.914   6.723
21972WAT     H166158   4.027   3.971   6.752
21972WAT     H266159   4.142   3.951   6.638
21973WAT      O66160   9.787   9.261   4.843
21973WAT     H166161   9.740   9.194   4.785
21973WAT     H266162   9.725   9.337   4.861
21974WAT      O66163   3.653   2.076   7.301
21974WAT     H166164   3.562   2.076   7.342
21974WAT     H266165   3.691   1.984   7.304
21975WAT      O66166   1.822   6.991   6.842
21975WAT     H166167   1.779   7.076   6.874
21975WAT     H266168   1.838   6.997   6.744
21976WAT      O66169   1.852   4.927   6.861
21976WAT     H166170   1.872   4.999   6.927
21976WAT     H266171   1.910   4.939   6.780
21977WAT      O66172   0.510   2.234   9.330
21977WAT     H166173   0.568   2.190   9.398
21977WAT     H266174   0.494   2.171   9.254
21978WAT      O66175   5.603   2.451   0.269
21978WAT     H166176   5.689   2.406   0.293
21978WAT     H266177   5.552   2.473   0.352
21979WAT      O66178   1.538   6.657   3.548
21979WAT     H166179   1.627   6.660   3.594
21979WAT     H266180   1.499   6.565   3.556
21980WAT      O66181   9.000   4.178   4.846
21980WAT     H166182   8.965   4.270   4.862
21980WAT     H266183   8.926   4.119   4.815
21981WAT      O66184   1.336   4.043   0.147
21981WAT     H166185   1.429   4.053   0.113
21981WAT     H266186   1.294   4.133   0.158
21982WAT      O66187   6.116   9.435   3.690
21982WAT     H166188   6.122   9.490   3.607
21982WAT     H266189   6.070   9.487   3.762
21983WAT      O66190   8.880   4.891   1.164
21983WAT     H166191   8.806   4.857   1.222
21983WAT     H266192   8.857   4.876   1.068
21984WAT      O66193   0.797   1.411   0.072
21984WAT     H166194   0.724   1.459   0.023
21984WAT     H266195   0.811   1.321   0.031
21985WAT      O66196   8.392   0.076   2.912
21985WAT     H166197   8.454   0.048   2.986
21985WAT     H266198   8.445   0.093   2.829
21986WAT      O66199   8.341   3.744   3.569
21986WAT     H166200   8.272   3.747   3.641
21986WAT     H266201   8.357   3.836   3.534
21987WAT      O66202   7.692   7.430   3.852
21987WAT     H166203   7.783   7.389   3.840
21987WAT     H266204   7.682   7.509   3.791
21988WAT      O66205   2.748   9.332   4.060
21988WAT     H166206   2.796   9.393   3.997
21988WAT     H266207   2.650   9.336   4.041
21989WAT      O66208   5.488   7.211   6.923
21989WAT     H166209   5.579   7.253   6.919
21989WAT     H266210   5.489   7.125   6.873
21990WAT      O66211   2.975   7.832   5.571
21990WAT     H166212   2.908   7.860   5.502
21990WAT     H266213   2.996   7.910   5.630
21991WAT      O66214   2.259   5.968   7.762
21991WAT     H166215   2.235   5.930   7.673
21991WAT     H266216   2.217   6.058   7.773
21992WAT      O66217   3.038   8.574   4.459
21992WAT     H166218   3.079   8.649   4.408
21992WAT     H266219   2.962   8.535   4.407
21993WAT      O66220   1.497   7.257   2.588
21993WAT     H166221   1.473   7.296   2.676
21993WAT     H266222   1.553   7.175   2.601
21994WAT      O66223   6.901   5.559   8.996
21994WAT     H166224   6.811   5.571   8.953
21994WAT     H266225   6.897   5.484   9.061
21995WAT      O66226   0.361   8.599   7.672
21995WAT     H166227   0.405   8.587   7.583
21995WAT     H266228   0.431   8.619   7.741
21996WAT      O66229   7.286   7.682   7.062
21996WAT     H166230   7.208   7.689   6.999
21996WAT     H266231   7.309   7.773   7.097
21997WAT      O66232   0.804   6.452   6.166
21997WAT     H166233   0.842   6.359   6.166
21997WAT     H266234   0.849   6.507   6.236
21998WAT      O66235   7.415   4.330   7.913
21998WAT     H166236   7.417   4.334   8.013
21998WAT     H266237   7.408   4.235   7.883
21999WAT      O66238   4.958   6.428   0.141
21999WAT     H166239   4.923   6.400   0.052
21999WAT     H266240   4.977   6.526   0.140
22000WAT      O66241   3.913   3.908   1.867
22000WAT     H166242   3.864   3.860   1.794
22000WAT     H266243   4.010   3.912   1.844
22001WAT      O66244   6.115   9.347   3.292
22001WAT     H166245   6.077   9.257   3.313
22001WAT     H266246   6.209   9.337   3.259
22002WAT      O66247   2.021   5.257   4.260
22002WAT     H166248   2.084   5.332   4.275
22002WAT     H266249   1.945   5.264   4.325
22003WAT      O66250   0.489   3.509   7.529
22003WAT     H166251   0.483   3.607   7.510
22003WAT     H266252   0.546   3.493   7.609
22004WAT      O66253   5.909   2.542   7.194
22004WAT     H166254   5.873   2.449   7.199
22004WAT     H266255   6.001   2.540   7.156
22005WAT      O66256   1.790   1.716   0.146
22005WAT     H166257   1.730   1.677   0.075
22005WAT     H266258   1.804   1.649   0.218
22006WAT      O66259   4.391   7.814   6.579
22006WAT     H166260   4.398   7.725   6.534
22006WAT     H266261   4.304   7.857   6.554
22007WAT      O66262   2.054   9.337   4.181
22007WAT     H166263   2.047   9.246   4.222
22007WAT     H266264   2.016   9.405   4.245
22008WAT      O66265   2.572   3.991   4.972
22008WAT     H166266   2.533   4.036   4.891
22008WAT     H266267   2.671   3.993   4.967
22009WAT      O66268   3.481   0.195   1.135
22009WAT     H166269   3.512   0.149   1.052
22009WAT     H266270   3.449   0.287   1.112
22010WAT      O66271   1.425   8.817   1.740
22010WAT     H166272   1.512   8.859   1.716
22010WAT     H266273   1.441   8.731   1.789
22011WAT      O66274   0.740   6.105   6.842
22011WAT     H166275   0.673   6.075   6.910
22011WAT     H266276   0.831   6.071   6.868
22012WAT      O66277   8.073   9.539   9.176
22012WAT     H166278   7.992   9.482   9.192
22012WAT     H266279   8.099   9.534   9.080
22013WAT      O66280   5.054   0.780   7.220
22013WAT     H166281   5.126   0.721   7.185
22013WAT     H266282   5.096   0.858   7.268
22014WAT      O66283   7.850   6.978   3.777
22014WAT     H166284   7.794   6.913   3.828
22014WAT     H266285   7.938   6.989   3.823
22015WAT      O66286   9.514   1.037   1.100
22015WAT     H166287   9.571   1.118   1.089
22015WAT     H266288   9.460   1.044   1.184
22016WAT      O66289   9.440   9.647   2.873
22016WAT     H166290   9.438   9.731   2.926
22016WAT     H266291   9.524   9.596   2.893
22017WAT      O66292   7.953   1.508   1.410
22017WAT     H166293   7.933   1.414   1.435
22017WAT     H266294   7.867   1.556   1.390
22018WAT      O66295   2.571   4.128   5.227
22018WAT     H166296   2.563   4.078   5.141
22018WAT     H266297   2.512   4.208   5.225
22019WAT      O66298   5.284   0.208   3.033
22019WAT     H166299   5.265   0.209   3.132
22019WAT     H266300   5.256   0.120   2.995
22020WAT      O66301   6.348   9.718   3.575
22020WAT     H166302   6.409   9.788   3.539
22020WAT     H266303   6.287   9.687   3.502
22021WAT      O66304   8.847   1.803   9.608
22021WAT     H166305   8.796   1.888   9.622
22021WAT     H266306   8.783   1.726   9.603
22022WAT      O66307   0.127   2.408   8.759
22022WAT     H166308   0.097   2.355   8.838
22022WAT     H266309   0.064   2.394   8.683
22023WAT      O66310   9.793   2.370   8.625
22023WAT     H166311   9.719   2.397   8.686
22023WAT     H266312   9.769   2.395   8.531
22024WAT      O66313   5.157   6.468   8.476
22024WAT     H166314   5.175   6.415   8.393
22024WAT     H266315   5.233   6.530   8.494
22025WAT      O66316   2.363   6.933   3.824
22025WAT     H166317   2.331   6.852   3.774
22025WAT     H266318   2.462   6.931   3.832
22026WAT      O66319   0.425   6.142   9.838
22026WAT     H166320   0.432   6.068   9.906
22026WAT     H266321   0.471   6.114   9.754
22027WAT      O66322   5.755   9.579   6.751
22027WAT     H166323   5.792   9.649   6.689
22027WAT     H266324   5.797   9.491   6.731
22028WAT      O66325   6.922   1.578   4.003
22028WAT     H166326   6.976   1.611   3.925
22028WAT     H266327   6.910   1.479   3.996
22029WAT      O66328   4.871   4.532   4.231
22029WAT     H166329   4.872   4.625   4.269
22029WAT     H266330   4.817   4.473   4.291
22030WAT      O66331   1.790   4.304   2.443
22030WAT     H166332   1.865   4.245   2.472
22030WAT     H266333   1.739   4.336   2.523
22031WAT      O66334   0.592   9.623   5.973
22031WAT     H166335   0.618   9.649   6.066
22031WAT     H266336   0.605   9.524   5.961
22032WAT      O66337   7.920   6.949   2.002
22032WAT     H166338   7.969   7.031   2.029
22032WAT     H266339   7.873   6.910   2.081
22033WAT      O66340   9.850   8.247   4.209
22033WAT     H166341   9.807   8.322   4.259
22033WAT     H266342   9.791   8.218   4.134
22034WAT      O66343   8.624   2.360   1.844
22034WAT     H166344   8.646   2.356   1.941
22034WAT     H266345   8.541   2.414   1.830
22035WAT      O66346   8.676   8.017   7.709
22035WAT     H166347   8.612   8.021   7.785
22035WAT     H266348   8.769   8.004   7.744
22036WAT      O66349   1.693   2.703   4.013
22036WAT     H166350   1.713   2.794   4.050
22036WAT     H266351   1.606   2.670   4.050
22037WAT      O66352   2.987   0.751   1.714
22037WAT     H166353   2.957   0.844   1.738
22037WAT     H266354   3.079   0.736   1.750
22038WAT      O66355   2.157   5.272   5.887
22038WAT     H166356   2.147   5.370   5.904
22038WAT     H266357   2.075   5.225   5.920
22039WAT      O66358   6.019   0.288   6.423
22039WAT     H166359   5.958   0.301   6.345
22039WAT     H266360   6.042   0.191   6.431
22040WAT      O66361   1.274   0.797   8.418
22040WAT     H166362   1.214   0.836   8.348
22040WAT     H266363   1.321   0.717   8.380
22041WAT      O66364   2.466   5.384   4.065
22041WAT     H166365   2.500   5.361   3.973
22041WAT     H266366   2.394   5.453   4.057
22042WAT      O66367   5.569   5.327   8.800
22042WAT     H166368   5.635   5.329   8.874
22042WAT     H266369   5.476   5.326   8.838
22043WAT      O66370   3.378   5.858   5.181
22043WAT     H166371   3.438   5.814   5.248
22043WAT     H266372   3.308   5.794   5.151
22044WAT      O66373   5.549   8.596   4.236
22044WAT     H166374   5.499   8.661   4.293
22044WAT     H266375   5.628   8.561   4.287
22045WAT      O66376   9.704   1.464   8.358
22045WAT     H166377   9.793   1.501   8.385
22045WAT     H266378   9.681   1.388   8.419
22046WAT      O66379   6.827   4.231   1.194
22046WAT     H166380   6.770   4.155   1.163
22046WAT     H266381   6.873   4.206   1.280
22047WAT      O66382   5.977   8.761   6.972
22047WAT     H166383   6.029   8.709   6.904
22047WAT     H266384   6.039   8.809   7.033
22048WAT      O66385   6.381   5.843   5.695
22048WAT     H166386   6.358   5.746   5.693
22048WAT     H266387   6.427   5.865   5.781
22049WAT      O66388   7.443   2.835   5.833
22049WAT     H166389   7.481   2.923   5.862
22049WAT     H266390   7.485   2.761   5.886
22050WAT      O66391   6.456   8.553   4.556
22050WAT     H166392   6.384   8.613   4.521
22050WAT     H266393   6.533   8.609   4.588
22051WAT      O66394   3.268   5.690   2.377
22051WAT     H166395   3.267   5.744   2.461
22051WAT     H266396   3.241   5.748   2.300
22052WAT      O66397   6.928   5.715   9.538
22052WAT     H166398   6.863   5.744   9.608
22052WAT     H266399   6.963   5.624   9.560
22053WAT      O66400   6.515   2.708   2.358
22053WAT     H166401   6.487   2.782   2.420
22053WAT     H266402   6.476   2.622   2.390
22054WAT      O66403   0.041   2.230   4.263
22054WAT     H166404   0.005   2.323   4.263
22054WAT     H266405   0.056   2.200   4.169
22055WAT      O66406   2.929   4.057   8.544
22055WAT     H166407   2.851   4.112   8.512
22055WAT     H266408   3.011   4.113   8.545
22056WAT      O66409   4.201   8.775   5.122
22056WAT     H166410   4.169   8.790   5.215
22056WAT     H266411   4.160   8.842   5.060
22057WAT      O66412   8.894   8.510   3.049
22057WAT     H166413   8.830   8.508   3.126
22057WAT     H266414   8.968   8.445   3.065
22058WAT      O66415   3.817   0.710   9.338
22058WAT     H166416   3.751   0.675   9.272
22058WAT     H266417   3.771   0.734   9.423
22059WAT      O66418   1.813   0.131   2.503
22059WAT     H166419   1.834   0.034   2.495
22059WAT     H266420   1.727   0.150   2.454
22060WAT      O66421   1.279   6.095   9.146
22060WAT     H166422   1.378   6.085   9.158
22060WAT     H266423   1.232   6.046   9.220
22061WAT      O66424   9.765   8.104   6.298
22061WAT     H166425   9.853   8.068   6.267
22061WAT     H266426   9.711   8.132   6.219
22062WAT      O66427   9.155   1.086   2.260
22062WAT     H166428   9.170   1.098   2.358
22062WAT     H266429   9.069   1.036   2.246
22063WAT      O66430   4.024   2.979   6.925
22063WAT     H166431   3.960   3.055   6.929
22063WAT     H266432   3.974   2.894   6.911
22064WAT      O66433   4.368   0.789   5.703
22064WAT     H166434   4.278   0.831   5.689
22064WAT     H266435   4.379   0.713   5.638
22065WAT      O66436   6.533   4.273   2.360
22065WAT     H166437   6.605   4.305   2.299
22065WAT     H266438   6.467   4.219   2.309
22066WAT      O66439   4.978   8.318   1.189
22066WAT     H166440   4.924   8.238   1.214
22066WAT     H266441   5.004   8.311   1.092
22067WAT      O66442   2.704   6.868   8.249
22067WAT     H166443   2.646   6.872   8.330
22067WAT     H266444   2.691   6.951   8.195
22068WAT      O66445   0.594   1.468   6.314
22068WAT     H166446   0.569   1.436   6.405
22068WAT     H266447   0.539   1.420   6.245
22069WAT      O66448   0.867   0.207   4.420
22069WAT     H166449   0.964   0.186   4.435
22069WAT     H266450   0.835   0.269   4.491
22070WAT      O66451   8.774   0.408   5.723
22070WAT     H166452   8.869   0.378   5.714
22070WAT     H266453   8.712   0.332   5.702
22071WAT      O66454   2.150   0.229   0.479
22071WAT     H166455   2.110   0.214   0.389
22071WAT     H266456   2.152   0.143   0.530
22072WAT      O66457   0.833   8.250   2.335
22072WAT     H166458   0.869   8.172   2.386
22072WAT     H266459   0.786   8.312   2.397
22073WAT      O66460   9.040   6.822   9.506
22073WAT     H166461   9.045   6.840   9.604
22073WAT     H266462   9.133   6.809   9.469
22074WAT      O66463   7.129   9.094   5.869
22074WAT     H166464   7.189   9.014   5.879
22074WAT     H266465   7.036   9.063   5.849
22075WAT      O66466   0.518   7.862   1.083
22075WAT     H166467   0.424   7.896   1.084
22075WAT     H266468   0.569   7.900   1.160
22076WAT      O66469   6.780   8.564   1.694
22076WAT     H166470   6.771   8.663   1.685
22076WAT     H266471   6.769   8.537   1.790
22077WAT      O66472   8.803   3.919   3.342
22077WAT     H166473   8.724   3.945   3.286
22077WAT     H266474   8.771   3.896   3.434
22078WAT      O66475   8.252   7.991   4.428
22078WAT     H166476   8.171   7.935   4.438
22078WAT     H266477   8.257   8.056   4.504
22079WAT      O66478   5.111   4.989   6.059
22079WAT     H166479   5.120   4.942   6.147
22079WAT     H266480   5.047   5.066   6.069
22080WAT      O66481   8.138   3.362   1.716
22080WAT     H166482   8.067   3.319   1.660
22080WAT     H266483   8.102   3.378   1.808
22081WAT      O66484   7.311   8.379   3.375
22081WAT     H166485   7.398   8.406   3.332
22081WAT     H266486   7.300   8.431   3.460
22082WAT      O66487   8.570   4.954   7.979
22082WAT     H166488   8.634   5.026   7.950
22082WAT     H266489   8.501   4.992   8.040
22083WAT      O66490   7.403   2.570   3.379
22083WAT     H166491   7.490   2.590   3.332
22083WAT     H266492   7.328   2.578   3.314
22084WAT      O66493   6.569   6.150   7.349
22084WAT     H166494   6.570   6.250   7.357
22084WAT     H266495   6.661   6.114   7.367
22085WAT      O66496   4.357   1.147   3.911
22085WAT     H166497   4.447   1.106   3.894
22085WAT     H266498   4.287   1.093   3.864
22086WAT      O66499   6.550   0.019   1.045
22086WAT     H166500   6.640  -0.021   1.063
22086WAT     H266501   6.479  -0.048   1.063
22087WAT      O66502   7.356   1.234   2.393
22087WAT     H166503   7.391   1.215   2.485
22087WAT     H266504   7.394   1.321   2.361
22088WAT      O66505   7.660   9.547   1.120
22088WAT     H166506   7.672   9.645   1.136
22088WAT     H266507   7.661   9.498   1.207
22089WAT      O66508   4.912   9.418   7.525
22089WAT     H166509   4.926   9.327   7.565
22089WAT     H266510   4.830   9.417   7.469
22090WAT      O66511   4.511   5.880   0.936
22090WAT     H166512   4.536   5.795   0.889
22090WAT     H266513   4.508   5.954   0.869
22091WAT      O66514   2.337   6.400   7.215
22091WAT     H166515   2.290   6.314   7.199
22091WAT     H266516   2.436   6.384   7.219
22092WAT      O66517   7.432   5.464   9.759
22092WAT     H166518   7.473   5.422   9.839
22092WAT     H266519   7.412   5.560   9.778
22093WAT      O66520   8.670   8.087   3.749
22093WAT     H166521   8.623   8.010   3.792
22093WAT     H266522   8.607   8.135   3.688
22094WAT      O66523   5.100   9.020   1.215
22094WAT     H166524   5.074   8.969   1.133
22094WAT     H266525   5.045   8.987   1.293
22095WAT      O66526   3.161   6.223   2.404
22095WAT     H166527   3.071   6.255   2.436
22095WAT     H266528   3.206   6.171   2.477
22096WAT      O66529   3.133   2.374   3.742
22096WAT     H166530   3.177   2.288   3.770
22096WAT     H266531   3.115   2.429   3.823
22097WAT      O66532   1.713   0.621   8.137
22097WAT     H166533   1.649   0.547   8.116
22097WAT     H266534   1.667   0.690   8.193
22098WAT      O66535   4.106   8.542   5.394
22098WAT     H166536   4.104   8.632   5.438
22098WAT     H266537   4.014   8.505   5.387
22099WAT      O66538   2.431   0.520   9.633
22099WAT     H166539   2.486   0.463   9.573
22099WAT     H266540   2.464   0.512   9.727
22100WAT      O66541   8.985   2.127   3.054
22100WAT     H166542   9.080   2.146   3.029
22100WAT     H266543   8.967   2.029   3.042
22101WAT      O66544   2.169   5.078   8.100
22101WAT     H166545   2.112   5.141   8.152
22101WAT     H266546   2.261   5.115   8.092
22102WAT      O66547   5.786   0.211   7.903
22102WAT     H166548   5.793   0.257   7.814
22102WAT     H266549   5.693   0.222   7.939
22103WAT      O66550   3.170   7.472   4.088
22103WAT     H166551   3.156   7.450   3.992
22103WAT     H266552   3.245   7.417   4.125
22104WAT      O66553   9.003   3.991   8.071
22104WAT     H166554   8.950   3.911   8.101
22104WAT     H266555   8.958   4.075   8.102
22105WAT      O66556   4.925   3.392   2.202
22105WAT     H166557   4.840   3.446   2.204
22105WAT     H266558   4.957   3.377   2.296
22106WAT      O66559   3.009   0.941   4.702
22106WAT     H166560   3.083   0.964   4.765
22106WAT     H266561   3.033   0.857   4.653
22107WAT      O66562   3.563   1.259   0.270
22107WAT     H166563   3.578   1.344   0.320
22107WAT     H266564   3.478   1.216   0.301
22108WAT      O66565   1.304   2.264   8.818
22108WAT     H166566   1.360   2.215   8.751
22108WAT     H266567   1.232   2.315   8.771
22109WAT      O66568   2.687   9.530   4.722
22109WAT     H166569   2.770   9.475   4.722
22109WAT     H266570   2.644   9.526   4.632
22110WAT      O66571   3.697   2.917   0.248
22110WAT     H166572   3.787   2.888   0.215
22110WAT     H266573   3.708   2.997   0.308
22111WAT      O66574   8.561   2.282   2.273
22111WAT     H166575   8.595   2.188   2.279
22111WAT     H266576   8.622   2.335   2.214
22112WAT      O66577   0.687   8.368   2.666
22112WAT     H166578   0.658   8.287   2.716
22112WAT     H266579   0.621   8.387   2.592
22113WAT      O66580   4.813   2.756   5.432
22113WAT     H166581   4.863   2.702   5.363
22113WAT     H266582   4.745   2.813   5.386
22114WAT      O66583   7.022   5.245   2.882
22114WAT     H166584   6.931   5.276   2.909
22114WAT     H266585   7.090   5.308   2.920
22115WAT      O66586   6.135   0.636   7.298
22115WAT     H166587   6.157   0.544   7.266
22115WAT     H266588   6.132   0.698   7.220
22116WAT      O66589   2.710   1.514   3.532
22116WAT     H166590   2.622   1.561   3.538
22116WAT     H266591   2.779   1.566   3.584
22117WAT      O66592   5.752   0.469   5.279
22117WAT     H166593   5.670   0.492   5.227
22117WAT     H266594   5.802   0.553   5.300
22118WAT      O66595   2.787   1.049   6.566
22118WAT     H166596   2.747   0.983   6.503
22118WAT     H266597   2.886   1.038   6.569
22119WAT      O66598   5.969   1.263   1.334
22119WAT     H166599   5.921   1.340   1.290
22119WAT     H266600   6.042   1.232   1.274
22120WAT      O66601   1.940   8.867   1.634
22120WAT     H166602   1.853   8.832   1.667
22120WAT     H266603   1.984   8.800   1.574
22121WAT      O66604   7.771   9.639   2.211
22121WAT     H166605   7.760   9.558   2.153
22121WAT     H266606   7.714   9.713   2.177
22122WAT      O66607   9.872   4.640   9.749
22122WAT     H166608   9.940   4.604   9.814
22122WAT     H266609   9.911   4.639   9.657
22123WAT      O66610   7.859   8.012   0.929
22123WAT     H166611   7.854   7.914   0.947
22123WAT     H266612   7.913   8.028   0.846
22124WAT      O66613   6.171   7.760   0.933
22124WAT     H166614   6.093   7.751   0.994
22124WAT     H266615   6.224   7.841   0.957
22125WAT      O66616   7.997   3.910   8.749
22125WAT     H166617   8.020   3.813   8.757
22125WAT     H266618   7.915   3.929   8.804
22126WAT      O66619   2.628   8.076   7.780
22126WAT     H166620   2.555   8.008   7.774
22126WAT     H266621   2.674   8.084   7.692
22127WAT      O66622   6.379   2.777   5.256
22127WAT     H166623   6.362   2.696   5.313
22127WAT     H266624   6.477   2.785   5.238
22128WAT      O66625   4.491   4.211   7.591
22128WAT     H166626   4.412   4.232   7.648
22128WAT     H266627   4.534   4.296   7.560
22129WAT      O66628   5.082   8.919   6.258
22129WAT     H166629   5.036   8.978   6.325
22129WAT     H266630   5.082   8.963   6.169
22130WAT      O66631   9.667   1.071   0.792
22130WAT     H166632   9.575   1.084   0.829
22130WAT     H266633   9.662   1.057   0.693
22131WAT      O66634   2.947   5.175   0.461
22131WAT     H166635   2.956   5.161   0.559
22131WAT     H266636   2.873   5.240   0.443
22132WAT      O66637   1.779   9.158   0.118
22132WAT     H166638   1.758   9.255   0.105
22132WAT     H266639   1.878   9.145   0.119
22133WAT      O66640   9.579   4.006   0.250
22133WAT     H166641   9.547   4.088   0.298
22133WAT     H266642   9.517   3.930   0.268
22134WAT      O66643   3.736   4.700   8.370
22134WAT     H166644   3.816   4.751   8.403
22134WAT     H266645   3.708   4.635   8.440
22135WAT      O66646   4.868   1.696   8.050
22135WAT     H166647   4.890   1.740   8.136
22135WAT     H266648   4.950   1.654   8.011
22136WAT      O66649   6.104   7.311   8.855
22136WAT     H166650   6.045   7.305   8.775
22136WAT     H266651   6.108   7.223   8.901
22137WAT      O66652   3.037   2.298   8.284
22137WAT     H166653   3.126   2.313   8.241
22137WAT     H266654   3.004   2.383   8.324
22138WAT      O66655   8.268   4.133   5.566
22138WAT     H166656   8.291   4.136   5.664
22138WAT     H266657   8.331   4.192   5.516
22139WAT      O66658   1.239   6.368   3.873
22139WAT     H166659   1.302   6.431   3.917
22139WAT     H266660   1.286   6.320   3.799
22140WAT      O66661   0.131   0.441   1.168
22140WAT     H166662   0.071   0.507   1.122
22140WAT     H266663   0.225   0.454   1.136
22141WAT      O66664   0.785   3.968   6.658
22141WAT     H166665   0.763   3.875   6.628
22141WAT     H266666   0.866   3.965   6.717
22142WAT      O66667   4.139   0.137   6.955
22142WAT     H166668   4.139   0.074   6.878
22142WAT     H266669   4.054   0.126   7.007
22143WAT      O66670   2.936   0.386   8.047
22143WAT     H166671   2.979   0.298   8.028
22143WAT     H266672   2.916   0.433   7.961
22144WAT      O66673   3.470   0.010   1.630
22144WAT     H166674   3.453   0.037   1.535
22144WAT     H266675   3.398   0.048   1.689
22145WAT      O66676   1.196   2.426   4.333
22145WAT     H166677   1.256   2.387   4.402
22145WAT     H266678   1.210   2.377   4.246
22146WAT      O66679   4.366   2.792   2.348
22146WAT     H166680   4.330   2.782   2.441
22146WAT     H266681   4.364   2.704   2.302
22147WAT      O66682   0.625   4.131   1.204
22147WAT     H166683   0.612   4.084   1.116
22147WAT     H266684   0.688   4.078   1.260
22148WAT      O66685   3.330   6.898   3.532
22148WAT     H166686   3.378   6.826   3.483
22148WAT     H266687   3.292   6.861   3.616
22149WAT      O66688   8.712   8.598   2.886
22149WAT     H166689   8.790   8.553   2.930
22149WAT     H266690   8.649   8.528   2.851
22150WAT      O66691   1.667   1.787   2.377
22150WAT     H166692   1.746   1.848   2.373
22150WAT     H266693   1.632   1.771   2.285
22151WAT      O66694   8.989   3.593   7.093
22151WAT     H166695   8.934   3.534   7.153
22151WAT     H266696   9.075   3.547   7.071
22152WAT      O66697   3.617   5.207   0.054
22152WAT     H166698   3.523   5.207   0.088
22152WAT     H266699   3.624   5.268  -0.025
22153WAT      O66700   8.381   2.462   1.852
22153WAT     H166701   8.321   2.539   1.874
22153WAT     H266702   8.326   2.378   1.847
22154WAT      O66703   8.375   5.323   0.249
22154WAT     H166704   8.422   5.388   0.189
22154WAT     H266705   8.443   5.274   0.304
22155WAT      O66706   5.040   2.913   0.748
22155WAT     H166707   4.961   2.972   0.730
22155WAT     H266708   5.108   2.963   0.802
22156WAT      O66709   9.761   2.919   7.804
22156WAT     H166710   9.846   2.968   7.785
22156WAT     H266711   9.691   2.984   7.834
22157WAT      O66712   3.619   4.893   2.033
22157WAT     H166713   3.717   4.912   2.043
22157WAT     H266714   3.605   4.795   2.019
22158WAT      O66715   3.884   4.953   1.107
22158WAT     H166716   3.896   4.977   1.203
22158WAT     H266717   3.973   4.937   1.065
22159WAT      O66718   9.448   6.188   5.034
22159WAT     H166719   9.493   6.245   4.964
22159WAT     H266720   9.363   6.232   5.062
22160WAT      O66721   8.911   3.238   7.153
22160WAT     H166722   8.907   3.219   7.055
22160WAT     H266723   8.969   3.170   7.197
22161WAT      O66724   8.488   2.904   6.576
22161WAT     H166725   8.494   2.872   6.481
22161WAT     H266726   8.394   2.901   6.607
22162WAT      O66727   9.293   1.588   5.477
22162WAT     H166728   9.323   1.651   5.406
22162WAT     H266729   9.298   1.633   5.567
22163WAT      O66730   7.909   5.093   0.908
22163WAT     H166731   7.991   5.066   0.857
22163WAT     H266732   7.934   5.117   1.002
22164WAT      O66733   3.410   3.185   1.957
22164WAT     H166734   3.362   3.162   1.872
22164WAT     H266735   3.359   3.254   2.007
22165WAT      O66736   4.258   5.173   0.522
22165WAT     H166737   4.229   5.267   0.541
22165WAT     H266738   4.297   5.168   0.430
22166WAT      O66739   8.384   0.757   2.682
22166WAT     H166740   8.335   0.752   2.595
22166WAT     H266741   8.328   0.805   2.749
22167WAT      O66742   0.728   7.228   4.646
22167WAT     H166743   0.788   7.248   4.723
22167WAT     H266744   0.783   7.219   4.563
22168WAT      O66745   1.869   4.448   8.167
22168WAT     H166746   1.861   4.367   8.108
22168WAT     H266747   1.959   4.450   8.209
22169WAT      O66748   0.736   5.171   6.453
22169WAT     H166749   0.828   5.169   6.493
22169WAT     H266750   0.671   5.128   6.515
22170WAT      O66751   0.603   3.130   8.504
22170WAT     H166752   0.511   3.123   8.465
22170WAT     H266753   0.657   3.050   8.479
22171WAT      O66754   6.447   8.944   3.342
22171WAT     H166755   6.361   8.940   3.392
22171WAT     H266756   6.428   8.956   3.244
22172WAT      O66757   9.675   5.895   9.583
22172WAT     H166758   9.659   5.804   9.621
22172WAT     H266759   9.621   5.962   9.634
22173WAT      O66760   7.359   3.356   5.631
22173WAT     H166761   7.354   3.268   5.584
22173WAT     H266762   7.274   3.373   5.681
22174WAT      O66763   5.414   6.490   1.644
22174WAT     H166764   5.357   6.494   1.561
22174WAT     H266765   5.356   6.502   1.725
22175WAT      O66766   6.146   2.262   4.102
22175WAT     H166767   6.222   2.198   4.112
22175WAT     H266768   6.144   2.297   4.008
22176WAT      O66769   4.805   3.236   1.860
22176WAT     H166770   4.717   3.213   1.903
22176WAT     H266771   4.875   3.171   1.891
22177WAT      O66772   0.575   0.730   6.759
22177WAT     H166773   0.586   0.738   6.858
22177WAT     H266774   0.503   0.663   6.739
22178WAT      O66775   7.928   1.148   2.825
22178WAT     H166776   7.867   1.226   2.816
22178WAT     H266777   8.018   1.179   2.856
22179WAT      O66778   4.295   6.383   8.723
22179WAT     H166779   4.247   6.296   8.733
22179WAT     H266780   4.309   6.424   8.813
22180WAT      O66781   3.515   1.761   3.297
22180WAT     H166782   3.468   1.713   3.223
22180WAT     H266783   3.552   1.695   3.362
22181WAT      O66784   7.652   8.766   0.399
22181WAT     H166785   7.566   8.756   0.348
22181WAT     H266786   7.729   8.749   0.338
22182WAT      O66787   5.641   6.985   3.708
22182WAT     H166788   5.548   7.018   3.726
22182WAT     H266789   5.654   6.897   3.754
22183WAT      O66790   9.443   6.786   5.657
22183WAT     H166791   9.353   6.822   5.682
22183WAT     H266792   9.483   6.844   5.585
22184WAT      O66793   7.659   3.563   2.505
22184WAT     H166794   7.606   3.480   2.487
22184WAT     H266795   7.658   3.621   2.423
22185WAT      O66796   8.780   6.582   3.649
22185WAT     H166797   8.795   6.665   3.594
22185WAT     H266798   8.686   6.550   3.637
22186WAT      O66799   5.712   9.012   8.023
22186WAT     H166800   5.783   8.949   7.993
22186WAT     H266801   5.722   9.028   8.121
22187WAT      O66802   4.625   7.873   3.167
22187WAT     H166803   4.625   7.873   3.067
22187WAT     H266804   4.718   7.878   3.201
22188WAT      O66805   0.399   3.870   3.498
22188WAT     H166806   0.480   3.842   3.550
22188WAT     H266807   0.374   3.797   3.434
22189WAT      O66808   5.642   0.072   6.285
22189WAT     H166809   5.708  -0.002   6.269
22189WAT     H266810   5.552   0.043   6.252
22190WAT      O66811   5.110   0.851   8.118
22190WAT     H166812   5.205   0.834   8.092
22190WAT     H266813   5.107   0.922   8.189
22191WAT      O66814   0.615   9.524   6.898
22191WAT     H166815   0.654   9.433   6.880
22191WAT     H266816   0.660   9.565   6.977
22192WAT      O66817   4.755   3.654   5.299
22192WAT     H166818   4.785   3.594   5.374
22192WAT     H266819   4.783   3.748   5.317
22193WAT      O66820   9.809   4.628   2.976
22193WAT     H166821   9.899   4.623   2.933
22193WAT     H266822   9.748   4.562   2.933
22194WAT      O66823   3.117   8.238   5.872
22194WAT     H166824   3.066   8.314   5.912
22194WAT     H266825   3.113   8.159   5.933
22195WAT      O66826   7.877   0.728   4.690
22195WAT     H166827   7.949   0.793   4.668
22195WAT     H266828   7.865   0.723   4.789
22196WAT      O66829   3.433   7.455   8.784
22196WAT     H166830   3.508   7.515   8.753
22196WAT     H266831   3.470   7.365   8.806
22197WAT      O66832   2.135   7.975   0.941
22197WAT     H166833   2.046   8.003   0.905
22197WAT     H266834   2.192   7.938   0.866
22198WAT      O66835   2.502   1.829   9.073
22198WAT     H166836   2.454   1.764   9.014
22198WAT     H266837   2.517   1.915   9.023
22199WAT      O66838   6.516   6.564   8.129
22199WAT     H166839   6.601   6.518   8.155
22199WAT     H266840   6.442   6.496   8.123
22200WAT      O66841   0.148   3.458   6.199
22200WAT     H166842   0.182   3.552   6.198
22200WAT     H266843   0.101   3.440   6.285
22201WAT      O66844   2.215   1.414   1.552
22201WAT     H166845   2.294   1.366   1.515
22201WAT     H266846   2.179   1.363   1.630
22202WAT      O66847   2.614   8.140   6.935
22202WAT     H166848   2.578   8.208   6.999
22202WAT     H266849   2.571   8.051   6.952
22203WAT      O66850   2.718   9.340   7.798
22203WAT     H166851   2.666   9.255   7.800
22203WAT     H266852   2.681   9.403   7.867
22204WAT      O66853   1.167   4.315   0.559
22204WAT     H166854   1.176   4.409   0.589
22204WAT     H266855   1.158   4.312   0.459
22205WAT      O66856   0.627   0.529   1.678
22205WAT     H166857   0.654   0.434   1.694
22205WAT     H266858   0.540   0.530   1.629
22206WAT      O66859   1.884   3.222   4.526
22206WAT     H166860   1.933   3.205   4.441
22206WAT     H266861   1.924   3.301   4.572
22207WAT      O66862   6.925   1.773   4.633
22207WAT     H166863   7.022   1.780   4.656
22207WAT     H266864   6.875   1.731   4.710
22208WAT      O66865   8.112   6.427   8.184
22208WAT     H166866   8.020   6.466   8.176
22208WAT     H266867   8.134   6.377   8.100
22209WAT      O66868   7.144   3.340   7.104
22209WAT     H166869   7.137   3.371   7.199
22209WAT     H266870   7.233   3.367   7.066
22210WAT      O66871   1.683   8.616   8.285
22210WAT     H166872   1.690   8.518   8.270
22210WAT     H266873   1.638   8.633   8.373
22211WAT      O66874   5.917   4.413   3.625
22211WAT     H166875   5.864   4.493   3.596
22211WAT     H266876   5.927   4.350   3.548
22212WAT      O66877   8.073   0.022   8.898
22212WAT     H166878   8.040  -0.012   8.810
22212WAT     H266879   7.996   0.045   8.956
22213WAT      O66880   3.968   9.088   3.538
22213WAT     H166881   4.051   9.098   3.483
22213WAT     H266882   3.902   9.158   3.513
22214WAT      O66883   5.145   0.413   7.656
22214WAT     H166884   5.199   0.379   7.579
22214WAT     H266885   5.049   0.387   7.644
22215WAT      O66886   4.498   4.044   4.450
22215WAT     H166887   4.479   4.120   4.512
22215WAT     H266888   4.562   3.981   4.494
22216WAT      O66889   4.298   7.230   4.771
22216WAT     H166890   4.351   7.151   4.739
22216WAT     H266891   4.234   7.200   4.841
22217WAT      O66892   6.843   3.361   1.474
22217WAT     H166893   6.931   3.315   1.460
22217WAT     H266894   6.858   3.448   1.520
22218WAT      O66895   5.541   1.889   9.869
22218WAT     H166896   5.511   1.980   9.841
22218WAT     H266897   5.622   1.897   9.928
22219WAT      O66898   1.043   5.562   1.707
22219WAT     H166899   1.011   5.472   1.736
22219WAT     H266900   0.966   5.616   1.674
22220WAT      O66901   8.779   0.655   1.427
22220WAT     H166902   8.830   0.582   1.380
22220WAT     H266903   8.831   0.685   1.507
22221WAT      O66904   8.862   4.153   0.581
22221WAT     H166905   8.809   4.205   0.515
22221WAT     H266906   8.881   4.062   0.545
22222WAT      O66907   3.804   8.453   0.958
22222WAT     H166908   3.717   8.490   0.991
22222WAT     H266909   3.796   8.431   0.861
22223WAT      O66910   6.750   7.403   1.812
22223WAT     H166911   6.781   7.336   1.745
22223WAT     H266912   6.797   7.490   1.797
22224WAT      O66913   8.866   4.466   1.108
22224WAT     H166914   8.875   4.507   1.199
22224WAT     H266915   8.810   4.526   1.050
22225WAT      O66916   7.164   8.999   3.596
22225WAT     H166917   7.158   8.901   3.581
22225WAT     H266918   7.259   9.023   3.619
22226WAT      O66919   8.518   3.338   4.812
22226WAT     H166920   8.598   3.306   4.761
22226WAT     H266921   8.437   3.332   4.754
22227WAT      O66922   5.662   7.161   9.592
22227WAT     H166923   5.632   7.202   9.678
22227WAT     H266924   5.716   7.227   9.540
22228WAT      O66925   6.042   0.680   9.706
22228WAT     H166926   5.978   0.757   9.717
22228WAT     H266927   6.071   0.647   9.796
22229WAT      O66928   5.818   0.247   5.441
22229WAT     H166929   5.892   0.191   5.404
22229WAT     H266930   5.808   0.329   5.384
22230WAT      O66931   9.543   3.999   3.483
22230WAT     H166932   9.501   3.976   3.395
22230WAT     H266933   9.605   3.926   3.511
22231WAT      O66934   6.975   3.859   0.666
22231WAT     H166935   7.020   3.945   0.690
22231WAT     H266936   6.876   3.869   0.675
22232WAT      O66937   9.205   1.108   2.557
22232WAT     H166938   9.277   1.040   2.571
22232WAT     H266939   9.247   1.199   2.552
22233WAT      O66940   3.994   8.963   5.001
22233WAT     H166941   3.986   9.063   4.996
22233WAT     H266942   3.912   8.921   4.963
22234WAT      O66943   0.190   8.576   2.062
22234WAT     H166944   0.178   8.600   2.158
22234WAT     H266945   0.172   8.656   2.005
22235WAT      O66946   8.925   7.203   3.486
22235WAT     H166947   9.009   7.152   3.469
22235WAT     H266948   8.947   7.292   3.525
22236WAT      O66949   3.360   2.685   5.273
22236WAT     H166950   3.432   2.724   5.216
22236WAT     H266951   3.349   2.740   5.356
22237WAT      O66952   7.854   8.234   8.729
22237WAT     H166953   7.904   8.211   8.645
22237WAT     H266954   7.914   8.222   8.808
22238WAT      O66955   6.125   6.222   5.410
22238WAT     H166956   6.181   6.159   5.464
22238WAT     H266957   6.037   6.179   5.389
22239WAT      O66958   6.110   3.091   3.862
22239WAT     H166959   6.086   3.134   3.949
22239WAT     H266960   6.050   3.126   3.790
22240WAT      O66961   5.828   5.325   0.731
22240WAT     H166962   5.890   5.317   0.809
22240WAT     H266963   5.764   5.249   0.731
22241WAT      O66964   5.961   6.185   9.488
22241WAT     H166965   5.865   6.180   9.462
22241WAT     H266966   6.018   6.160   9.410
22242WAT      O66967   2.027   3.925   9.378
22242WAT     H166968   1.988   3.880   9.459
22242WAT     H266969   1.998   4.021   9.377
22243WAT      O66970   0.520   7.365   3.410
22243WAT     H166971   0.577   7.446   3.392
22243WAT     H266972   0.424   7.389   3.396
22244WAT      O66973   6.650   8.373   4.325
22244WAT     H166974   6.734   8.361   4.378
22244WAT     H266975   6.660   8.329   4.236
22245WAT      O66976   1.559   1.277   7.038
22245WAT     H166977   1.645   1.252   7.083
22245WAT     H266978   1.492   1.304   7.107
22246WAT      O66979   3.298   2.480   7.599
22246WAT     H166980   3.363   2.496   7.674
22246WAT     H266981   3.320   2.540   7.523
22247WAT      O66982   9.145   9.644   7.835
22247WAT     H166983   9.125   9.551   7.804
22247WAT     H266984   9.150   9.705   7.756
22248WAT      O66985   6.062   3.265   2.348
22248WAT     H166986   6.050   3.168   2.328
22248WAT     H266987   6.014   3.319   2.279
22249WAT      O66988   9.452   8.643   9.741
22249WAT     H166989   9.437   8.561   9.796
22249WAT     H266990   9.400   8.719   9.781
22250WAT      O66991   8.967   8.021   2.822
22250WAT     H166992   9.065   8.014   2.840
22250WAT     H266993   8.920   8.046   2.907
22251WAT      O66994   9.025   2.438   8.222
22251WAT     H166995   8.964   2.361   8.205
22251WAT     H266996   9.085   2.452   8.144
22252WAT      O66997   8.018   8.732   8.868
22252WAT     H166998   8.061   8.698   8.951
22252WAT     H266999   8.074   8.805   8.829
22253WAT      O67000   3.346   8.483   8.793
22253WAT     H167001   3.361   8.415   8.865
22253WAT     H267002   3.255   8.522   8.805
22254WAT      O67003   1.766   1.727   1.232
22254WAT     H167004   1.797   1.636   1.258
22254WAT     H267005   1.733   1.775   1.314
22255WAT      O67006   4.077   7.527   2.977
22255WAT     H167007   4.023   7.448   3.006
22255WAT     H267008   4.066   7.600   3.044
22256WAT      O67009   3.897   3.234   2.397
22256WAT     H167010   3.896   3.315   2.456
22256WAT     H267011   3.840   3.250   2.317
22257WAT      O67012   3.498   4.980   8.488
22257WAT     H167013   3.450   4.961   8.403
22257WAT     H267014   3.490   4.901   8.549
22258WAT      O67015   8.182   0.245   6.473
22258WAT     H167016   8.186   0.338   6.509
22258WAT     H267017   8.098   0.233   6.420
22259WAT      O67018   7.239   3.944   9.313
22259WAT     H167019   7.286   4.004   9.249
22259WAT     H267020   7.152   3.914   9.273
22260WAT      O67021   8.762   9.094   7.773
22260WAT     H167022   8.792   9.182   7.735
22260WAT     H267023   8.756   9.101   7.873
22261WAT      O67024   2.291   3.329   7.206
22261WAT     H167025   2.362   3.373   7.151
22261WAT     H267026   2.222   3.396   7.231
22262WAT      O67027   9.222   6.018   9.327
22262WAT     H167028   9.299   5.969   9.288
22262WAT     H267029   9.156   6.040   9.255
22263WAT      O67030   8.604   4.919   5.333
22263WAT     H167031   8.540   4.987   5.367
22263WAT     H267032   8.673   4.900   5.403
22264WAT      O67033   5.024   2.302   0.965
22264WAT     H167034   4.933   2.298   0.925
22264WAT     H267035   5.087   2.346   0.900
22265WAT      O67036   1.933   7.005   6.589
22265WAT     H167037   1.957   6.909   6.602
22265WAT     H267038   2.017   7.059   6.575
22266WAT      O67039   6.707   1.949   1.547
22266WAT     H167040   6.737   2.036   1.508
22266WAT     H267041   6.669   1.965   1.638
22267WAT      O67042   3.923   6.161   3.133
22267WAT     H167043   3.855   6.151   3.060
22267WAT     H267044   4.000   6.100   3.115
22268WAT      O67045   1.094   0.225   8.375
22268WAT     H167046   1.036   0.288   8.325
22268WAT     H267047   1.113   0.144   8.319
22269WAT      O67048   3.610   4.347   1.291
22269WAT     H167049   3.602   4.352   1.191
22269WAT     H267050   3.539   4.287   1.327
22270WAT      O67051   4.331   1.914   4.700
22270WAT     H167052   4.280   1.983   4.753
22270WAT     H267053   4.420   1.951   4.675
22271WAT      O67054   2.154   1.859   5.778
22271WAT     H167055   2.175   1.761   5.778
22271WAT     H267056   2.055   1.871   5.786
22272WAT      O67057   0.273   5.802   2.825
22272WAT     H167058   0.258   5.875   2.891
22272WAT     H267059   0.369   5.800   2.798
22273WAT      O67060   9.685   7.536   6.751
22273WAT     H167061   9.679   7.614   6.688
22273WAT     H267062   9.634   7.556   6.834
22274WAT      O67063   0.952   6.941   2.906
22274WAT     H167064   0.904   6.873   2.961
22274WAT     H267065   0.951   6.914   2.810
22275WAT      O67066   3.368   3.467   6.418
22275WAT     H167067   3.464   3.447   6.437
22275WAT     H267068   3.356   3.484   6.320
22276WAT      O67069   3.939   6.663   0.287
22276WAT     H167070   3.888   6.662   0.200
22276WAT     H267071   3.885   6.710   0.356
22277WAT      O67072   3.946   8.493   2.501
22277WAT     H167073   3.920   8.397   2.507
22277WAT     H267074   4.015   8.514   2.569
22278WAT      O67075   5.931   3.387   3.134
22278WAT     H167076   5.850   3.413   3.186
22278WAT     H267077   5.975   3.469   3.097
22279WAT      O67078   8.887   2.200   2.149
22279WAT     H167079   8.863   2.115   2.102
22279WAT     H267080   8.929   2.178   2.237
22280WAT      O67081   7.224   2.185   3.551
22280WAT     H167082   7.226   2.088   3.524
22280WAT     H267083   7.308   2.229   3.521
22281WAT      O67084   9.559   7.158   6.336
22281WAT     H167085   9.612   7.243   6.330
22281WAT     H267086   9.505   7.158   6.420
22282WAT      O67087   6.536   8.092   1.160
22282WAT     H167088   6.590   8.073   1.078
22282WAT     H267089   6.597   8.096   1.239
22283WAT      O67090   5.135   7.931   3.274
22283WAT     H167091   5.194   7.861   3.315
22283WAT     H267092   5.158   8.020   3.313
22284WAT      O67093   2.029   1.372   0.208
22284WAT     H167094   2.043   1.357   0.306
22284WAT     H267095   1.993   1.289   0.166
22285WAT      O67096   9.665   7.725   4.522
22285WAT     H167097   9.621   7.682   4.601
22285WAT     H267098   9.662   7.824   4.531
22286WAT      O67099   9.190   3.863   4.714
22286WAT     H167100   9.207   3.948   4.665
22286WAT     H267101   9.160   3.884   4.807
22287WAT      O67102   0.631   1.002   3.569
22287WAT     H167103   0.545   1.044   3.539
22287WAT     H267104   0.706   1.066   3.556
22288WAT      O67105   3.131   7.636   2.530
22288WAT     H167106   3.042   7.663   2.494
22288WAT     H267107   3.140   7.537   2.526
22289WAT      O67108   4.164   9.132   7.748
22289WAT     H167109   4.087   9.096   7.801
22289WAT     H267110   4.234   9.167   7.810
22290WAT      O67111   2.796   7.570   2.930
22290WAT     H167112   2.753   7.549   3.018
22290WAT     H267113   2.729   7.559   2.856
22291WAT      O67114   2.249   3.143   3.236
22291WAT     H167115   2.222   3.062   3.183
22291WAT     H267116   2.344   3.167   3.213
22292WAT      O67117   4.577   5.737   4.504
22292WAT     H167118   4.588   5.772   4.411
22292WAT     H267119   4.610   5.643   4.509
22293WAT      O67120   8.475   4.848   2.762
22293WAT     H167121   8.383   4.887   2.761
22293WAT     H267122   8.480   4.776   2.832
22294WAT      O67123   8.842   3.433   4.170
22294WAT     H167124   8.902   3.514   4.170
22294WAT     H267125   8.798   3.425   4.260
22295WAT      O67126   4.023   6.896   5.613
22295WAT     H167127   4.006   6.861   5.521
22295WAT     H267128   4.122   6.903   5.628
22296WAT      O67129   4.593   3.189   3.723
22296WAT     H167130   4.683   3.186   3.680
22296WAT     H267131   4.534   3.117   3.684
22297WAT      O67132   6.241   1.173   3.211
22297WAT     H167133   6.208   1.165   3.305
22297WAT     H267134   6.164   1.194   3.151
22298WAT      O67135   7.686   2.068   1.401
22298WAT     H167136   7.663   2.035   1.310
22298WAT     H267137   7.603   2.099   1.448
22299WAT      O67138   0.055   4.345   4.787
22299WAT     H167139   0.047   4.262   4.731
22299WAT     H267140   0.137   4.395   4.760
22300WAT      O67141   4.481   2.267   9.748
22300WAT     H167142   4.413   2.223   9.689
22300WAT     H267143   4.448   2.266   9.843
22301WAT      O67144   8.348   5.472   7.362
22301WAT     H167145   8.398   5.551   7.327
22301WAT     H267146   8.358   5.396   7.298
22302WAT      O67147   1.163   8.145   2.989
22302WAT     H167148   1.262   8.157   3.000
22302WAT     H267149   1.129   8.206   2.918
22303WAT      O67150   2.291   8.130   0.127
22303WAT     H167151   2.362   8.060   0.120
22303WAT     H267152   2.331   8.214   0.163
22304WAT      O67153   6.791   1.369   8.751
22304WAT     H167154   6.744   1.291   8.709
22304WAT     H267155   6.811   1.349   8.847
22305WAT      O67156   2.417   7.309   1.977
22305WAT     H167157   2.516   7.300   1.975
22305WAT     H267158   2.386   7.357   1.894
22306WAT      O67159   1.770   6.911   8.068
22306WAT     H167160   1.838   6.837   8.064
22306WAT     H267161   1.685   6.876   8.106
22307WAT      O67162   9.108   5.055   6.694
22307WAT     H167163   9.107   4.959   6.665
22307WAT     H267164   9.118   5.059   6.794
22308WAT      O67165   5.220   7.364   7.723
22308WAT     H167166   5.232   7.265   7.723
22308WAT     H267167   5.258   7.402   7.807
22309WAT      O67168   0.544   6.367   6.474
22309WAT     H167169   0.501   6.350   6.385
22309WAT     H267170   0.487   6.431   6.526
22310WAT      O67171   2.977   6.986   7.929
22310WAT     H167172   2.925   7.040   7.995
22310WAT     H267173   3.051   7.042   7.892
22311WAT      O67174   4.959   5.341   4.257
22311WAT     H167175   4.928   5.281   4.331
22311WAT     H267176   5.059   5.345   4.257
22312WAT      O67177   9.770   6.199   7.203
22312WAT     H167178   9.810   6.187   7.294
22312WAT     H267179   9.765   6.110   7.157
22313WAT      O67180   0.229   3.558   1.774
22313WAT     H167181   0.178   3.491   1.720
22313WAT     H267182   0.285   3.614   1.713
22314WAT      O67183   4.224   4.109   5.036
22314WAT     H167184   4.127   4.105   5.057
22314WAT     H267185   4.255   4.020   5.002
22315WAT      O67186   0.419   8.599   3.856
22315WAT     H167187   0.484   8.549   3.799
22315WAT     H267188   0.327   8.589   3.818
22316WAT      O67189   9.421   8.926   0.579
22316WAT     H167190   9.321   8.916   0.572
22316WAT     H267191   9.446   8.940   0.674
22317WAT      O67192   7.166   6.421   1.060
22317WAT     H167193   7.090   6.478   1.092
22317WAT     H267194   7.182   6.347   1.125
22318WAT      O67195   3.285   8.781   2.601
22318WAT     H167196   3.190   8.802   2.578
22318WAT     H267197   3.319   8.848   2.667
22319WAT      O67198   3.950   2.022   6.290
22319WAT     H167199   3.944   2.048   6.193
22319WAT     H267200   3.867   1.971   6.315
22320WAT      O67201   1.165   5.111   8.145
22320WAT     H167202   1.187   5.184   8.210
22320WAT     H267203   1.190   5.022   8.185
22321WAT      O67204   1.939   5.302   8.834
22321WAT     H167205   1.989   5.271   8.753
22321WAT     H267206   1.921   5.400   8.827
22322WAT      O67207   4.814   4.298   0.594
22322WAT     H167208   4.836   4.209   0.633
22322WAT     H267209   4.813   4.367   0.667
22323WAT      O67210   9.240   0.312   5.214
22323WAT     H167211   9.254   0.410   5.227
22323WAT     H267212   9.276   0.262   5.293
22324WAT      O67213   8.125   4.901   6.786
22324WAT     H167214   8.214   4.886   6.742
22324WAT     H267215   8.137   4.957   6.868
22325WAT      O67216   3.952   4.341   5.612
22325WAT     H167217   3.857   4.369   5.599
22325WAT     H267218   3.981   4.287   5.533
22326WAT      O67219   3.537   7.308   5.570
22326WAT     H167220   3.530   7.385   5.634
22326WAT     H267221   3.462   7.244   5.589
22327WAT      O67222   4.070   4.090   5.943
22327WAT     H167223   4.098   4.151   5.868
22327WAT     H267224   4.146   4.077   6.005
22328WAT      O67225   4.503   7.962   4.163
22328WAT     H167226   4.464   7.964   4.071
22328WAT     H267227   4.546   8.050   4.182
22329WAT      O67228   3.108   8.168   4.164
22329WAT     H167229   3.075   8.182   4.257
22329WAT     H267230   3.072   8.081   4.128
22330WAT      O67231   2.490   1.198   7.989
22330WAT     H167232   2.421   1.156   7.930
22330WAT     H267233   2.492   1.151   8.077
22331WAT      O67234   4.220   0.241   9.498
22331WAT     H167235   4.292   0.172   9.496
22331WAT     H267236   4.212   0.283   9.407
22332WAT      O67237   5.631   0.730   0.760
22332WAT     H167238   5.602   0.635   0.774
22332WAT     H267239   5.636   0.777   0.848
22333WAT      O67240   6.694   2.615   3.597
22333WAT     H167241   6.786   2.590   3.628
22333WAT     H267242   6.679   2.579   3.505
22334WAT      O67243   4.231   8.276   0.092
22334WAT     H167244   4.192   8.246   0.179
22334WAT     H267245   4.224   8.375   0.085
22335WAT      O67246   0.650   0.923   7.442
22335WAT     H167247   0.554   0.911   7.417
22335WAT     H267248   0.658   1.001   7.504
22336WAT      O67249   8.949   8.639   9.488
22336WAT     H167250   8.979   8.661   9.581
22336WAT     H267251   8.873   8.699   9.463
22337WAT      O67252   9.376   4.130   5.553
22337WAT     H167253   9.453   4.086   5.599
22337WAT     H267254   9.291   4.109   5.602
22338WAT      O67255   4.495   4.263   0.688
22338WAT     H167256   4.441   4.255   0.604
22338WAT     H267257   4.499   4.359   0.716
22339WAT      O67258   7.112   1.254   4.290
22339WAT     H167259   7.097   1.351   4.272
22339WAT     H267260   7.026   1.212   4.321
22340WAT      O67261   3.889   9.631   6.416
22340WAT     H167262   3.986   9.621   6.434
22340WAT     H267263   3.875   9.702   6.347
22341WAT      O67264   3.713   5.022   1.614
22341WAT     H167265   3.735   4.925   1.616
22341WAT     H267266   3.670   5.045   1.526
22342WAT      O67267   2.504   4.621   6.703
22342WAT     H167268   2.418   4.593   6.745
22342WAT     H267269   2.528   4.713   6.735
22343WAT      O67270   0.190   5.487   8.364
22343WAT     H167271   0.171   5.583   8.347
22343WAT     H267272   0.189   5.436   8.278
22344WAT      O67273   2.837   4.587   3.566
22344WAT     H167274   2.822   4.686   3.566
22344WAT     H267275   2.933   4.568   3.544
22345WAT      O67276   0.595   8.952   3.430
22345WAT     H167277   0.622   8.859   3.408
22345WAT     H267278   0.642   9.016   3.368
22346WAT      O67279   8.820   3.081   6.176
22346WAT     H167280   8.813   3.150   6.104
22346WAT     H267281   8.916   3.066   6.199
22347WAT      O67282   2.480   3.331   3.982
22347WAT     H167283   2.490   3.345   3.884
22347WAT     H267284   2.455   3.235   3.999
22348WAT      O67285   4.038   2.267   9.881
22348WAT     H167286   4.129   2.273   9.921
22348WAT     H267287   4.019   2.350   9.828
22349WAT      O67288   2.284   0.731   8.343
22349WAT     H167289   2.249   0.792   8.413
22349WAT     H267290   2.384   0.726   8.350
22350WAT      O67291   8.396   1.022   2.031
22350WAT     H167292   8.337   1.102   2.027
22350WAT     H267293   8.397   0.976   1.943
22351WAT      O67294   7.934   6.571   3.216
22351WAT     H167295   7.886   6.593   3.131
22351WAT     H267296   8.015   6.517   3.196
22352WAT      O67297   4.458   0.029   4.706
22352WAT     H167298   4.412   0.117   4.716
22352WAT     H267299   4.556   0.044   4.699
22353WAT      O67300   7.640   3.644   8.781
22353WAT     H167301   7.541   3.651   8.793
22353WAT     H267302   7.661   3.631   8.684
22354WAT      O67303   8.326   0.339   5.589
22354WAT     H167304   8.292   0.430   5.569
22354WAT     H267305   8.295   0.275   5.519
22355WAT      O67306   9.023   4.032   7.114
22355WAT     H167307   9.109   4.021   7.064
22355WAT     H267308   9.027   3.981   7.200
22356WAT      O67309   4.800   1.637   8.701
22356WAT     H167310   4.822   1.578   8.779
22356WAT     H267311   4.874   1.633   8.635
22357WAT      O67312   3.868   2.931   9.491
22357WAT     H167313   3.949   2.987   9.509
22357WAT     H267314   3.795   2.988   9.452
22358WAT      O67315   6.773   7.093   5.126
22358WAT     H167316   6.710   7.026   5.166
22358WAT     H267317   6.736   7.185   5.138
22359WAT      O67318   6.882   0.812   0.510
22359WAT     H167319   6.908   0.895   0.557
22359WAT     H267320   6.872   0.737   0.577
22360WAT      O67321   1.908   9.401   0.646
22360WAT     H167322   1.865   9.313   0.629
22360WAT     H267323   1.907   9.456   0.562
22361WAT      O67324   5.463   6.310   3.488
22361WAT     H167325   5.376   6.344   3.451
22361WAT     H267326   5.468   6.211   3.476
22362WAT      O67327   4.989   1.517   2.468
22362WAT     H167328   4.906   1.559   2.431
22362WAT     H267329   4.973   1.420   2.485
22363WAT      O67330   5.404   5.383   3.608
22363WAT     H167331   5.323   5.441   3.611
22363WAT     H267332   5.421   5.346   3.700
22364WAT      O67333   9.580   9.652   2.614
22364WAT     H167334   9.607   9.747   2.601
22364WAT     H267335   9.503   9.648   2.677
22365WAT      O67336   7.261   3.229   3.082
22365WAT     H167337   7.280   3.166   3.157
22365WAT     H267338   7.257   3.323   3.116
22366WAT      O67339   8.000   9.083   2.735
22366WAT     H167340   8.059   9.015   2.691
22366WAT     H267341   8.047   9.172   2.734
22367WAT      O67342   8.519   6.709   7.941
22367WAT     H167343   8.574   6.755   7.872
22367WAT     H267344   8.430   6.754   7.949
22368WAT      O67345   8.099   4.220   0.245
22368WAT     H167346   8.148   4.243   0.329
22368WAT     H267347   8.153   4.156   0.191
22369WAT      O67348   8.022   8.443   1.999
22369WAT     H167349   7.968   8.371   2.042
22369WAT     H267350   8.119   8.425   2.014
22370WAT      O67351   9.391   9.681   3.738
22370WAT     H167352   9.319   9.728   3.788
22370WAT     H267353   9.478   9.727   3.755
22371WAT      O67354   3.626   2.784   7.779
22371WAT     H167355   3.715   2.753   7.811
22371WAT     H267356   3.637   2.864   7.720
22372WAT      O67357   1.923   2.361   4.923
22372WAT     H167358   1.860   2.287   4.901
22372WAT     H267359   1.955   2.351   5.017
22373WAT      O67360   9.838   9.407   5.853
22373WAT     H167361   9.827   9.491   5.801
22373WAT     H267362   9.750   9.380   5.892
22374WAT      O67363   9.621   6.827   1.547
22374WAT     H167364   9.530   6.837   1.506
22374WAT     H267365   9.647   6.913   1.590
22375WAT      O67366   8.514   7.967   7.917
22375WAT     H167367   8.502   8.045   7.978
22375WAT     H267368   8.546   7.888   7.969
22376WAT      O67369   9.361   5.838   5.945
22376WAT     H167370   9.281   5.785   5.973
22376WAT     H267371   9.344   5.878   5.855
22377WAT      O67372   1.391   2.563   5.468
22377WAT     H167373   1.301   2.544   5.508
22377WAT     H267374   1.381   2.630   5.395
22378WAT      O67375   1.298   3.539   9.624
22378WAT     H167376   1.330   3.500   9.711
22378WAT     H267377   1.337   3.630   9.611
22379WAT      O67378   7.280   2.619   7.373
22379WAT     H167379   7.376   2.630   7.399
22379WAT     H267380   7.234   2.562   7.441
22380WAT      O67381   6.528   3.270   5.636
22380WAT     H167382   6.447   3.227   5.596
22380WAT     H267383   6.516   3.276   5.735
22381WAT      O67384   0.911   3.108   3.704
22381WAT     H167385   0.928   3.203   3.675
22381WAT     H267386   0.817   3.101   3.738
22382WAT      O67387   7.821   0.102   5.067
22382WAT     H167388   7.723   0.116   5.081
22382WAT     H267389   7.858   0.045   5.140
22383WAT      O67390   9.293   3.469   7.375
22383WAT     H167391   9.319   3.377   7.347
22383WAT     H267392   9.231   3.464   7.454
22384WAT      O67393   4.861   6.959   5.048
22384WAT     H167394   4.945   6.920   5.010
22384WAT     H267395   4.787   6.952   4.981
22385WAT      O67396   7.934   3.603   2.147
22385WAT     H167397   7.984   3.684   2.115
22385WAT     H267398   7.848   3.596   2.097
22386WAT      O67399   7.585   0.502   9.440
22386WAT     H167400   7.569   0.552   9.355
22386WAT     H267401   7.632   0.416   9.419
22387WAT      O67402   6.459   5.336   5.795
22387WAT     H167403   6.453   5.239   5.819
22387WAT     H267404   6.468   5.344   5.695
22388WAT      O67405   1.486   2.620   6.460
22388WAT     H167406   1.533   2.705   6.436
22388WAT     H267407   1.396   2.642   6.499
22389WAT      O67408   7.333   4.473   6.764
22389WAT     H167409   7.284   4.538   6.705
22389WAT     H267410   7.323   4.381   6.726
22390WAT      O67411   3.267   3.026   8.441
22390WAT     H167412   3.284   3.103   8.380
22390WAT     H267413   3.305   2.942   8.402
22391WAT      O67414   2.373   2.229   4.461
22391WAT     H167415   2.401   2.290   4.535
22391WAT     H267416   2.298   2.271   4.410
22392WAT      O67417   5.426   7.243   2.113
22392WAT     H167418   5.458   7.159   2.156
22392WAT     H267419   5.334   7.228   2.077
22393WAT      O67420   4.584   5.343   1.921
22393WAT     H167421   4.496   5.362   1.877
22393WAT     H267422   4.568   5.311   2.014
22394WAT      O67423   5.279   3.956   3.983
22394WAT     H167424   5.230   3.990   3.902
22394WAT     H267425   5.325   3.871   3.960
22395WAT      O67426   4.883   7.087   8.090
22395WAT     H167427   4.880   7.169   8.033
22395WAT     H267428   4.792   7.069   8.128
22396WAT      O67429   4.906   0.153   5.438
22396WAT     H167430   4.975   0.127   5.370
22396WAT     H267431   4.944   0.222   5.499
22397WAT      O67432   2.807   1.876   3.429
22397WAT     H167433   2.794   1.866   3.331
22397WAT     H267434   2.718   1.877   3.475
22398WAT      O67435   2.533   5.461   7.346
22398WAT     H167436   2.561   5.523   7.272
22398WAT     H267437   2.542   5.508   7.434
22399WAT      O67438   2.268   5.718   1.148
22399WAT     H167439   2.188   5.659   1.161
22399WAT     H267440   2.349   5.675   1.188
22400WAT      O67441   3.993   6.797   2.249
22400WAT     H167442   4.006   6.707   2.292
22400WAT     H267443   4.032   6.797   2.158
22401WAT      O67444   0.214   0.128   2.132
22401WAT     H167445   0.196   0.189   2.054
22401WAT     H267446   0.184   0.171   2.216
22402WAT      O67447   2.625   7.566   2.713
22402WAT     H167448   2.675   7.581   2.628
22402WAT     H267449   2.569   7.484   2.705
22403WAT      O67450   7.302   9.763   2.815
22403WAT     H167451   7.333   9.668   2.821
22403WAT     H267452   7.209   9.766   2.779
22404WAT      O67453   1.345   7.834   5.790
22404WAT     H167454   1.411   7.836   5.715
22404WAT     H267455   1.389   7.800   5.873
22405WAT      O67456   3.618   8.022   4.420
22405WAT     H167457   3.667   8.000   4.336
22405WAT     H267458   3.520   8.031   4.400
22406WAT      O67459   7.528   7.984   7.543
22406WAT     H167460   7.550   8.023   7.632
22406WAT     H267461   7.610   7.940   7.505
22407WAT      O67462   1.921   2.054   5.736
22407WAT     H167463   1.910   2.150   5.709
22407WAT     H267464   1.931   1.997   5.655
22408WAT      O67465   4.807   0.983   4.845
22408WAT     H167466   4.900   1.018   4.846
22408WAT     H267467   4.745   1.053   4.809
22409WAT      O67468   7.281   7.567   6.443
22409WAT     H167469   7.340   7.641   6.474
22409WAT     H267470   7.268   7.501   6.518
22410WAT      O67471   6.467   5.590   1.364
22410WAT     H167472   6.563   5.614   1.353
22410WAT     H267473   6.431   5.553   1.278
22411WAT      O67474   9.479   7.136   1.240
22411WAT     H167475   9.579   7.125   1.248
22411WAT     H267476   9.453   7.227   1.270
22412WAT      O67477   7.743   8.727   4.806
22412WAT     H167478   7.675   8.700   4.739
22412WAT     H267479   7.797   8.804   4.771
22413WAT      O67480   1.938   2.967   0.275
22413WAT     H167481   1.953   3.047   0.333
22413WAT     H267482   1.844   2.969   0.240
22414WAT      O67483   7.093   3.586   5.457
22414WAT     H167484   7.188   3.600   5.483
22414WAT     H267485   7.068   3.652   5.385
22415WAT      O67486   7.932   6.081   7.769
22415WAT     H167487   7.963   6.153   7.707
22415WAT     H267488   7.834   6.092   7.788
22416WAT      O67489   9.397   2.205   0.058
22416WAT     H167490   9.335   2.275   0.025
22416WAT     H267491   9.409   2.215   0.157
22417WAT      O67492   1.850   8.095   3.615
22417WAT     H167493   1.789   8.032   3.567
22417WAT     H267494   1.844   8.186   3.573
22418WAT      O67495   9.623   7.038   0.824
22418WAT     H167496   9.540   7.061   0.873
22418WAT     H267497   9.700   7.087   0.863
22419WAT      O67498   6.544   0.043   9.596
22419WAT     H167499   6.477   0.116   9.584
22419WAT     H267500   6.517  -0.016   9.672
22420WAT      O67501   4.072   7.444   2.492
22420WAT     H167502   4.097   7.496   2.410
22420WAT     H267503   4.066   7.506   2.570
22421WAT      O67504   5.551   3.037   5.083
22421WAT     H167505   5.623   3.079   5.137
22421WAT     H267506   5.567   2.938   5.075
22422WAT      O67507   9.104   8.280   5.316
22422WAT     H167508   9.181   8.273   5.380
22422WAT     H267509   9.059   8.191   5.308
22423WAT      O67510   3.725   4.153   3.605
22423WAT     H167511   3.725   4.157   3.505
22423WAT     H267512   3.687   4.237   3.642
22424WAT      O67513   1.340   3.104   4.150
22424WAT     H167514   1.259   3.137   4.198
22424WAT     H267515   1.416   3.168   4.166
22425WAT      O67516   7.450   5.684   1.630
22425WAT     H167517   7.430   5.655   1.536
22425WAT     H267518   7.444   5.605   1.691
22426WAT      O67519   1.264   3.228   0.026
22426WAT     H167520   1.166   3.211   0.013
22426WAT     H267521   1.298   3.173   0.102
22427WAT      O67522   5.581   4.120   8.127
22427WAT     H167523   5.534   4.033   8.115
22427WAT     H267524   5.674   4.103   8.161
22428WAT      O67525   2.661   3.631   0.421
22428WAT     H167526   2.728   3.687   0.373
22428WAT     H267527   2.586   3.689   0.454
22429WAT      O67528   6.688   9.345   8.046
22429WAT     H167529   6.705   9.255   8.087
22429WAT     H267530   6.733   9.349   7.956
22430WAT      O67531   6.033   2.951   6.719
22430WAT     H167532   5.948   2.947   6.666
22430WAT     H267533   6.020   2.906   6.807
22431WAT      O67534   5.943   4.589   8.022
22431WAT     H167535   5.995   4.515   7.979
22431WAT     H267536   6.004   4.647   8.075
22432WAT      O67537   3.832   1.892   3.796
22432WAT     H167538   3.902   1.834   3.836
22432WAT     H267539   3.776   1.838   3.732
22433WAT      O67540   3.123   4.447   8.330
22433WAT     H167541   3.171   4.512   8.271
22433WAT     H267542   3.026   4.447   8.307
22434WAT      O67543   3.334   9.632   1.969
22434WAT     H167544   3.393   9.641   2.049
22434WAT     H267545   3.389   9.599   1.891
22435WAT      O67546   6.784   6.061   5.454
22435WAT     H167547   6.772   5.968   5.419
22435WAT     H267548   6.815   6.121   5.380
22436WAT      O67549   8.833   5.563   5.032
22436WAT     H167550   8.754   5.533   5.086
22436WAT     H267551   8.891   5.485   5.012
22437WAT      O67552   5.774   4.212   6.874
22437WAT     H167553   5.866   4.207   6.913
22437WAT     H267554   5.769   4.290   6.811
22438WAT      O67555   3.932   5.269   7.833
22438WAT     H167556   3.972   5.215   7.907
22438WAT     H267557   4.003   5.328   7.794
22439WAT      O67558   4.811   1.017   5.114
22439WAT     H167559   4.786   1.006   5.018
22439WAT     H267560   4.898   1.066   5.121
22440WAT      O67561   0.140   7.012   6.573
22440WAT     H167562   0.180   6.974   6.656
22440WAT     H267563   0.066   7.075   6.597
22441WAT      O67564   3.841   5.963   5.487
22441WAT     H167565   3.910   5.979   5.417
22441WAT     H267566   3.781   6.043   5.496
22442WAT      O67567   6.340   8.496   6.635
22442WAT     H167568   6.273   8.504   6.561
22442WAT     H267569   6.380   8.404   6.634
22443WAT      O67570   8.057   7.239   8.333
22443WAT     H167571   8.023   7.154   8.372
22443WAT     H267572   8.087   7.223   8.239
22444WAT      O67573   4.331   4.677   5.835
22444WAT     H167574   4.369   4.737   5.906
22444WAT     H267575   4.248   4.633   5.870
22445WAT      O67576   3.041   6.321   2.758
22445WAT     H167577   3.120   6.279   2.804
22445WAT     H267578   3.071   6.402   2.708
22446WAT      O67579   2.460   4.290   6.150
22446WAT     H167580   2.483   4.194   6.135
22446WAT     H267581   2.475   4.342   6.067
22447WAT      O67582   1.511   5.694   8.974
22447WAT     H167583   1.553   5.623   9.030
22447WAT     H267584   1.435   5.736   9.025
22448WAT      O67585   5.094   6.076   6.920
22448WAT     H167586   5.165   6.032   6.864
22448WAT     H267587   5.036   6.133   6.861
22449WAT      O67588   8.152   6.105   3.171
22449WAT     H167589   8.140   6.006   3.157
22449WAT     H267590   8.120   6.130   3.262
22450WAT      O67591   0.516   1.962   7.373
22450WAT     H167592   0.557   1.870   7.373
22450WAT     H267593   0.579   2.026   7.416
22451WAT      O67594   0.133   2.582   6.128
22451WAT     H167595   0.069   2.641   6.178
22451WAT     H267596   0.218   2.633   6.112
22452WAT      O67597   5.690   6.281   4.653
22452WAT     H167598   5.641   6.364   4.678
22452WAT     H267599   5.687   6.269   4.554
22453WAT      O67600   3.109   2.747   5.577
22453WAT     H167601   3.052   2.828   5.569
22453WAT     H267602   3.073   2.688   5.649
22454WAT      O67603   2.267   2.292   9.271
22454WAT     H167604   2.209   2.374   9.266
22454WAT     H267605   2.222   2.216   9.225
22455WAT      O67606   0.033   6.191   8.497
22455WAT     H167607   0.021   6.268   8.434
22455WAT     H267608  -0.054   6.167   8.539
22456WAT      O67609   3.535   3.739   9.017
22456WAT     H167610   3.524   3.764   8.920
22456WAT     H267611   3.507   3.816   9.075
22457WAT      O67612   0.874   9.183   7.562
22457WAT     H167613   0.826   9.270   7.562
22457WAT     H267614   0.816   9.113   7.521
22458WAT      O67615   7.163   0.531   9.795
22458WAT     H167616   7.204   0.519   9.885
22458WAT     H267617   7.176   0.447   9.741
22459WAT      O67618   2.890   1.784   6.246
22459WAT     H167619   2.820   1.737   6.300
22459WAT     H267620   2.967   1.722   6.231
22460WAT      O67621   4.584   9.715   8.230
22460WAT     H167622   4.635   9.742   8.311
22460WAT     H267623   4.615   9.625   8.200
22461WAT      O67624   5.106   5.607   8.831
22461WAT     H167625   5.039   5.534   8.845
22461WAT     H267626   5.092   5.679   8.900
22462WAT      O67627   6.622   1.633   7.474
22462WAT     H167628   6.658   1.608   7.564
22462WAT     H267629   6.698   1.662   7.415
22463WAT      O67630   8.429   0.174   5.199
22463WAT     H167631   8.394   0.207   5.112
22463WAT     H267632   8.358   0.183   5.269
22464WAT      O67633   5.840   8.947   2.933
22464WAT     H167634   5.834   8.937   2.834
22464WAT     H267635   5.748   8.960   2.971
22465WAT      O67636   4.927   8.901   5.765
22465WAT     H167637   4.896   8.809   5.791
22465WAT     H267638   4.849   8.962   5.756
22466WAT      O67639   7.317   3.808   9.852
22466WAT     H167640   7.338   3.821   9.949
22466WAT     H267641   7.286   3.714   9.837
22467WAT      O67642   5.601   3.336   7.261
22467WAT     H167643   5.698   3.351   7.280
22467WAT     H267644   5.587   3.243   7.228
22468WAT      O67645   2.401   8.936   3.787
22468WAT     H167646   2.370   8.852   3.743
22468WAT     H267647   2.498   8.949   3.770
22469WAT      O67648   2.942   2.882   3.182
22469WAT     H167649   2.886   2.863   3.101
22469WAT     H267650   2.899   2.954   3.237
22470WAT      O67651   1.797   2.278   3.782
22470WAT     H167652   1.716   2.236   3.823
22470WAT     H267653   1.879   2.238   3.823
22471WAT      O67654   1.043   2.646   9.267
22471WAT     H167655   0.995   2.721   9.224
22471WAT     H267656   1.018   2.641   9.364
22472WAT      O67657   3.377   3.269   5.117
22472WAT     H167658   3.278   3.259   5.124
22472WAT     H267659   3.420   3.232   5.199
22473WAT      O67660   2.249   0.938   8.529
22473WAT     H167661   2.263   0.903   8.622
22473WAT     H267662   2.309   1.016   8.514
22474WAT      O67663   3.823   4.605   5.418
22474WAT     H167664   3.890   4.657   5.471
22474WAT     H267665   3.763   4.555   5.481
22475WAT      O67666   5.808   6.266   6.624
22475WAT     H167667   5.759   6.181   6.641
22475WAT     H267668   5.824   6.313   6.711
22476WAT      O67669   1.982   6.744   8.077
22476WAT     H167670   2.027   6.723   7.990
22476WAT     H267671   2.044   6.796   8.136
22477WAT      O67672   0.013   2.447   4.753
22477WAT     H167673  -0.037   2.530   4.727
22477WAT     H267674  -0.043   2.367   4.730
22478WAT      O67675   2.834   6.348   6.381
22478WAT     H167676   2.909   6.290   6.350
22478WAT     H267677   2.772   6.294   6.438
22479WAT      O67678   4.832   2.503   1.320
22479WAT     H167679   4.737   2.473   1.319
22479WAT     H267680   4.885   2.447   1.384
22480WAT      O67681   8.205   4.418   5.170
22480WAT     H167682   8.148   4.429   5.089
22480WAT     H267683   8.148   4.422   5.252
22481WAT      O67684   9.800   0.146   1.536
22481WAT     H167685   9.840   0.207   1.467
22481WAT     H267686   9.700   0.156   1.535
22482WAT      O67687   8.934   3.858   1.697
22482WAT     H167688   9.023   3.825   1.664
22482WAT     H267689   8.942   3.954   1.723
22483WAT      O67690   4.178   3.974   2.154
22483WAT     H167691   4.156   3.923   2.238
22483WAT     H267692   4.165   4.071   2.170
22484WAT      O67693   5.333   0.533   1.256
22484WAT     H167694   5.358   0.590   1.335
22484WAT     H267695   5.410   0.528   1.193
22485WAT      O67696   5.906   4.236   7.937
22485WAT     H167697   5.818   4.276   7.910
22485WAT     H267698   5.981   4.289   7.897
22486WAT      O67699   3.152   0.856   9.179
22486WAT     H167700   3.127   0.943   9.137
22486WAT     H267701   3.173   0.870   9.275
22487WAT      O67702   1.812   7.008   7.726
22487WAT     H167703   1.728   7.027   7.778
22487WAT     H267704   1.802   6.922   7.677
22488WAT      O67705   8.969   5.902   1.179
22488WAT     H167706   9.064   5.872   1.170
22488WAT     H267707   8.919   5.881   1.095
22489WAT      O67708   0.001   1.585   3.186
22489WAT     H167709  -0.059   1.514   3.149
22489WAT     H267710   0.060   1.546   3.256
22490WAT      O67711   4.131   3.444   7.305
22490WAT     H167712   4.089   3.473   7.219
22490WAT     H267713   4.126   3.519   7.370
22491WAT      O67714   2.982   0.169   2.128
22491WAT     H167715   2.950   0.114   2.206
22491WAT     H267716   3.034   0.111   2.066
22492WAT      O67717   6.677   9.477   0.427
22492WAT     H167718   6.610   9.407   0.453
22492WAT     H267719   6.635   9.540   0.360
22493WAT      O67720   1.048   5.881   7.278
22493WAT     H167721   1.096   5.797   7.303
22493WAT     H267722   1.100   5.931   7.209
22494WAT      O67723   3.193   7.289   6.727
22494WAT     H167724   3.199   7.376   6.777
22494WAT     H267725   3.267   7.229   6.757
22495WAT      O67726   1.282   6.866   2.531
22495WAT     H167727   1.272   6.939   2.599
22495WAT     H267728   1.194   6.821   2.518
22496WAT      O67729   0.440   5.485   5.481
22496WAT     H167730   0.465   5.582   5.478
22496WAT     H267731   0.518   5.432   5.513
22497WAT      O67732   3.794   9.774   3.868
22497WAT     H167733   3.712   9.759   3.922
22497WAT     H267734   3.874   9.741   3.919
22498WAT      O67735   0.273   0.907   7.786
22498WAT     H167736   0.283   0.958   7.700
22498WAT     H267737   0.286   0.970   7.863
22499WAT      O67738   2.561   5.525   4.697
22499WAT     H167739   2.590   5.605   4.750
22499WAT     H267740   2.541   5.552   4.603
22500WAT      O67741   4.522   9.037   5.521
22500WAT     H167742   4.470   8.979   5.459
22500WAT     H267743   4.520   9.131   5.487
22501WAT      O67744   2.444   8.103   0.838
22501WAT     H167745   2.385   8.182   0.823
22501WAT     H267746   2.414   8.027   0.781
22502WAT      O67747   1.298   8.224   0.645
22502WAT     H167748   1.266   8.169   0.722
22502WAT     H267749   1.270   8.181   0.559
22503WAT      O67750   9.306   5.084   9.670
22503WAT     H167751   9.323   5.145   9.592
22503WAT     H267752   9.392   5.042   9.698
22504WAT      O67753   2.927   8.268   4.724
22504WAT     H167754   2.918   8.234   4.817
22504WAT     H267755   2.839   8.306   4.694
22505WAT      O67756   7.984   8.880   9.333
22505WAT     H167757   7.951   8.868   9.239
22505WAT     H267758   7.908   8.868   9.397
22506WAT      O67759   4.447   8.089   3.745
22506WAT     H167760   4.412   8.175   3.783
22506WAT     H267761   4.455   8.098   3.646
22507WAT      O67762   1.625   9.076   8.580
22507WAT     H167763   1.623   9.099   8.677
22507WAT     H267764   1.603   9.157   8.526
22508WAT      O67765   1.988   3.226   1.297
22508WAT     H167766   1.993   3.141   1.350
22508WAT     H267767   1.999   3.304   1.359
22509WAT      O67768   4.622   5.382   0.065
22509WAT     H167769   4.541   5.334   0.099
22509WAT     H267770   4.633   5.469   0.114
22510WAT      O67771   3.177   7.360   5.403
22510WAT     H167772   3.142   7.301   5.329
22510WAT     H267773   3.228   7.304   5.469
22511WAT      O67774   0.361   8.463   4.600
22511WAT     H167775   0.334   8.389   4.539
22511WAT     H267776   0.461   8.472   4.599
22512WAT      O67777   3.277   8.212   2.383
22512WAT     H167778   3.249   8.117   2.370
22512WAT     H267779   3.205   8.261   2.432
22513WAT      O67780   2.959   2.471   4.452
22513WAT     H167781   2.975   2.520   4.538
22513WAT     H267782   3.045   2.464   4.402
22514WAT      O67783   4.337   6.270   7.208
22514WAT     H167784   4.427   6.288   7.247
22514WAT     H267785   4.279   6.226   7.277
22515WAT      O67786   2.265   7.263   5.943
22515WAT     H167787   2.275   7.272   6.043
22515WAT     H267788   2.168   7.262   5.920
22516WAT      O67789   0.929   6.324   9.875
22516WAT     H167790   0.846   6.367   9.910
22516WAT     H267791   0.940   6.346   9.778
22517WAT      O67792   1.712   7.651   4.459
22517WAT     H167793   1.614   7.649   4.477
22517WAT     H267794   1.731   7.704   4.377
22518WAT      O67795   5.333   5.837   2.112
22518WAT     H167796   5.406   5.850   2.178
22518WAT     H267797   5.245   5.839   2.159
22519WAT      O67798   2.364   9.374   5.340
22519WAT     H167799   2.349   9.290   5.287
22519WAT     H267800   2.311   9.369   5.425
22520WAT      O67801   4.561   5.558   1.555
22520WAT     H167802   4.508   5.579   1.473
22520WAT     H267803   4.534   5.619   1.629
22521WAT      O67804   8.929   4.718   9.004
22521WAT     H167805   8.847   4.661   9.004
22521WAT     H267806   8.968   4.719   8.912
22522WAT      O67807   0.879   1.681   8.846
22522WAT     H167808   0.900   1.683   8.749
22522WAT     H267809   0.826   1.762   8.871
22523WAT      O67810   2.224   7.990   7.179
22523WAT     H167811   2.265   8.078   7.154
22523WAT     H267812   2.256   7.919   7.116
22524WAT      O67813   5.167   2.661   5.540
22524WAT     H167814   5.127   2.572   5.516
22524WAT     H267815   5.215   2.699   5.462
22525WAT      O67816   9.187   6.732   6.937
22525WAT     H167817   9.095   6.745   6.973
22525WAT     H267818   9.254   6.760   7.006
22526WAT      O67819   4.909   7.247   2.892
22526WAT     H167820   4.981   7.292   2.945
22526WAT     H267821   4.921   7.266   2.795
22527WAT      O67822   0.705   1.506   1.128
22527WAT     H167823   0.722   1.605   1.128
22527WAT     H267824   0.765   1.462   1.195
22528WAT      O67825   4.117   8.770   0.223
22528WAT     H167826   4.048   8.841   0.212
22528WAT     H267827   4.197   8.808   0.269
22529WAT      O67828   6.455   9.112   1.382
22529WAT     H167829   6.415   9.042   1.323
22529WAT     H267830   6.555   9.109   1.374
22530WAT      O67831   8.279   7.459   9.699
22530WAT     H167832   8.270   7.557   9.713
22530WAT     H267833   8.273   7.438   9.601
22531WAT      O67834   0.462   5.952   7.915
22531WAT     H167835   0.488   5.883   7.848
22531WAT     H267836   0.454   5.909   8.005
22532WAT      O67837   0.153   5.683   3.734
22532WAT     H167838   0.202   5.604   3.771
22532WAT     H267839   0.210   5.728   3.664
22533WAT      O67840   6.737   2.915   4.275
22533WAT     H167841   6.756   2.854   4.199
22533WAT     H267842   6.699   2.863   4.351
22534WAT      O67843   1.815   3.889   6.886
22534WAT     H167844   1.773   3.949   6.818
22534WAT     H267845   1.902   3.854   6.852
22535WAT      O67846   8.182   4.163   8.398
22535WAT     H167847   8.267   4.178   8.347
22535WAT     H267848   8.113   4.228   8.368
22536WAT      O67849   1.272   6.713   4.284
22536WAT     H167850   1.271   6.753   4.193
22536WAT     H267851   1.276   6.786   4.353
22537WAT      O67852   9.126   1.432   5.306
22537WAT     H167853   9.175   1.487   5.374
22537WAT     H267854   9.028   1.446   5.316
22538WAT      O67855   4.640   0.818   5.174
22538WAT     H167856   4.631   0.792   5.270
22538WAT     H267857   4.721   0.877   5.162
22539WAT      O67858   2.622   9.530   1.185
22539WAT     H167859   2.573   9.607   1.226
22539WAT     H267860   2.638   9.459   1.254
22540WAT      O67861   8.127   2.400   3.647
22540WAT     H167862   8.058   2.467   3.620
22540WAT     H267863   8.165   2.356   3.565
22541WAT      O67864   6.952   2.395   6.295
22541WAT     H167865   6.947   2.490   6.263
22541WAT     H267866   7.041   2.357   6.271
22542WAT      O67867   1.030   3.059   8.747
22542WAT     H167868   0.943   3.010   8.743
22542WAT     H267869   1.079   3.033   8.830
22543WAT      O67870   1.402   5.468   4.270
22543WAT     H167871   1.494   5.504   4.280
22543WAT     H267872   1.348   5.530   4.213
22544WAT      O67873   8.897   4.954   7.814
22544WAT     H167874   8.993   4.974   7.795
22544WAT     H267875   8.849   5.039   7.836
22545WAT      O67876   6.372   7.318   5.257
22545WAT     H167877   6.281   7.309   5.216
22545WAT     H267878   6.369   7.388   5.328
22546WAT      O67879   9.265   6.551   7.280
22546WAT     H167880   9.232   6.484   7.213
22546WAT     H267881   9.186   6.598   7.321
22547WAT      O67882   6.393   5.234   3.767
22547WAT     H167883   6.483   5.229   3.723
22547WAT     H267884   6.370   5.329   3.787
22548WAT      O67885   5.671   0.424   6.117
22548WAT     H167886   5.657   0.502   6.055
22548WAT     H267887   5.593   0.363   6.111
22549WAT      O67888   4.765   9.217   2.519
22549WAT     H167889   4.666   9.213   2.504
22549WAT     H267890   4.810   9.239   2.433
22550WAT      O67891   7.780   3.984   2.340
22550WAT     H167892   7.733   4.072   2.336
22550WAT     H267893   7.839   3.974   2.260
22551WAT      O67894   5.557   6.320   7.465
22551WAT     H167895   5.466   6.282   7.485
22551WAT     H267896   5.548   6.409   7.421
22552WAT      O67897   5.840   6.156   5.359
22552WAT     H167898   5.861   6.065   5.395
22552WAT     H267899   5.862   6.160   5.262
22553WAT      O67900   6.824   0.803   4.393
22553WAT     H167901   6.786   0.711   4.396
22553WAT     H267902   6.863   0.820   4.302
22554WAT      O67903   9.622   2.708   8.585
22554WAT     H167904   9.656   2.635   8.527
22554WAT     H267905   9.616   2.676   8.680
22555WAT      O67906   9.121   6.252   9.733
22555WAT     H167907   9.210   6.210   9.719
22555WAT     H267908   9.061   6.232   9.655
22556WAT      O67909   6.841   2.581   2.622
22556WAT     H167910   6.901   2.623   2.554
22556WAT     H267911   6.895   2.555   2.702
22557WAT      O67912   5.965   0.286   1.407
22557WAT     H167913   5.920   0.201   1.380
22557WAT     H267914   5.998   0.333   1.325
22558WAT      O67915   5.069   7.211   0.888
22558WAT     H167916   4.989   7.199   0.829
22558WAT     H267917   5.061   7.296   0.940
22559WAT      O67918   2.916   6.185   0.211
22559WAT     H167919   2.995   6.243   0.193
22559WAT     H267920   2.875   6.156   0.124
22560WAT      O67921   9.241   4.928   3.010
22560WAT     H167922   9.199   4.975   2.932
22560WAT     H267923   9.333   4.897   2.984
22561WAT      O67924   8.536   4.325   4.553
22561WAT     H167925   8.486   4.290   4.632
22561WAT     H267926   8.545   4.252   4.485
22562WAT      O67927   4.796   8.995   1.170
22562WAT     H167928   4.862   8.966   1.101
22562WAT     H267929   4.814   8.945   1.255
22563WAT      O67930   6.861   0.587   0.684
22563WAT     H167931   6.857   0.617   0.780
22563WAT     H267932   6.817   0.498   0.675
22564WAT      O67933   0.661   8.105   3.861
22564WAT     H167934   0.565   8.127   3.875
22564WAT     H267935   0.702   8.172   3.799
22565WAT      O67936   6.787   3.393   2.249
22565WAT     H167937   6.837   3.473   2.283
22565WAT     H267938   6.809   3.313   2.305
22566WAT      O67939   8.715   7.588   5.535
22566WAT     H167940   8.780   7.583   5.459
22566WAT     H267941   8.623   7.604   5.499
22567WAT      O67942   6.996   0.206   7.223
22567WAT     H167943   7.033   0.114   7.237
22567WAT     H267944   6.977   0.219   7.125
22568WAT      O67945   7.439   4.144   4.026
22568WAT     H167946   7.503   4.189   4.088
22568WAT     H267947   7.372   4.211   3.993
22569WAT      O67948   6.001   6.467   8.561
22569WAT     H167949   6.019   6.462   8.659
22569WAT     H267950   5.967   6.379   8.528
22570WAT      O67951   9.611   8.167   1.264
22570WAT     H167952   9.690   8.105   1.256
22570WAT     H267953   9.642   8.255   1.298
22571WAT      O67954   6.116   5.635   2.040
22571WAT     H167955   6.065   5.720   2.056
22571WAT     H267956   6.074   5.561   2.092
22572WAT      O67957   8.679   0.183   0.305
22572WAT     H167958   8.679   0.083   0.307
22572WAT     H267959   8.678   0.219   0.398
22573WAT      O67960   8.606   1.768   3.668
22573WAT     H167961   8.676   1.697   3.668
22573WAT     H267962   8.531   1.741   3.608
22574WAT      O67963   4.658   7.035   4.539
22574WAT     H167964   4.739   7.094   4.545
22574WAT     H267965   4.604   7.060   4.459
22575WAT      O67966   1.639   5.170   4.797
22575WAT     H167967   1.580   5.193   4.719
22575WAT     H267968   1.606   5.085   4.839
22576WAT      O67969   6.155   4.411   1.638
22576WAT     H167970   6.101   4.448   1.714
22576WAT     H267971   6.096   4.353   1.581
22577WAT      O67972   9.653   2.674   7.684
22577WAT     H167973   9.660   2.640   7.590
22577WAT     H267974   9.700   2.762   7.691
22578WAT      O67975   8.272   2.769   6.976
22578WAT     H167976   8.335   2.764   6.898
22578WAT     H267977   8.202   2.838   6.957
22579WAT      O67978   8.169   7.724   6.567
22579WAT     H167979   8.096   7.661   6.543
22579WAT     H267980   8.224   7.685   6.640
22580WAT      O67981   6.423   8.933   7.362
22580WAT     H167982   6.341   8.920   7.417
22580WAT     H267983   6.444   8.849   7.313
22581WAT      O67984   9.694   2.227   9.052
22581WAT     H167985   9.683   2.192   9.145
22581WAT     H267986   9.628   2.183   8.991
22582WAT      O67987   3.616   0.496   7.828
22582WAT     H167988   3.619   0.591   7.798
22582WAT     H267989   3.708   0.458   7.826
22583WAT      O67990   9.543   2.726   6.171
22583WAT     H167991   9.628   2.776   6.159
22583WAT     H267992   9.523   2.716   6.269
22584WAT      O67993   3.025   7.399   2.915
22584WAT     H167994   2.932   7.428   2.935
22584WAT     H267995   3.073   7.378   3.001
22585WAT      O67996   3.219   2.031   9.023
22585WAT     H167997   3.134   1.979   9.017
22585WAT     H267998   3.216   2.107   8.958
22586WAT      O67999   1.807   2.945   4.102
22586WAT     H168000   1.808   2.968   4.199
22586WAT     H268001   1.836   3.025   4.048
22587WAT      O68002   3.946   5.894   0.047
22587WAT     H168003   4.013   5.820   0.040
22587WAT     H268004   3.957   5.941   0.135
22588WAT      O68005   8.925   5.565   0.984
22588WAT     H168006   8.867   5.490   0.951
22588WAT     H268007   9.021   5.541   0.971
22589WAT      O68008   5.295   1.361   1.619
22589WAT     H168009   5.388   1.375   1.654
22589WAT     H268010   5.238   1.321   1.690
22590WAT      O68011   6.313   9.297   3.057
22590WAT     H168012   6.364   9.374   3.018
22590WAT     H268013   6.222   9.292   3.015
22591WAT      O68014   5.834   3.481   6.058
22591WAT     H168015   5.789   3.396   6.031
22591WAT     H268016   5.817   3.498   6.155
22592WAT      O68017   6.354   0.626   9.717
22592WAT     H168018   6.412   0.702   9.747
22592WAT     H268019   6.265   0.633   9.762
22593WAT      O68020   7.915   5.758   2.957
22593WAT     H168021   7.953   5.684   2.902
22593WAT     H268022   7.966   5.767   3.042
22594WAT      O68023   2.384   1.874   8.159
22594WAT     H168024   2.289   1.855   8.187
22594WAT     H268025   2.428   1.789   8.131
22595WAT      O68026   8.784   0.892   4.327
22595WAT     H168027   8.797   0.966   4.394
22595WAT     H268028   8.852   0.820   4.344
22596WAT      O68029   7.990   8.709   7.839
22596WAT     H168030   8.057   8.639   7.814
22596WAT     H268031   7.899   8.681   7.810
22597WAT      O68032   5.835   0.365   6.626
22597WAT     H168033   5.907   0.342   6.560
22597WAT     H268034   5.749   0.322   6.598
22598WAT      O68035   5.923   2.158   0.252
22598WAT     H168036   6.010   2.176   0.205
22598WAT     H268037   5.922   2.207   0.339
22599WAT      O68038   4.829   9.645   1.423
22599WAT     H168039   4.894   9.716   1.397
22599WAT     H268040   4.739   9.685   1.435
22600WAT      O68041   2.512   4.546   4.313
22600WAT     H168042   2.558   4.605   4.379
22600WAT     H268043   2.573   4.471   4.287
22601WAT      O68044   5.964   5.925   1.746
22601WAT     H168045   5.995   5.972   1.829
22601WAT     H268046   5.903   5.850   1.771
22602WAT      O68047   6.523   4.732   7.093
22602WAT     H168048   6.490   4.825   7.108
22602WAT     H268049   6.623   4.729   7.103
22603WAT      O68050   3.336   1.504   7.239
22603WAT     H168051   3.422   1.554   7.228
22603WAT     H268052   3.336   1.459   7.329
22604WAT      O68053   5.076   6.769   0.568
22604WAT     H168054   5.030   6.680   0.567
22604WAT     H268055   5.102   6.792   0.662
22605WAT      O68056   0.090   7.970   3.708
22605WAT     H168057   0.006   7.925   3.739
22605WAT     H268058   0.082   8.069   3.722
22606WAT      O68059   9.042   5.582   3.953
22606WAT     H168060   9.137   5.554   3.964
22606WAT     H268061   8.987   5.545   4.028
22607WAT      O68062   9.658   7.573   3.699
22607WAT     H168063   9.688   7.486   3.661
22607WAT     H268064   9.576   7.559   3.755
22608WAT      O68065   8.382   3.925   5.406
22608WAT     H168066   8.400   3.976   5.322
22608WAT     H268067   8.302   3.963   5.451
22609WAT      O68068   4.968   8.472   2.946
22609WAT     H168069   5.066   8.471   2.966
22609WAT     H268070   4.916   8.462   3.031
22610WAT      O68071   9.053   7.270   0.374
22610WAT     H168072   9.050   7.191   0.313
22610WAT     H268073   8.971   7.325   0.361
22611WAT      O68074   7.290   2.860   5.164
22611WAT     H168075   7.334   2.777   5.128
22611WAT     H268076   7.197   2.867   5.126
22612WAT      O68077   9.378   6.668   2.576
22612WAT     H168078   9.376   6.755   2.626
22612WAT     H268079   9.352   6.684   2.480
22613WAT      O68080   9.148   2.743   4.107
22613WAT     H168081   9.063   2.789   4.133
22613WAT     H268082   9.156   2.657   4.157
22614WAT      O68083   9.502   2.526   5.200
22614WAT     H168084   9.407   2.505   5.174
22614WAT     H268085   9.534   2.605   5.147
22615WAT      O68086   9.574   2.867   7.302
22615WAT     H168087   9.618   2.846   7.214
22615WAT     H268088   9.501   2.802   7.318
22616WAT      O68089   4.603   6.656   5.576
22616WAT     H168090   4.655   6.722   5.521
22616WAT     H268091   4.506   6.661   5.550
22617WAT      O68092   5.070   3.380   1.512
22617WAT     H168093   5.021   3.444   1.453
22617WAT     H268094   5.006   3.316   1.554
22618WAT      O68095   9.477   0.252   0.517
22618WAT     H168096   9.573   0.229   0.503
22618WAT     H268097   9.426   0.240   0.432
22619WAT      O68098   5.633   1.978   4.985
22619WAT     H168099   5.669   2.070   4.968
22619WAT     H268100   5.590   1.975   5.076
22620WAT      O68101   6.760   4.140   7.821
22620WAT     H168102   6.688   4.073   7.807
22620WAT     H268103   6.830   4.103   7.882
22621WAT      O68104   2.762   0.579   3.775
22621WAT     H168105   2.747   0.575   3.874
22621WAT     H268106   2.786   0.673   3.749
22622WAT      O68107   8.713   2.170   8.821
22622WAT     H168108   8.728   2.252   8.766
22622WAT     H268109   8.727   2.088   8.766
22623WAT      O68110   2.872   8.687   6.493
22623WAT     H168111   2.791   8.693   6.434
22623WAT     H268112   2.855   8.736   6.578
22624WAT      O68113   7.648   0.838   5.467
22624WAT     H168114   7.568   0.897   5.461
22624WAT     H268115   7.628   0.750   5.424
22625WAT      O68116   8.800   0.751   5.135
22625WAT     H168117   8.876   0.805   5.099
22625WAT     H268118   8.724   0.812   5.159
22626WAT      O68119   2.700   0.838   0.356
22626WAT     H168120   2.730   0.930   0.332
22626WAT     H268121   2.682   0.834   0.455
22627WAT      O68122   8.684   1.259   4.745
22627WAT     H168123   8.689   1.309   4.658
22627WAT     H268124   8.589   1.234   4.763
22628WAT      O68125   1.351   4.836   9.056
22628WAT     H168126   1.432   4.786   9.028
22628WAT     H268127   1.306   4.787   9.131
22629WAT      O68128   5.332   0.673   0.308
22629WAT     H168129   5.279   0.758   0.317
22629WAT     H268130   5.430   0.696   0.302
22630WAT      O68131   8.136   1.745   8.645
22630WAT     H168132   8.107   1.651   8.661
22630WAT     H268133   8.060   1.797   8.606
22631WAT      O68134   2.928   4.579   9.014
22631WAT     H168135   2.973   4.666   9.030
22631WAT     H268136   2.983   4.505   9.054
22632WAT      O68137   6.510   4.371   6.378
22632WAT     H168138   6.427   4.422   6.401
22632WAT     H268139   6.560   4.349   6.462
22633WAT      O68140   8.758   3.630   3.526
22633WAT     H168141   8.782   3.541   3.563
22633WAT     H268142   8.701   3.619   3.444
22634WAT      O68143   2.422   6.337   4.970
22634WAT     H168144   2.442   6.406   4.901
22634WAT     H268145   2.349   6.370   5.030
22635WAT      O68146   8.372   5.094   8.162
22635WAT     H168147   8.370   5.180   8.111
22635WAT     H268148   8.286   5.083   8.212
22636WAT      O68149   4.414   2.461   9.456
22636WAT     H168150   4.444   2.373   9.417
22636WAT     H268151   4.324   2.484   9.418
22637WAT      O68152   2.068   8.677   3.574
22637WAT     H168153   2.108   8.590   3.602
22637WAT     H268154   2.034   8.670   3.480
22638WAT      O68155   5.188   0.330   7.231
22638WAT     H168156   5.207   0.316   7.328
22638WAT     H268157   5.232   0.414   7.200
22639WAT      O68158   1.945   8.781   9.129
22639WAT     H168159   1.985   8.819   9.212
22639WAT     H268160   1.942   8.851   9.058
22640WAT      O68161   1.427   5.489   5.696
22640WAT     H168162   1.522   5.484   5.665
22640WAT     H268163   1.369   5.522   5.622
22641WAT      O68164   7.432   7.883   7.199
22641WAT     H168165   7.377   7.862   7.281
22641WAT     H268166   7.403   7.971   7.161
22642WAT      O68167   0.586   4.048   0.506
22642WAT     H168168   0.629   4.138   0.500
22642WAT     H268169   0.648   3.984   0.550
22643WAT      O68170   1.302   4.566   8.712
22643WAT     H168171   1.313   4.473   8.745
22643WAT     H268172   1.223   4.609   8.755
22644WAT      O68173   6.061   8.991   3.171
22644WAT     H168174   6.003   9.060   3.214
22644WAT     H268175   6.023   8.967   3.081
22645WAT      O68176   9.407   6.889   1.387
22645WAT     H168177   9.430   6.958   1.317
22645WAT     H268178   9.308   6.887   1.400
22646WAT      O68179   3.564   6.678   4.323
22646WAT     H168180   3.472   6.670   4.284
22646WAT     H268181   3.629   6.701   4.250
22647WAT      O68182   3.964   8.134   3.132
22647WAT     H168183   4.035   8.177   3.076
22647WAT     H268184   3.914   8.068   3.077
22648WAT      O68185   7.497   8.521   4.358
22648WAT     H168186   7.492   8.426   4.326
22648WAT     H268187   7.426   8.536   4.427
22649WAT      O68188   2.818   0.316   8.751
22649WAT     H168189   2.779   0.236   8.705
22649WAT     H268190   2.868   0.286   8.833
22650WAT      O68191   0.553   7.964   9.441
22650WAT     H168192   0.494   7.901   9.492
22650WAT     H268193   0.523   8.058   9.457
22651WAT      O68194   0.232   0.045   9.810
22651WAT     H168195   0.216   0.138   9.776
22651WAT     H268196   0.155  -0.013   9.786
22652WAT      O68197   4.547   0.667   9.166
22652WAT     H168198   4.586   0.694   9.078
22652WAT     H268199   4.471   0.728   9.188
22653WAT      O68200   0.631   7.019   2.979
22653WAT     H168201   0.563   6.956   2.942
22653WAT     H268202   0.687   6.972   3.048
22654WAT      O68203   1.967   3.557   4.449
22654WAT     H168204   1.940   3.514   4.536
22654WAT     H268205   2.067   3.564   4.445
22655WAT      O68206   9.420   3.367   2.076
22655WAT     H168207   9.436   3.365   1.977
22655WAT     H268208   9.342   3.427   2.095
22656WAT      O68209   1.469   6.614   7.689
22656WAT     H168210   1.524   6.667   7.754
22656WAT     H268211   1.388   6.579   7.734
22657WAT      O68212   5.082   5.787   9.061
22657WAT     H168213   5.165   5.782   9.117
22657WAT     H268214   5.008   5.738   9.107
22658WAT      O68215   5.574   2.110   7.243
22658WAT     H168216   5.537   2.053   7.170
22658WAT     H268217   5.581   2.057   7.327
22659WAT      O68218   4.475   2.576   6.597
22659WAT     H168219   4.465   2.492   6.651
22659WAT     H268220   4.456   2.555   6.500
22660WAT      O68221   8.785   5.963   6.394
22660WAT     H168222   8.861   5.951   6.329
22660WAT     H268223   8.708   6.006   6.348
22661WAT      O68224   4.701   1.402   2.148
22661WAT     H168225   4.613   1.414   2.103
22661WAT     H268226   4.774   1.405   2.080
22662WAT      O68227   2.730   4.947   5.622
22662WAT     H168228   2.654   4.883   5.611
22662WAT     H268229   2.779   4.958   5.536
22663WAT      O68230   2.448   0.346   1.572
22663WAT     H168231   2.407   0.309   1.489
22663WAT     H268232   2.389   0.324   1.650
22664WAT      O68233   8.771   6.317   9.103
22664WAT     H168234   8.703   6.300   9.031
22664WAT     H268235   8.783   6.234   9.157
22665WAT      O68236   5.514   1.756   8.036
22665WAT     H168237   5.489   1.694   8.110
22665WAT     H268238   5.582   1.711   7.977
22666WAT      O68239   6.954   5.838   0.441
22666WAT     H168240   7.018   5.803   0.510
22666WAT     H268241   7.000   5.908   0.385
22667WAT      O68242   8.375   8.654   7.295
22667WAT     H168243   8.445   8.640   7.366
22667WAT     H268244   8.413   8.633   7.206
22668WAT      O68245   0.120   0.234   5.618
22668WAT     H168246   0.202   0.191   5.656
22668WAT     H268247   0.115   0.214   5.520
22669WAT      O68248   0.339   3.655   2.383
22669WAT     H168249   0.339   3.712   2.465
22669WAT     H268250   0.248   3.616   2.369
22670WAT      O68251   2.131   7.630   0.716
22670WAT     H168252   2.217   7.579   0.705
22670WAT     H268253   2.103   7.625   0.812
22671WAT      O68254   2.636   9.313   8.504
22671WAT     H168255   2.574   9.244   8.542
22671WAT     H268256   2.703   9.339   8.574
22672WAT      O68257   2.031   1.533   4.306
22672WAT     H168258   2.094   1.541   4.383
22672WAT     H268259   1.967   1.458   4.323
22673WAT      O68260   1.031   4.000   2.840
22673WAT     H168261   0.964   3.929   2.819
22673WAT     H268262   1.016   4.034   2.933
22674WAT      O68263   8.214   6.280   6.877
22674WAT     H168264   8.232   6.377   6.892
22674WAT     H268265   8.141   6.270   6.809
22675WAT      O68266   7.050   5.719   7.519
22675WAT     H168267   7.055   5.809   7.563
22675WAT     H268268   7.014   5.730   7.426
22676WAT      O68269   6.565   0.820   7.880
22676WAT     H168270   6.606   0.853   7.965
22676WAT     H268271   6.634   0.771   7.826
22677WAT      O68272   2.732   6.876   0.252
22677WAT     H168273   2.686   6.788   0.264
22677WAT     H268274   2.678   6.948   0.294
22678WAT      O68275   7.298   2.097   2.039
22678WAT     H168276   7.232   2.166   2.069
22678WAT     H268277   7.320   2.036   2.116
22679WAT      O68278   4.058   7.487   8.128
22679WAT     H168279   3.992   7.534   8.187
22679WAT     H268280   4.148   7.487   8.172
22680WAT      O68281   0.660   5.488   7.129
22680WAT     H168282   0.653   5.405   7.185
22680WAT     H268283   0.743   5.537   7.153
22681WAT      O68284   4.451   8.182   0.630
22681WAT     H168285   4.487   8.261   0.580
22681WAT     H268286   4.379   8.212   0.693
22682WAT      O68287   8.161   1.224   4.467
22682WAT     H168288   8.201   1.284   4.536
22682WAT     H268289   8.205   1.134   4.471
22683WAT      O68290   5.370   7.378   6.617
22683WAT     H168291   5.418   7.340   6.696
22683WAT     H268292   5.393   7.475   6.608
22684WAT      O68293   2.290   7.952   1.636
22684WAT     H168294   2.203   7.990   1.605
22684WAT     H268295   2.365   8.009   1.602
22685WAT      O68296   8.445   8.920   0.159
22685WAT     H168297   8.400   8.862   0.091
22685WAT     H268298   8.543   8.900   0.160
22686WAT      O68299   6.484   7.287   5.699
22686WAT     H168300   6.485   7.189   5.678
22686WAT     H268301   6.578   7.321   5.706
22687WAT      O68302   2.828   6.751   2.726
22687WAT     H168303   2.762   6.804   2.780
22687WAT     H268304   2.907   6.729   2.783
22688WAT      O68305   9.683   8.059   9.139
22688WAT     H168306   9.710   8.140   9.085
22688WAT     H268307   9.732   8.060   9.226
22689WAT      O68308   6.599   1.367   3.350
22689WAT     H168309   6.616   1.271   3.327
22689WAT     H268310   6.544   1.410   3.279
22690WAT      O68311   8.488   2.083   2.544
22690WAT     H168312   8.441   2.171   2.553
22690WAT     H268313   8.583   2.093   2.571
22691WAT      O68314   8.574   6.446   0.775
22691WAT     H168315   8.573   6.438   0.875
22691WAT     H268316   8.605   6.538   0.749
22692WAT      O68317   5.308   8.842   5.387
22692WAT     H168318   5.353   8.921   5.429
22692WAT     H268319   5.223   8.822   5.436
22693WAT      O68320   7.550   4.812   9.238
22693WAT     H168321   7.621   4.743   9.251
22693WAT     H268322   7.590   4.892   9.192
22694WAT      O68323   9.639   4.506   7.875
22694WAT     H168324   9.739   4.502   7.865
22694WAT     H268325   9.602   4.413   7.878
22695WAT      O68326   9.094   3.242   6.511
22695WAT     H168327   9.111   3.213   6.417
22695WAT     H268328   9.048   3.332   6.511
22696WAT      O68329   8.409   0.171   9.183
22696WAT     H168330   8.360   0.214   9.259
22696WAT     H268331   8.505   0.198   9.187
22697WAT      O68332   5.478   9.401   5.171
22697WAT     H168333   5.476   9.461   5.091
22697WAT     H268334   5.391   9.353   5.179
22698WAT      O68335   2.101   1.997   8.199
22698WAT     H168336   2.083   2.095   8.206
22698WAT     H268337   2.125   1.961   8.289
22699WAT      O68338   9.724   9.592   2.262
22699WAT     H168339   9.785   9.552   2.331
22699WAT     H268340   9.759   9.683   2.236
22700WAT      O68341   7.765   5.029   2.360
22700WAT     H168342   7.725   5.085   2.288
22700WAT     H268343   7.692   4.980   2.408
22701WAT      O68344   9.828   2.850   4.979
22701WAT     H168345   9.884   2.769   4.961
22701WAT     H268346   9.832   2.911   4.900
22702WAT      O68347   0.802   7.043   8.313
22702WAT     H168348   0.756   6.959   8.343
22702WAT     H268349   0.837   7.092   8.393
22703WAT      O68350   1.338   0.667   5.231
22703WAT     H168351   1.335   0.683   5.133
22703WAT     H268352   1.270   0.726   5.276
22704WAT      O68353   8.804   1.134   7.493
22704WAT     H168354   8.754   1.186   7.562
22704WAT     H268355   8.817   1.040   7.525
22705WAT      O68356   6.024   2.776   8.922
22705WAT     H168357   5.927   2.763   8.939
22705WAT     H268358   6.067   2.815   9.003
22706WAT      O68359   1.944   2.951   5.239
22706WAT     H168360   1.992   2.877   5.193
22706WAT     H268361   1.847   2.948   5.214
22707WAT      O68362   0.071   4.182   2.889
22707WAT     H168363   0.136   4.154   2.819
22707WAT     H268364   0.108   4.261   2.939
22708WAT      O68365   8.272   5.807   0.041
22708WAT     H168366   8.237   5.897   0.065
22708WAT     H268367   8.297   5.807  -0.056
22709WAT      O68368   2.978   8.034   8.783
22709WAT     H168369   2.881   8.042   8.806
22709WAT     H268370   3.005   8.112   8.726
22710WAT      O68371   0.347   4.540   1.184
22710WAT     H168372   0.430   4.526   1.237
22710WAT     H268373   0.270   4.555   1.246
22711WAT      O68374   6.386   7.021   9.627
22711WAT     H168375   6.341   7.067   9.550
22711WAT     H268376   6.379   6.922   9.615
22712WAT      O68377   4.800   9.189   9.611
22712WAT     H168378   4.723   9.183   9.547
22712WAT     H268379   4.769   9.167   9.703
22713WAT      O68380   7.397   9.305   8.326
22713WAT     H168381   7.309   9.343   8.295
22713WAT     H268382   7.451   9.277   8.246
22714WAT      O68383   7.056   4.509   5.164
22714WAT     H168384   7.045   4.533   5.261
22714WAT     H268385   7.125   4.438   5.154
22715WAT      O68386   0.183   0.888   7.002
22715WAT     H168387   0.216   0.883   6.908
22715WAT     H268388   0.249   0.845   7.063
22716WAT      O68389   1.736   0.170   4.605
22716WAT     H168390   1.790   0.249   4.635
22716WAT     H268391   1.797   0.100   4.568
22717WAT      O68392   6.887   2.941   6.280
22717WAT     H168393   6.826   2.883   6.335
22717WAT     H268394   6.864   3.037   6.296
22718WAT      O68395   4.928   7.299   1.596
22718WAT     H168396   4.946   7.356   1.516
22718WAT     H268397   5.010   7.249   1.621
22719WAT      O68398   6.074   2.393   3.868
22719WAT     H168399   5.990   2.338   3.875
22719WAT     H268400   6.107   2.391   3.773
22720WAT      O68401   6.167   0.638   2.247
22720WAT     H168402   6.078   0.603   2.217
22720WAT     H268403   6.154   0.703   2.322
22721WAT      O68404   9.059   9.547   5.150
22721WAT     H168405   9.037   9.508   5.239
22721WAT     H268406   9.159   9.554   5.140
22722WAT      O68407   9.724   5.810   5.053
22722WAT     H168408   9.810   5.856   5.031
22722WAT     H268409   9.655   5.878   5.077
22723WAT      O68410   8.704   0.299   1.703
22723WAT     H168411   8.804   0.304   1.701
22723WAT     H268412   8.675   0.213   1.745
22724WAT      O68413   1.095   3.145   7.200
22724WAT     H168414   1.068   3.054   7.229
22724WAT     H268415   1.195   3.151   7.195
22725WAT      O68416   6.352   3.790   5.713
22725WAT     H168417   6.423   3.730   5.751
22725WAT     H268418   6.367   3.803   5.615
22726WAT      O68419   9.664   5.973   3.801
22726WAT     H168420   9.678   6.037   3.876
22726WAT     H268421   9.751   5.930   3.777
22727WAT      O68422   6.590   9.364   4.274
22727WAT     H168423   6.606   9.277   4.227
22727WAT     H268424   6.676   9.415   4.279
22728WAT      O68425   4.585   0.266   8.533
22728WAT     H168426   4.647   0.210   8.589
22728WAT     H268427   4.595   0.239   8.437
22729WAT      O68428   5.212   3.020   0.972
22729WAT     H168429   5.281   3.067   0.917
22729WAT     H268430   5.246   3.010   1.066
22730WAT      O68431   8.209   5.861   5.077
22730WAT     H168432   8.228   5.767   5.048
22730WAT     H268433   8.247   5.876   5.168
22731WAT      O68434   8.116   2.143   6.936
22731WAT     H168435   8.047   2.209   6.906
22731WAT     H268436   8.074   2.054   6.949
22732WAT      O68437   5.336   8.436   8.336
22732WAT     H168438   5.283   8.430   8.251
22732WAT     H268439   5.302   8.511   8.392
22733WAT      O68440   5.813   2.268   6.901
22733WAT     H168441   5.844   2.173   6.906
22733WAT     H268442   5.828   2.312   6.989
22734WAT      O68443   3.845   8.438   6.495
22734WAT     H168444   3.867   8.371   6.424
22734WAT     H268445   3.874   8.529   6.465
22735WAT      O68446   2.328   5.395   8.058
22735WAT     H168447   2.263   5.407   8.133
22735WAT     H268448   2.335   5.479   8.005
22736WAT      O68449   0.757   8.105   0.186
22736WAT     H168450   0.820   8.090   0.263
22736WAT     H268451   0.727   8.200   0.186
22737WAT      O68452   4.056   2.923   8.587
22737WAT     H168453   3.973   2.874   8.560
22737WAT     H268454   4.135   2.886   8.537
22738WAT      O68455   3.753   5.968   9.442
22738WAT     H168456   3.688   5.915   9.387
22738WAT     H268457   3.846   5.946   9.413
22739WAT      O68458   5.799   6.777   9.859
22739WAT     H168459   5.742   6.804   9.781
22739WAT     H268460   5.740   6.763   9.939
22740WAT      O68461   6.778   4.413   8.308
22740WAT     H168462   6.819   4.322   8.305
22740WAT     H268463   6.679   4.405   8.292
22741WAT      O68464   9.502   6.528   7.065
22741WAT     H168465   9.537   6.592   7.133
22741WAT     H268466   9.489   6.438   7.107
22742WAT      O68467   9.363   3.526   1.377
22742WAT     H168468   9.291   3.594   1.362
22742WAT     H268469   9.430   3.563   1.441
22743WAT      O68470   2.132   8.652   2.753
22743WAT     H168471   2.087   8.739   2.772
22743WAT     H268472   2.130   8.595   2.836
22744WAT      O68473   3.098   2.969   9.880
22744WAT     H168474   3.073   2.985   9.784
22744WAT     H268475   3.125   3.056   9.922
22745WAT      O68476   7.608   1.162   8.975
22745WAT     H168477   7.668   1.214   9.036
22745WAT     H268478   7.512   1.183   8.997
22746WAT      O68479   3.990   4.026   4.000
22746WAT     H168480   3.919   4.079   4.046
22746WAT     H268481   3.971   4.022   3.902
22747WAT      O68482   7.603   9.185   0.135
22747WAT     H168483   7.575   9.277   0.163
22747WAT     H268484   7.558   9.161   0.049
22748WAT      O68485   8.036   0.346   7.807
22748WAT     H168486   8.003   0.253   7.794
22748WAT     H268487   7.967   0.399   7.857
22749WAT      O68488   5.006   3.772   9.573
22749WAT     H168489   5.023   3.693   9.515
22749WAT     H268490   4.915   3.809   9.554
22750WAT      O68491   4.931   5.878   6.641
22750WAT     H168492   4.929   5.967   6.686
22750WAT     H268493   4.969   5.888   6.549
22751WAT      O68494   4.450   1.227   5.757
22751WAT     H168495   4.429   1.280   5.674
22751WAT     H268496   4.506   1.148   5.732
22752WAT      O68497   3.088   8.211   1.012
22752WAT     H168498   3.041   8.232   1.098
22752WAT     H268499   3.028   8.233   0.935
22753WAT      O68500   5.880   9.818   1.415
22753WAT     H168501   5.870   9.726   1.453
22753WAT     H268502   5.971   9.853   1.435
22754WAT      O68503   7.346   2.112   5.057
22754WAT     H168504   7.278   2.169   5.010
22754WAT     H268505   7.437   2.134   5.022
22755WAT      O68506   1.562   1.727   8.341
22755WAT     H168507   1.659   1.748   8.333
22755WAT     H268508   1.546   1.672   8.423
22756WAT      O68509   9.220   0.687   2.506
22756WAT     H168510   9.130   0.695   2.463
22756WAT     H268511   9.257   0.596   2.487
22757WAT      O68512   8.736   7.553   4.946
22757WAT     H168513   8.702   7.504   4.865
22757WAT     H268514   8.783   7.489   5.006
22758WAT      O68515   4.366   9.139   8.118
22758WAT     H168516   4.349   9.202   8.193
22758WAT     H268517   4.366   9.189   8.031
22759WAT      O68518   0.234   6.859   0.320
22759WAT     H168519   0.294   6.787   0.282
22759WAT     H268520   0.236   6.855   0.419
22760WAT      O68521   1.446   6.698   7.399
22760WAT     H168522   1.431   6.701   7.498
22760WAT     H268523   1.540   6.672   7.380
22761WAT      O68524   6.406   5.105   8.779
22761WAT     H168525   6.415   5.045   8.858
22761WAT     H268526   6.382   5.197   8.809
22762WAT      O68527   7.218   7.723   0.054
22762WAT     H168528   7.191   7.800  -0.004
22762WAT     H268529   7.218   7.753   0.150
22763WAT      O68530   9.364   2.924   5.576
22763WAT     H168531   9.373   2.825   5.561
22763WAT     H268532   9.327   2.967   5.494
22764WAT      O68533   2.941   4.901   6.865
22764WAT     H168534   2.873   4.855   6.922
22764WAT     H268535   2.931   5.000   6.875
22765WAT      O68536   7.321   5.581   1.369
22765WAT     H168537   7.291   5.486   1.382
22765WAT     H268538   7.251   5.643   1.405
22766WAT      O68539   8.640   4.342   2.442
22766WAT     H168540   8.592   4.426   2.466
22766WAT     H268541   8.605   4.266   2.496
22767WAT      O68542   5.418   7.509   4.364
22767WAT     H168543   5.355   7.581   4.393
22767WAT     H268544   5.404   7.488   4.268
22768WAT      O68545   8.041   7.222   7.368
22768WAT     H168546   7.963   7.284   7.383
22768WAT     H268547   8.099   7.221   7.450
22769WAT      O68548   6.413   5.116   1.712
22769WAT     H168549   6.485   5.056   1.676
22769WAT     H268550   6.339   5.060   1.749
22770WAT      O68551   0.248   1.607   2.804
22770WAT     H168552   0.162   1.567   2.770
22770WAT     H268553   0.325   1.569   2.753
22771WAT      O68554   4.675   2.714   2.087
22771WAT     H168555   4.765   2.734   2.049
22771WAT     H268556   4.605   2.762   2.034
22772WAT      O68557   3.701   0.633   2.414
22772WAT     H168558   3.776   0.589   2.365
22772WAT     H268559   3.693   0.592   2.505
22773WAT      O68560   8.763   4.875   3.296
22773WAT     H168561   8.838   4.897   3.234
22773WAT     H268562   8.791   4.799   3.356
22774WAT      O68563   2.101   5.705   8.265
22774WAT     H168564   2.187   5.732   8.221
22774WAT     H268565   2.034   5.681   8.194
22775WAT      O68566   3.830   2.585   1.459
22775WAT     H168567   3.735   2.555   1.467
22775WAT     H268568   3.834   2.670   1.406
22776WAT      O68569   0.891   0.979   5.591
22776WAT     H168570   0.920   0.985   5.687
22776WAT     H268571   0.961   0.930   5.538
22777WAT      O68572   7.346   4.428   9.881
22777WAT     H168573   7.258   4.381   9.890
22777WAT     H268574   7.420   4.362   9.889
22778WAT      O68575   4.340   5.376   4.078
22778WAT     H168576   4.420   5.394   4.135
22778WAT     H268577   4.257   5.393   4.131
22779WAT      O68578   1.914   3.254   9.400
22779WAT     H168579   1.824   3.267   9.441
22779WAT     H268580   1.985   3.270   9.468
22780WAT      O68581   5.717   6.214   3.678
22780WAT     H168582   5.757   6.255   3.596
22780WAT     H268583   5.787   6.160   3.726
22781WAT      O68584   2.262   7.089   3.240
22781WAT     H168585   2.350   7.048   3.218
22781WAT     H268586   2.188   7.025   3.217
22782WAT      O68587   8.939   6.178   6.882
22782WAT     H168588   8.961   6.276   6.881
22782WAT     H268589   8.892   6.154   6.797
22783WAT      O68590   4.763   2.730   6.475
22783WAT     H168591   4.689   2.727   6.408
22783WAT     H268592   4.807   2.641   6.481
22784WAT      O68593   4.330   9.563   2.189
22784WAT     H168594   4.328   9.553   2.288
22784WAT     H268595   4.424   9.555   2.156
22785WAT      O68596   7.347   1.362   1.048
22785WAT     H168597   7.343   1.435   0.979
22785WAT     H268598   7.443   1.341   1.068
22786WAT      O68599   4.608   8.494   4.742
22786WAT     H168600   4.517   8.535   4.751
22786WAT     H268601   4.670   8.561   4.701
22787WAT      O68602   3.690   7.284   2.270
22787WAT     H168603   3.636   7.219   2.324
22787WAT     H268604   3.784   7.252   2.265
22788WAT      O68605   0.139   4.927   8.201
22788WAT     H168606   0.063   4.945   8.263
22788WAT     H268607   0.106   4.881   8.119
22789WAT      O68608   2.048   3.515   5.790
22789WAT     H168609   1.969   3.459   5.765
22789WAT     H268610   2.059   3.515   5.890
22790WAT      O68611   6.520   0.784   9.342
22790WAT     H168612   6.428   0.768   9.378
22790WAT     H268613   6.523   0.872   9.295
22791WAT      O68614   6.829   2.934   9.316
22791WAT     H168615   6.872   2.890   9.238
22791WAT     H268616   6.745   2.979   9.287
22792WAT      O68617   5.292   0.916   1.116
22792WAT     H168618   5.227   0.845   1.088
22792WAT     H268619   5.304   0.982   1.042
22793WAT      O68620   0.253   8.094   3.294
22793WAT     H168621   0.300   8.162   3.237
22793WAT     H268622   0.271   8.003   3.259
22794WAT      O68623   5.652   4.249   1.819
22794WAT     H168624   5.634   4.235   1.916
22794WAT     H268625   5.751   4.246   1.803
22795WAT      O68626   7.788   9.125   2.550
22795WAT     H168627   7.832   9.134   2.639
22795WAT     H268628   7.857   9.109   2.479
22796WAT      O68629   4.002   4.464   1.947
22796WAT     H168630   4.045   4.399   1.885
22796WAT     H268631   4.044   4.554   1.936
22797WAT      O68632   3.966   2.218   7.476
22797WAT     H168633   3.942   2.245   7.569
22797WAT     H268634   4.020   2.134   7.478
22798WAT      O68635   7.017   5.830   8.487
22798WAT     H168636   7.026   5.895   8.563
22798WAT     H268637   6.923   5.831   8.454
22799WAT      O68638   2.783   2.095   2.893
22799WAT     H168639   2.784   2.004   2.853
22799WAT     H268640   2.695   2.140   2.874
22800WAT      O68641   8.468   9.568   1.384
22800WAT     H168642   8.516   9.518   1.312
22800WAT     H268643   8.533   9.623   1.436
22801WAT      O68644   0.349   5.446   7.647
22801WAT     H168645   0.414   5.377   7.680
22801WAT     H268646   0.354   5.527   7.705
22802WAT      O68647   2.652   6.432   8.989
22802WAT     H168648   2.593   6.396   8.916
22802WAT     H268649   2.617   6.521   9.019
22803WAT      O68650   2.993   9.134   8.679
22803WAT     H168651   2.954   9.145   8.588
22803WAT     H268652   3.091   9.115   8.671
22804WAT      O68653   9.435   4.881   4.788
22804WAT     H168654   9.430   4.881   4.887
22804WAT     H268655   9.434   4.976   4.754
22805WAT      O68656   0.829   8.740   3.205
22805WAT     H168657   0.827   8.823   3.150
22805WAT     H268658   0.808   8.661   3.147
22806WAT      O68659   7.050   1.003   3.260
22806WAT     H168660   7.052   0.916   3.212
22806WAT     H268661   6.971   1.056   3.230
22807WAT      O68662   0.782   6.200   0.435
22807WAT     H168663   0.747   6.132   0.500
22807WAT     H268664   0.755   6.175   0.342
22808WAT      O68665   6.515   4.456   2.591
22808WAT     H168666   6.508   4.396   2.511
22808WAT     H268667   6.548   4.404   2.670
22809WAT      O68668   8.022   7.774   7.885
22809WAT     H168669   8.101   7.832   7.866
22809WAT     H268670   8.025   7.742   7.980
22810WAT      O68671   7.651   1.732   1.747
22810WAT     H168672   7.572   1.707   1.690
22810WAT     H268673   7.633   1.818   1.793
22811WAT      O68674   9.560   4.663   7.235
22811WAT     H168675   9.584   4.568   7.218
22811WAT     H268676   9.499   4.695   7.163
22812WAT      O68677   9.660   8.650   0.341
22812WAT     H168678   9.636   8.667   0.437
22812WAT     H268679   9.578   8.622   0.291
22813WAT      O68680   6.724   0.496   0.056
22813WAT     H168681   6.630   0.499   0.090
22813WAT     H268682   6.756   0.590   0.041
22814WAT      O68683   5.431   2.767   7.696
22814WAT     H168684   5.394   2.683   7.734
22814WAT     H268685   5.359   2.817   7.648
22815WAT      O68686   5.605   8.298   7.934
22815WAT     H168687   5.611   8.398   7.936
22815WAT     H268688   5.686   8.260   7.890
22816WAT      O68689   9.845   7.373   7.493
22816WAT     H168690   9.911   7.430   7.443
22816WAT     H268691   9.879   7.279   7.497
22817WAT      O68692   9.542   7.380   0.664
22817WAT     H168693   9.453   7.357   0.623
22817WAT     H268694   9.598   7.298   0.671
22818WAT      O68695   4.308   5.266   4.531
22818WAT     H168696   4.353   5.253   4.619
22818WAT     H268697   4.337   5.354   4.492
22819WAT      O68698   1.594   6.491   2.085
22819WAT     H168699   1.551   6.424   2.025
22819WAT     H268700   1.538   6.574   2.089
22820WAT      O68701   8.284   2.675   8.331
22820WAT     H168702   8.297   2.736   8.252
22820WAT     H268703   8.326   2.587   8.311
22821WAT      O68704   3.756   2.691   2.413
22821WAT     H168705   3.811   2.724   2.337
22821WAT     H268706   3.729   2.597   2.397
22822WAT      O68707   3.691   5.554   4.285
22822WAT     H168708   3.651   5.464   4.268
22822WAT     H268709   3.618   5.619   4.307
22823WAT      O68710   8.195   4.397   6.744
22823WAT     H168711   8.257   4.344   6.801
22823WAT     H268712   8.114   4.421   6.797
22824WAT      O68713   9.210   1.425   6.521
22824WAT     H168714   9.266   1.365   6.463
22824WAT     H268715   9.114   1.400   6.512
22825WAT      O68716   2.625   5.264   2.531
22825WAT     H168717   2.556   5.194   2.516
22825WAT     H268718   2.606   5.311   2.618
22826WAT      O68719   8.175   0.849   3.359
22826WAT     H168720   8.231   0.931   3.371
22826WAT     H268721   8.079   0.875   3.349
22827WAT      O68722   0.310   5.814   2.032
22827WAT     H168723   0.327   5.775   1.942
22827WAT     H268724   0.395   5.814   2.085
22828WAT      O68725   6.893   5.002   6.485
22828WAT     H168726   6.827   4.971   6.553
22828WAT     H268727   6.975   4.945   6.489
22829WAT      O68728   8.490   2.212   8.982
22829WAT     H168729   8.481   2.306   9.016
22829WAT     H268730   8.579   2.203   8.936
22830WAT      O68731   0.910   6.726   2.669
22830WAT     H168732   0.834   6.755   2.611
22830WAT     H268733   0.876   6.699   2.759
22831WAT      O68734   2.500   7.886   2.283
22831WAT     H168735   2.585   7.936   2.267
22831WAT     H268736   2.514   7.790   2.262
22832WAT      O68737   1.683   4.932   7.240
22832WAT     H168738   1.617   4.878   7.189
22832WAT     H268739   1.699   4.890   7.329
22833WAT      O68740   1.876   3.225   6.720
22833WAT     H168741   1.858   3.149   6.658
22833WAT     H268742   1.920   3.190   6.804
22834WAT      O68743   6.519   1.709   0.810
22834WAT     H168744   6.504   1.610   0.804
22834WAT     H268745   6.453   1.749   0.873
22835WAT      O68746   1.431   3.039   2.194
22835WAT     H168747   1.396   3.132   2.182
22835WAT     H268748   1.495   3.038   2.271
22836WAT      O68749   4.083   6.931   3.140
22836WAT     H168750   4.028   6.857   3.101
22836WAT     H268751   4.038   6.965   3.222
22837WAT      O68752   6.483   3.546   3.395
22837WAT     H168753   6.445   3.453   3.401
22837WAT     H268754   6.435   3.597   3.324
22838WAT      O68755   9.032   4.741   0.329
22838WAT     H168756   9.104   4.804   0.359
22838WAT     H268757   9.042   4.724   0.231
22839WAT      O68758   0.318   0.139   1.540
22839WAT     H168759   0.256   0.093   1.604
22839WAT     H268760   0.304   0.102   1.448
22840WAT      O68761   4.883   2.098   2.402
22840WAT     H168762   4.890   2.111   2.303
22840WAT     H268763   4.927   2.175   2.449
22841WAT      O68764   6.478   6.243   6.086
22841WAT     H168765   6.551   6.309   6.066
22841WAT     H268766   6.402   6.290   6.131
22842WAT      O68767   6.579   8.635   6.777
22842WAT     H168768   6.482   8.657   6.784
22842WAT     H268769   6.594   8.567   6.705
22843WAT      O68770   6.618   5.291   6.553
22843WAT     H168771   6.575   5.379   6.575
22843WAT     H268772   6.712   5.306   6.521
22844WAT      O68773   0.950   4.405   2.229
22844WAT     H168774   0.863   4.393   2.180
22844WAT     H268775   0.979   4.317   2.266
22845WAT      O68776   7.144   6.044   8.630
22845WAT     H168777   7.208   6.108   8.586
22845WAT     H268778   7.063   6.094   8.661
22846WAT      O68779   8.828   4.583   1.367
22846WAT     H168780   8.753   4.641   1.336
22846WAT     H268781   8.870   4.623   1.449
22847WAT      O68782   9.401   6.365   8.615
22847WAT     H168783   9.434   6.382   8.522
22847WAT     H268784   9.464   6.406   8.681
22848WAT      O68785   7.922   1.398   6.970
22848WAT     H168786   7.855   1.462   7.007
22848WAT     H268787   7.955   1.431   6.882
22849WAT      O68788   6.482   2.106   7.658
22849WAT     H168789   6.407   2.050   7.624
22849WAT     H268790   6.505   2.176   7.590
22850WAT      O68791   6.477   5.345   2.784
22850WAT     H168792   6.455   5.436   2.749
22850WAT     H268793   6.424   5.276   2.735
22851WAT      O68794   8.004   9.497   2.649
22851WAT     H168795   8.075   9.566   2.633
22851WAT     H268796   7.934   9.504   2.578
22852WAT      O68797   9.384   0.074   1.741
22852WAT     H168798   9.408   0.166   1.772
22852WAT     H268799   9.462   0.033   1.695
22853WAT      O68800   0.679   6.009   4.483
22853WAT     H168801   0.761   6.028   4.536
22853WAT     H268802   0.642   5.920   4.509
22854WAT      O68803   3.654   6.570   6.964
22854WAT     H168804   3.557   6.553   6.951
22854WAT     H268805   3.705   6.539   6.883
22855WAT      O68806   6.647   2.883   3.367
22855WAT     H168807   6.696   2.936   3.435
22855WAT     H268808   6.632   2.790   3.401
22856WAT      O68809   0.159   0.213   4.139
22856WAT     H168810   0.171   0.153   4.218
22856WAT     H268811   0.087   0.279   4.158
22857WAT      O68812   1.844   5.283   4.915
22857WAT     H168813   1.876   5.219   4.986
22857WAT     H268814   1.753   5.256   4.885
22858WAT      O68815   4.890   7.302   6.417
22858WAT     H168816   4.952   7.254   6.480
22858WAT     H268817   4.920   7.397   6.406
22859WAT      O68818   2.848   7.759   8.245
22859WAT     H168819   2.884   7.733   8.155
22859WAT     H268820   2.910   7.824   8.288
22860WAT      O68821   2.801   1.979   2.443
22860WAT     H168822   2.857   2.062   2.446
22860WAT     H268823   2.706   2.002   2.465
22861WAT      O68824   6.911   4.602   2.176
22861WAT     H168825   6.974   4.662   2.126
22861WAT     H268826   6.818   4.616   2.143
22862WAT      O68827   7.840   7.863   1.450
22862WAT     H168828   7.850   7.883   1.548
22862WAT     H268829   7.743   7.865   1.426
22863WAT      O68830   7.862   4.349   0.331
22863WAT     H168831   7.929   4.287   0.290
22863WAT     H268832   7.799   4.297   0.387
22864WAT      O68833   7.235   3.969   1.730
22864WAT     H168834   7.190   3.921   1.654
22864WAT     H268835   7.181   4.049   1.756
22865WAT      O68836   4.854   7.873   3.589
22865WAT     H168837   4.778   7.867   3.655
22865WAT     H268838   4.930   7.818   3.621
22866WAT      O68839   0.701   6.574   0.467
22866WAT     H168840   0.759   6.516   0.525
22866WAT     H268841   0.756   6.613   0.393
22867WAT      O68842   8.874   7.268   4.592
22867WAT     H168843   8.799   7.213   4.553
22867WAT     H268844   8.958   7.251   4.540
22868WAT      O68845   7.073   5.055   8.976
22868WAT     H168846   7.048   4.969   8.930
22868WAT     H268847   6.990   5.109   8.993
22869WAT      O68848   8.007   7.318   1.605
22869WAT     H168849   8.030   7.261   1.526
22869WAT     H268850   8.058   7.404   1.600
22870WAT      O68851   9.449   0.105   8.819
22870WAT     H168852   9.371   0.050   8.849
22870WAT     H268853   9.503   0.052   8.753
22871WAT      O68854   5.013   7.781   0.985
22871WAT     H168855   4.989   7.878   0.989
22871WAT     H268856   5.100   7.766   1.033
22872WAT      O68857   2.890   2.527   2.155
22872WAT     H168858   2.910   2.509   2.059
22872WAT     H268859   2.901   2.625   2.173
22873WAT      O68860   8.517   5.861   0.609
22873WAT     H168861   8.444   5.805   0.646
22873WAT     H268862   8.568   5.904   0.684
22874WAT      O68863   6.366   3.752   3.627
22874WAT     H168864   6.416   3.699   3.559
22874WAT     H268865   6.268   3.749   3.606
22875WAT      O68866   1.977   8.649   4.319
22875WAT     H168867   2.075   8.664   4.312
22875WAT     H268868   1.928   8.729   4.284
22876WAT      O68869   3.463   3.477   0.457
22876WAT     H168870   3.412   3.545   0.404
22876WAT     H268871   3.400   3.411   0.496
22877WAT      O68872   0.904   3.229   1.737
22877WAT     H168873   1.003   3.211   1.737
22877WAT     H268874   0.877   3.261   1.828
22878WAT      O68875   7.324   7.755   4.192
22878WAT     H168876   7.315   7.846   4.233
22878WAT     H268877   7.334   7.687   4.264
22879WAT      O68878   6.812   2.122   0.009
22879WAT     H168879   6.729   2.101   0.060
22879WAT     H268880   6.826   2.053  -0.062
22880WAT      O68881   0.025   9.442   0.886
22880WAT     H168882   0.014   9.539   0.867
22880WAT     H268883   0.101   9.429   0.949
22881WAT      O68884   2.712   8.580   7.106
22881WAT     H168885   2.717   8.666   7.055
22881WAT     H268886   2.725   8.504   7.043
22882WAT      O68887   9.554   6.155   9.196
22882WAT     H168888   9.608   6.078   9.229
22882WAT     H268889   9.549   6.226   9.267
22883WAT      O68890   2.307   8.257   6.517
22883WAT     H168891   2.304   8.158   6.502
22883WAT     H268892   2.358   8.300   6.443
22884WAT      O68893   2.824   6.473   5.673
22884WAT     H168894   2.837   6.384   5.717
22884WAT     H268895   2.878   6.542   5.722
22885WAT      O68896   0.128   2.083   1.216
22885WAT     H168897   0.162   2.094   1.310
22885WAT     H268898   0.060   2.010   1.214
22886WAT      O68899   3.511   8.085   4.810
22886WAT     H168900   3.453   8.007   4.833
22886WAT     H268901   3.478   8.128   4.726
22887WAT      O68902   4.847   6.351   9.332
22887WAT     H168903   4.887   6.409   9.260
22887WAT     H268904   4.878   6.384   9.422
22888WAT      O68905   6.390   8.238   5.714
22888WAT     H168906   6.421   8.205   5.804
22888WAT     H268907   6.307   8.292   5.726
22889WAT      O68908   3.595   0.159   7.120
22889WAT     H168909   3.505   0.116   7.107
22889WAT     H268910   3.598   0.202   7.210
22890WAT      O68911   1.207   3.779   4.597
22890WAT     H168912   1.198   3.878   4.585
22890WAT     H268913   1.231   3.759   4.692
22891WAT      O68914   0.079   5.748   9.812
22891WAT     H168915   0.156   5.687   9.828
22891WAT     H268916   0.073   5.815   9.886
22892WAT      O68917   9.322   7.431   9.535
22892WAT     H168918   9.281   7.346   9.568
22892WAT     H268919   9.330   7.428   9.435
22893WAT      O68920   3.704   7.029   6.211
22893WAT     H168921   3.749   6.941   6.228
22893WAT     H268922   3.767   7.103   6.236
22894WAT      O68923   5.879   5.951   3.333
22894WAT     H168924   5.814   6.005   3.280
22894WAT     H268925   5.844   5.939   3.426
22895WAT      O68926   3.530   8.266   7.235
22895WAT     H168927   3.624   8.234   7.249
22895WAT     H268928   3.521   8.305   7.144
22896WAT      O68929   0.612   4.692   5.786
22896WAT     H168930   0.686   4.637   5.824
22896WAT     H268931   0.527   4.639   5.785
22897WAT      O68932   2.803   5.886   1.758
22897WAT     H168933   2.715   5.926   1.731
22897WAT     H268934   2.811   5.889   1.858
22898WAT      O68935   2.474   0.555   1.077
22898WAT     H168936   2.376   0.569   1.063
22898WAT     H268937   2.508   0.485   1.015
22899WAT      O68938   3.441   3.529   2.424
22899WAT     H168939   3.424   3.608   2.483
22899WAT     H268940   3.504   3.467   2.471
22900WAT      O68941   3.691   5.764   8.673
22900WAT     H168942   3.685   5.855   8.632
22900WAT     H268943   3.624   5.756   8.747
22901WAT      O68944   4.318   5.794   0.722
22901WAT     H168945   4.225   5.777   0.754
22901WAT     H268946   4.381   5.731   0.768
22902WAT      O68947   1.580   0.067   0.617
22902WAT     H168948   1.553  -0.010   0.674
22902WAT     H268949   1.678   0.062   0.597
22903WAT      O68950   2.488   5.615   8.763
22903WAT     H168951   2.569   5.556   8.766
22903WAT     H268952   2.453   5.630   8.855
22904WAT      O68953   6.089   3.772   6.324
22904WAT     H168954   6.035   3.856   6.315
22904WAT     H268955   6.046   3.712   6.392
22905WAT      O68956   6.695   8.180   6.175
22905WAT     H168957   6.677   8.231   6.091
22905WAT     H268958   6.729   8.089   6.153
22906WAT      O68959   4.676   7.279   5.637
22906WAT     H168960   4.744   7.294   5.709
22906WAT     H268961   4.675   7.358   5.576
22907WAT      O68962   8.725   6.784   1.365
22907WAT     H168963   8.734   6.855   1.435
22907WAT     H268964   8.630   6.780   1.333
22908WAT      O68965   6.670   4.020   6.657
22908WAT     H168966   6.639   3.936   6.700
22908WAT     H268967   6.692   4.003   6.561
22909WAT      O68968   1.999   6.595   6.852
22909WAT     H168969   2.046   6.507   6.843
22909WAT     H268970   2.029   6.640   6.936
22910WAT      O68971   6.282   4.813   3.583
22910WAT     H168972   6.224   4.777   3.511
22910WAT     H268973   6.276   4.913   3.583
22911WAT      O68974   4.588   7.759   7.736
22911WAT     H168975   4.682   7.728   7.747
22911WAT     H268976   4.528   7.680   7.725
22912WAT      O68977   5.959   0.981   2.802
22912WAT     H168978   5.982   1.064   2.853
22912WAT     H268979   6.042   0.943   2.761
22913WAT      O68980   1.648   4.671   5.625
22913WAT     H168981   1.739   4.668   5.583
22913WAT     H268982   1.599   4.752   5.591
22914WAT      O68983   1.637   3.281   4.601
22914WAT     H168984   1.613   3.224   4.679
22914WAT     H268985   1.735   3.272   4.582
22915WAT      O68986   7.404   2.454   7.791
22915WAT     H168987   7.310   2.443   7.824
22915WAT     H268988   7.442   2.540   7.827
22916WAT      O68989   0.562   2.036   9.057
22916WAT     H168990   0.551   2.003   9.151
22916WAT     H268991   0.555   2.135   9.055
22917WAT      O68992   3.529   7.486   4.674
22917WAT     H168993   3.583   7.429   4.613
22917WAT     H268994   3.524   7.442   4.764
22918WAT      O68995   8.256   6.928   9.003
22918WAT     H168996   8.177   6.870   8.984
22918WAT     H268997   8.276   6.985   8.924
22919WAT      O68998   5.700   6.462   9.581
22919WAT     H168999   5.720   6.368   9.554
22919WAT     H269000   5.715   6.472   9.680
22920WAT      O69001   7.962   5.289   6.380
22920WAT     H169002   8.058   5.316   6.377
22920WAT     H269003   7.904   5.370   6.386
22921WAT      O69004   1.881   5.374   7.333
22921WAT     H169005   1.916   5.443   7.269
22921WAT     H269006   1.957   5.336   7.385
22922WAT      O69007   1.817   6.390   0.011
22922WAT     H169008   1.894   6.413   0.070
22922WAT     H269009   1.758   6.324   0.057
22923WAT      O69010   6.144   6.403   1.580
22923WAT     H169011   6.207   6.367   1.649
22923WAT     H269012   6.090   6.477   1.620
22924WAT      O69013   5.944   9.496   1.214
22924WAT     H169014   5.998   9.560   1.268
22924WAT     H269015   5.849   9.497   1.245
22925WAT      O69016   2.562   6.224   0.503
22925WAT     H169017   2.587   6.160   0.431
22925WAT     H269018   2.467   6.252   0.492
22926WAT      O69019   2.656   1.500   9.073
22926WAT     H169020   2.642   1.535   9.166
22926WAT     H269021   2.679   1.576   9.013
22927WAT      O69022   9.222   5.447   5.100
22927WAT     H169023   9.153   5.440   5.027
22927WAT     H269024   9.280   5.527   5.084
22928WAT      O69025   1.764   6.891   6.079
22928WAT     H169026   1.722   6.800   6.082
22928WAT     H269027   1.703   6.956   6.124
22929WAT      O69028   6.774   5.375   4.904
22929WAT     H169029   6.739   5.467   4.886
22929WAT     H269030   6.872   5.372   4.882
22930WAT      O69031   6.726   7.406   4.980
22930WAT     H169032   6.688   7.389   5.071
22930WAT     H269033   6.658   7.382   4.910
22931WAT      O69034   7.064   3.112   2.922
22931WAT     H169035   7.142   3.148   2.973
22931WAT     H269036   6.979   3.143   2.964
22932WAT      O69037   1.166   4.845   0.121
22932WAT     H169038   1.141   4.751   0.146
22932WAT     H269039   1.175   4.899   0.205
22933WAT      O69040   1.668   7.489   5.540
22933WAT     H169041   1.715   7.573   5.515
22933WAT     H269042   1.588   7.512   5.595
22934WAT      O69043   8.770   6.068   5.000
22934WAT     H169044   8.758   6.108   5.090
22934WAT     H269045   8.685   6.024   4.971
22935WAT      O69046   0.765   5.097   7.701
22935WAT     H169047   0.741   5.176   7.758
22935WAT     H269048   0.703   5.021   7.721
22936WAT      O69049   3.851   8.760   9.873
22936WAT     H169050   3.812   8.846   9.905
22936WAT     H269051   3.805   8.683   9.918
22937WAT      O69052   4.301   8.807   3.506
22937WAT     H169053   4.253   8.792   3.592
22937WAT     H269054   4.395   8.773   3.513
22938WAT      O69055   3.473   0.469   5.604
22938WAT     H169056   3.457   0.530   5.682
22938WAT     H269057   3.571   0.448   5.598
22939WAT      O69058   3.860   6.675   4.540
22939WAT     H169059   3.855   6.654   4.638
22939WAT     H269060   3.900   6.766   4.528
22940WAT      O69061   6.881   3.651   1.502
22940WAT     H169062   6.961   3.708   1.485
22940WAT     H269063   6.803   3.685   1.449
22941WAT      O69064   9.840   0.731   4.527
22941WAT     H169065   9.766   0.798   4.535
22941WAT     H269066   9.809   0.655   4.469
22942WAT      O69067   2.217   9.453   0.340
22942WAT     H169068   2.299   9.434   0.286
22942WAT     H269069   2.170   9.532   0.302
22943WAT      O69070   1.567   1.315   4.672
22943WAT     H169071   1.483   1.345   4.627
22943WAT     H269072   1.642   1.376   4.645
22944WAT      O69073   5.385   9.513   7.550
22944WAT     H169074   5.454   9.521   7.623
22944WAT     H269075   5.301   9.473   7.588
22945WAT      O69076   3.092   7.320   6.490
22945WAT     H169077   3.009   7.376   6.491
22945WAT     H269078   3.130   7.317   6.583
22946WAT      O69079   9.836   8.926   9.208
22946WAT     H169080   9.781   8.929   9.125
22946WAT     H269081   9.868   9.018   9.230
22947WAT      O69082   1.197   7.811   8.229
22947WAT     H169083   1.177   7.730   8.174
22947WAT     H269084   1.191   7.787   8.326
22948WAT      O69085   4.647   6.195   9.455
22948WAT     H169086   4.709   6.234   9.387
22948WAT     H269087   4.553   6.201   9.422
22949WAT      O69088   1.444   4.445   7.807
22949WAT     H169089   1.511   4.410   7.873
22949WAT     H269090   1.492   4.475   7.725
22950WAT      O69091   3.754   1.528   0.780
22950WAT     H169092   3.726   1.436   0.754
22950WAT     H269093   3.808   1.569   0.707
22951WAT      O69094   0.487   9.041   1.272
22951WAT     H169095   0.458   9.074   1.182
22951WAT     H269096   0.443   8.954   1.292
22952WAT      O69097   4.963   1.351   0.920
22952WAT     H169098   4.967   1.380   1.016
22952WAT     H269099   4.946   1.430   0.862
22953WAT      O69100   8.026   8.717   1.932
22953WAT     H169101   8.064   8.746   1.845
22953WAT     H269102   8.073   8.634   1.963
22954WAT      O69103   3.795   9.601   8.850
22954WAT     H169104   3.862   9.615   8.923
22954WAT     H269105   3.719   9.666   8.862
22955WAT      O69106   4.026   1.766   3.983
22955WAT     H169107   4.089   1.688   3.984
22955WAT     H269108   4.078   1.851   3.988
22956WAT      O69109   6.590   5.782   9.225
22956WAT     H169110   6.674   5.836   9.228
22956WAT     H269111   6.582   5.738   9.136
22957WAT      O69112   3.239   7.395   9.421
22957WAT     H169113   3.291   7.425   9.341
22957WAT     H269114   3.265   7.302   9.445
22958WAT      O69115   4.251   9.480   9.252
22958WAT     H169116   4.302   9.450   9.332
22958WAT     H269117   4.162   9.435   9.250
22959WAT      O69118   7.969   1.522   0.118
22959WAT     H169119   7.944   1.441   0.065
22959WAT     H269120   8.069   1.533   0.116
22960WAT      O69121   9.578   2.837   4.490
22960WAT     H169122   9.525   2.854   4.573
22960WAT     H269123   9.523   2.857   4.410
22961WAT      O69124   3.208   8.444   8.510
22961WAT     H169125   3.245   8.461   8.601
22961WAT     H269126   3.237   8.518   8.449
22962WAT      O69127   3.105   0.518   2.492
22962WAT     H169128   3.190   0.517   2.441
22962WAT     H269129   3.035   0.566   2.439
22963WAT      O69130   3.562   6.083   2.206
22963WAT     H169131   3.564   6.000   2.261
22963WAT     H269132   3.488   6.142   2.238
22964WAT      O69133   9.747   0.678   0.237
22964WAT     H169134   9.720   0.582   0.222
22964WAT     H269135   9.723   0.732   0.157
22965WAT      O69136   8.257   8.149   0.656
22965WAT     H169137   8.348   8.108   0.646
22965WAT     H269138   8.267   8.246   0.676
22966WAT      O69139   6.645   6.043   1.966
22966WAT     H169140   6.565   6.096   1.992
22966WAT     H269141   6.654   5.964   2.027
22967WAT      O69142   8.730   4.337   1.435
22967WAT     H169143   8.758   4.422   1.391
22967WAT     H269144   8.699   4.272   1.366
22968WAT      O69145   9.837   1.292   9.676
22968WAT     H169146   9.874   1.251   9.760
22968WAT     H269147   9.780   1.225   9.628
22969WAT      O69148   5.727   4.971   8.062
22969WAT     H169149   5.814   4.948   8.019
22969WAT     H269150   5.678   5.037   8.005
22970WAT      O69151   9.518   4.098   8.927
22970WAT     H169152   9.449   4.121   8.996
22970WAT     H269153   9.541   4.001   8.935
22971WAT      O69154   0.482   6.099   6.214
22971WAT     H169155   0.482   6.049   6.128
22971WAT     H269156   0.467   6.197   6.195
22972WAT      O69157   4.369   6.769   8.537
22972WAT     H169158   4.386   6.689   8.479
22972WAT     H269159   4.278   6.763   8.577
22973WAT      O69160   1.818   0.310   0.297
22973WAT     H169161   1.789   0.320   0.392
22973WAT     H269162   1.787   0.221   0.262
22974WAT      O69163   8.276   6.540   4.997
22974WAT     H169164   8.275   6.441   4.978
22974WAT     H269165   8.188   6.579   4.970
22975WAT      O69166   1.965   9.110   6.677
22975WAT     H169167   1.970   9.092   6.578
22975WAT     H269168   1.979   9.024   6.727
22976WAT      O69169   5.741   1.539   6.072
22976WAT     H169170   5.777   1.495   5.990
22976WAT     H269171   5.729   1.637   6.055
22977WAT      O69172   9.685   6.233   5.706
22977WAT     H169173   9.622   6.235   5.784
22977WAT     H269174   9.778   6.253   5.737
22978WAT      O69175   0.380   1.816   7.645
22978WAT     H169176   0.311   1.753   7.610
22978WAT     H269177   0.461   1.812   7.586
22979WAT      O69178   9.772   7.232   8.336
22979WAT     H169179   9.719   7.250   8.254
22979WAT     H269180   9.747   7.297   8.408
22980WAT      O69181   6.794   4.412   0.021
22980WAT     H169182   6.861   4.339   0.011
22980WAT     H269183   6.841   4.501   0.015
22981WAT      O69184   0.330   6.860   5.024
22981WAT     H169185   0.311   6.934   4.959
22981WAT     H269186   0.259   6.790   5.018
22982WAT      O69187   5.469   0.139   2.385
22982WAT     H169188   5.451   0.184   2.298
22982WAT     H269189   5.466   0.206   2.459
22983WAT      O69190   9.039   3.516   5.961
22983WAT     H169191   9.011   3.611   5.971
22983WAT     H269192   9.122   3.500   6.015
22984WAT      O69193   6.905   6.310   5.353
22984WAT     H169194   6.909   6.314   5.253
22984WAT     H269195   6.851   6.387   5.387
22985WAT      O69196   7.887   0.526   5.531
22985WAT     H169197   7.974   0.575   5.538
22985WAT     H269198   7.871   0.499   5.436
22986WAT      O69199   7.915   2.336   4.786
22986WAT     H169200   7.914   2.367   4.691
22986WAT     H269201   7.878   2.408   4.845
22987WAT      O69202   3.386   3.800   7.018
22987WAT     H169203   3.471   3.761   6.985
22987WAT     H269204   3.356   3.873   6.955
22988WAT      O69205   9.801   9.255   7.282
22988WAT     H169206   9.762   9.217   7.198
22988WAT     H269207   9.892   9.216   7.297
22989WAT      O69208   2.074   7.379   8.605
22989WAT     H169209   2.160   7.354   8.649
22989WAT     H269210   2.036   7.460   8.649
22990WAT      O69211   5.362   2.941   8.334
22990WAT     H169212   5.287   2.941   8.268
22990WAT     H269213   5.443   2.899   8.293
22991WAT      O69214   1.627   0.659   8.500
22991WAT     H169215   1.589   0.571   8.474
22991WAT     H269216   1.606   0.727   8.430
22992WAT      O69217   5.182   6.863   1.187
22992WAT     H169218   5.167   6.770   1.154
22992WAT     H269219   5.203   6.923   1.110
22993WAT      O69220   1.720   6.980   1.223
22993WAT     H169221   1.720   6.892   1.269
22993WAT     H269222   1.814   7.006   1.202
22994WAT      O69223   4.094   8.852   1.202
22994WAT     H169224   4.158   8.929   1.200
22994WAT     H269225   4.124   8.785   1.270
22995WAT      O69226   2.806   8.492   9.780
22995WAT     H169227   2.847   8.581   9.760
22995WAT     H269228   2.866   8.419   9.746
22996WAT      O69229   3.602   1.859   7.567
22996WAT     H169230   3.657   1.842   7.485
22996WAT     H269231   3.513   1.894   7.541
22997WAT      O69232   2.635   4.250   8.799
22997WAT     H169233   2.692   4.275   8.720
22997WAT     H269234   2.589   4.163   8.781
22998WAT      O69235   1.810   4.004   2.648
22998WAT     H169236   1.723   3.969   2.684
22998WAT     H269237   1.837   4.085   2.699
22999WAT      O69238   1.531   8.337   7.052
22999WAT     H169239   1.618   8.300   7.019
22999WAT     H269240   1.515   8.307   7.146
23000WAT      O69241   2.144   6.502   8.907
23000WAT     H169242   2.185   6.555   8.833
23000WAT     H269243   2.046   6.496   8.893
23001WAT      O69244   5.200   9.701   5.026
23001WAT     H169245   5.160   9.793   5.022
23001WAT     H269246   5.189   9.664   5.118
23002WAT      O69247   0.292   5.832   8.797
23002WAT     H169248   0.385   5.838   8.760
23002WAT     H269249   0.260   5.738   8.791
23003WAT      O69250   7.713   4.921   9.847
23003WAT     H169251   7.649   4.963   9.783
23003WAT     H269252   7.739   4.988   9.917
23004WAT      O69253   1.436   4.800   7.146
23004WAT     H169254   1.410   4.727   7.209
23004WAT     H269255   1.405   4.887   7.182
23005WAT      O69256   1.463   1.972   8.950
23005WAT     H169257   1.529   2.045   8.930
23005WAT     H269258   1.439   1.926   8.864
23006WAT      O69259   8.706   6.612   6.117
23006WAT     H169260   8.670   6.691   6.068
23006WAT     H269261   8.738   6.640   6.207
23007WAT      O69262   1.560   3.473   1.701
23007WAT     H169263   1.580   3.496   1.606
23007WAT     H269264   1.635   3.419   1.739
23008WAT      O69265   5.842   8.882   4.855
23008WAT     H169266   5.899   8.804   4.883
23008WAT     H269267   5.837   8.886   4.756
23009WAT      O69268   7.200   0.133   6.060
23009WAT     H169269   7.103   0.126   6.083
23009WAT     H269270   7.213   0.120   5.962
23010WAT      O69271   6.841   1.328   7.421
23010WAT     H169272   6.828   1.240   7.375
23010WAT     H269273   6.762   1.387   7.405
23011WAT      O69274   3.327   3.442   8.185
23011WAT     H169275   3.240   3.480   8.215
23011WAT     H269276   3.334   3.347   8.217
23012WAT      O69277   7.907   9.773   7.575
23012WAT     H169278   7.931   9.676   7.571
23012WAT     H269279   7.851   9.798   7.496
23013WAT      O69280   9.324   6.796   4.006
23013WAT     H169281   9.414   6.756   4.025
23013WAT     H269282   9.297   6.854   4.082
23014WAT      O69283   5.354   4.365   7.655
23014WAT     H169284   5.399   4.408   7.734
23014WAT     H269285   5.339   4.268   7.673
23015WAT      O69286   7.933   2.551   5.164
23015WAT     H169287   7.878   2.596   5.234
23015WAT     H269288   7.894   2.568   5.074
23016WAT      O69289   8.689   0.715   7.446
23016WAT     H169290   8.650   0.753   7.529
23016WAT     H269291   8.630   0.642   7.411
23017WAT      O69292   4.115   3.519   4.378
23017WAT     H169293   4.148   3.566   4.296
23017WAT     H269294   4.087   3.586   4.447
23018WAT      O69295   1.698   2.167   5.542
23018WAT     H169296   1.777   2.223   5.569
23018WAT     H269297   1.640   2.219   5.480
23019WAT      O69298   6.697   2.289   2.193
23019WAT     H169299   6.606   2.314   2.161
23019WAT     H269300   6.709   2.321   2.287
23020WAT      O69301   8.748   7.430   8.585
23020WAT     H169302   8.799   7.373   8.521
23020WAT     H269303   8.752   7.526   8.555
23021WAT      O69304   9.562   2.148   7.961
23021WAT     H169305   9.523   2.106   8.043
23021WAT     H269306   9.660   2.129   7.957
23022WAT      O69307   3.057   8.192   5.435
23022WAT     H169308   3.014   8.274   5.398
23022WAT     H269309   3.076   8.127   5.361
23023WAT      O69310   6.134   3.517   9.198
23023WAT     H169311   6.117   3.609   9.162
23023WAT     H269312   6.097   3.449   9.135
23024WAT      O69313   9.575   7.941   6.980
23024WAT     H169314   9.567   7.973   7.074
23024WAT     H269315   9.534   8.008   6.918
23025WAT      O69316   2.704   7.006   3.564
23025WAT     H169317   2.648   6.926   3.583
23025WAT     H269318   2.781   6.980   3.505
23026WAT      O69319   8.577   8.589   8.681
23026WAT     H169320   8.482   8.584   8.712
23026WAT     H269321   8.638   8.564   8.756
23027WAT      O69322   4.910   8.043   3.975
23027WAT     H169323   4.963   7.978   3.921
23027WAT     H269324   4.839   8.084   3.917
23028WAT      O69325   9.607   2.838   1.590
23028WAT     H169326   9.534   2.831   1.522
23028WAT     H269327   9.583   2.909   1.657
23029WAT      O69328   8.056   0.888   8.238
23029WAT     H169329   8.131   0.951   8.258
23029WAT     H269330   8.063   0.856   8.143
23030WAT      O69331   5.337   5.234   3.410
23030WAT     H169332   5.367   5.287   3.488
23030WAT     H269333   5.371   5.140   3.418
23031WAT      O69334   2.559   9.202   0.238
23031WAT     H169335   2.627   9.216   0.310
23031WAT     H269336   2.502   9.123   0.262
23032WAT      O69337   0.781   1.218   2.487
23032WAT     H169338   0.713   1.189   2.419
23032WAT     H269339   0.749   1.195   2.579
23033WAT      O69340   9.036   0.046   4.738
23033WAT     H169341   9.110   0.066   4.802
23033WAT     H269342   9.038  -0.051   4.715
23034WAT      O69343   4.079   8.288   2.926
23034WAT     H169344   4.125   8.250   2.846
23034WAT     H269345   3.984   8.308   2.904
23035WAT      O69346   0.256   5.242   5.530
23035WAT     H169347   0.247   5.337   5.498
23035WAT     H269348   0.343   5.205   5.497
23036WAT      O69349   9.203   7.808   3.613
23036WAT     H169350   9.265   7.841   3.685
23036WAT     H269351   9.239   7.724   3.574
23037WAT      O69352   8.056   6.526   6.288
23037WAT     H169353   8.138   6.539   6.232
23037WAT     H269354   8.027   6.614   6.326
23038WAT      O69355   7.422   5.088   7.815
23038WAT     H169356   7.366   5.010   7.842
23038WAT     H269357   7.405   5.165   7.877
23039WAT      O69358   4.394   0.798   0.736
23039WAT     H169359   4.335   0.722   0.709
23039WAT     H269360   4.466   0.811   0.668
23040WAT      O69361   9.122   8.015   9.073
23040WAT     H169362   9.066   7.938   9.041
23040WAT     H269363   9.190   7.981   9.138
23041WAT      O69364   1.626   9.453   0.928
23041WAT     H169365   1.725   9.442   0.919
23041WAT     H269366   1.580   9.371   0.896
23042WAT      O69367   2.075   9.597   5.097
23042WAT     H169368   2.133   9.580   5.018
23042WAT     H269369   2.109   9.677   5.147
23043WAT      O69370   2.318   5.486   3.731
23043WAT     H169371   2.293   5.391   3.712
23043WAT     H269372   2.321   5.537   3.645
23044WAT      O69373   2.157   2.726   9.003
23044WAT     H169374   2.255   2.728   9.027
23044WAT     H269375   2.126   2.818   8.982
23045WAT      O69376   5.405   3.764   8.863
23045WAT     H169377   5.358   3.842   8.822
23045WAT     H269378   5.481   3.796   8.919
23046WAT      O69379   8.985   8.113   6.105
23046WAT     H169380   9.029   8.172   6.038
23046WAT     H269381   8.999   8.017   6.079
23047WAT      O69382   6.684   0.650   9.001
23047WAT     H169383   6.658   0.553   9.000
23047WAT     H269384   6.777   0.660   8.964
23048WAT      O69385   4.230   6.362   8.232
23048WAT     H169386   4.269   6.406   8.313
23048WAT     H269387   4.296   6.365   8.157
23049WAT      O69388   8.434   2.957   3.810
23049WAT     H169389   8.471   3.005   3.731
23049WAT     H269390   8.419   2.861   3.786
23050WAT      O69391   7.082   2.808   2.981
23050WAT     H169392   7.087   2.849   2.890
23050WAT     H269393   7.152   2.737   2.990
23051WAT      O69394   1.858   5.223   8.465
23051WAT     H169395   1.781   5.259   8.413
23051WAT     H269396   1.826   5.151   8.527
23052WAT      O69397   3.220   5.736   3.733
23052WAT     H169398   3.149   5.754   3.801
23052WAT     H269399   3.268   5.822   3.712
23053WAT      O69400   2.365   3.367   9.463
23053WAT     H169401   2.371   3.304   9.386
23053WAT     H269402   2.398   3.458   9.435
23054WAT      O69403   3.984   6.933   4.615
23054WAT     H169404   3.915   6.925   4.688
23054WAT     H269405   4.065   6.881   4.641
23055WAT      O69406   9.825   4.575   3.502
23055WAT     H169407   9.743   4.620   3.538
23055WAT     H269408   9.894   4.568   3.574
23056WAT      O69409   8.699   0.938   9.398
23056WAT     H169410   8.740   0.866   9.454
23056WAT     H269411   8.691   1.022   9.453
23057WAT      O69412   1.531   5.494   7.145
23057WAT     H169413   1.612   5.533   7.101
23057WAT     H269414   1.553   5.470   7.240
23058WAT      O69415   0.768   0.359   7.462
23058WAT     H169416   0.721   0.404   7.386
23058WAT     H269417   0.735   0.265   7.471
23059WAT      O69418   8.727   0.589   4.353
23059WAT     H169419   8.771   0.599   4.442
23059WAT     H269420   8.629   0.609   4.361
23060WAT      O69421   7.795   5.043   7.123
23060WAT     H169422   7.752   5.089   7.046
23060WAT     H269423   7.725   5.006   7.184
23061WAT      O69424   2.292   7.592   4.721
23061WAT     H169425   2.379   7.629   4.752
23061WAT     H269426   2.231   7.581   4.800
23062WAT      O69427   0.921   2.490   4.319
23062WAT     H169428   1.015   2.456   4.319
23062WAT     H269429   0.885   2.487   4.412
23063WAT      O69430   7.729   9.733   9.622
23063WAT     H169431   7.716   9.747   9.524
23063WAT     H269432   7.777   9.646   9.637
23064WAT      O69433   7.354   6.601   6.441
23064WAT     H169434   7.346   6.505   6.468
23064WAT     H269435   7.307   6.658   6.508
23065WAT      O69436   5.088   6.344   1.093
23065WAT     H169437   5.150   6.292   1.153
23065WAT     H269438   5.079   6.298   1.005
23066WAT      O69439   1.755   8.308   9.015
23066WAT     H169440   1.821   8.288   9.088
23066WAT     H269441   1.671   8.344   9.056
23067WAT      O69442   8.063   2.093   5.224
23067WAT     H169443   8.103   2.184   5.211
23067WAT     H269444   7.969   2.093   5.191
23068WAT      O69445   8.939   3.518   9.354
23068WAT     H169446   8.851   3.505   9.309
23068WAT     H269447   9.009   3.540   9.285
23069WAT      O69448   2.620   9.319   3.664
23069WAT     H169449   2.574   9.381   3.727
23069WAT     H269450   2.611   9.225   3.697
23070WAT      O69451   0.028   1.796   6.053
23070WAT     H169452   0.101   1.783   6.120
23070WAT     H269453   0.052   1.872   5.992
23071WAT      O69454   8.534   9.147   5.736
23071WAT     H169455   8.535   9.222   5.670
23071WAT     H269456   8.501   9.063   5.692
23072WAT      O69457   5.658   6.113   7.116
23072WAT     H169458   5.656   6.036   7.053
23072WAT     H269459   5.737   6.106   7.176
23073WAT      O69460   8.814   1.267   2.631
23073WAT     H169461   8.841   1.348   2.682
23073WAT     H269462   8.735   1.224   2.675
23074WAT      O69463   2.942   5.022   0.213
23074WAT     H169464   2.860   4.965   0.206
23074WAT     H269465   2.956   5.048   0.308
23075WAT      O69466   4.099   1.693   2.795
23075WAT     H169467   4.175   1.690   2.730
23075WAT     H269468   4.014   1.711   2.745
23076WAT      O69469   9.772   6.139   0.772
23076WAT     H169470   9.785   6.064   0.708
23076WAT     H269471   9.729   6.104   0.855
23077WAT      O69472   4.492   6.146   5.284
23077WAT     H169473   4.543   6.112   5.205
23077WAT     H269474   4.552   6.151   5.363
23078WAT      O69475   4.524   8.316   1.915
23078WAT     H169476   4.565   8.240   1.966
23078WAT     H269477   4.576   8.399   1.930
23079WAT      O69478   5.867   1.549   5.811
23079WAT     H169479   5.829   1.639   5.792
23079WAT     H269480   5.915   1.515   5.731
23080WAT      O69481   1.017   9.230   9.614
23080WAT     H169482   1.015   9.324   9.650
23080WAT     H269483   0.941   9.179   9.653
23081WAT      O69484   1.788   3.701   5.128
23081WAT     H169485   1.771   3.610   5.165
23081WAT     H269486   1.855   3.749   5.185
23082WAT      O69487   8.249   6.332   9.345
23082WAT     H169488   8.282   6.242   9.375
23082WAT     H269489   8.327   6.390   9.322
23083WAT      O69490   4.670   4.722   8.584
23083WAT     H169491   4.673   4.821   8.572
23083WAT     H269492   4.761   4.688   8.605
23084WAT      O69493   2.292   1.211   6.603
23084WAT     H169494   2.258   1.208   6.697
23084WAT     H269495   2.252   1.135   6.551
23085WAT      O69496   7.456   0.673   5.631
23085WAT     H169497   7.547   0.712   5.626
23085WAT     H269498   7.446   0.602   5.561
23086WAT      O69499   5.086   3.586   4.058
23086WAT     H169500   5.178   3.602   4.093
23086WAT     H269501   5.086   3.506   3.997
23087WAT      O69502   2.373   5.588   7.882
23087WAT     H169503   2.454   5.553   7.835
23087WAT     H269504   2.299   5.602   7.816
23088WAT      O69505   6.495   5.705   8.393
23088WAT     H169506   6.493   5.800   8.423
23088WAT     H269507   6.540   5.699   8.303
23089WAT      O69508   9.841   6.129   7.465
23089WAT     H169509   9.926   6.175   7.494
23089WAT     H269510   9.860   6.033   7.445
23090WAT      O69511   3.987   0.378   5.130
23090WAT     H169512   3.937   0.455   5.168
23090WAT     H269513   4.032   0.405   5.045
23091WAT      O69514   1.118   9.090   7.860
23091WAT     H169515   1.060   9.168   7.833
23091WAT     H269516   1.213   9.120   7.867
23092WAT      O69517   7.750   8.794   5.262
23092WAT     H169518   7.823   8.733   5.294
23092WAT     H269519   7.704   8.753   5.184
23093WAT      O69520   2.184   7.671   2.757
23093WAT     H169521   2.102   7.683   2.701
23093WAT     H269522   2.266   7.679   2.700
23094WAT      O69523   8.526   6.766   8.330
23094WAT     H169524   8.625   6.755   8.318
23094WAT     H269525   8.504   6.863   8.336
23095WAT      O69526   7.995   2.296   2.447
23095WAT     H169527   7.910   2.319   2.399
23095WAT     H269528   8.073   2.324   2.391
23096WAT      O69529   9.541   2.974   2.861
23096WAT     H169530   9.491   2.891   2.836
23096WAT     H269531   9.495   3.020   2.936
23097WAT      O69532   6.225   7.045   2.271
23097WAT     H169533   6.312   7.021   2.312
23097WAT     H269534   6.153   6.986   2.308
23098WAT      O69535   7.442   2.324   3.497
23098WAT     H169536   7.419   2.409   3.449
23098WAT     H269537   7.471   2.345   3.590
23099WAT      O69538   6.532   0.433   3.014
23099WAT     H169539   6.575   0.392   3.094
23099WAT     H269540   6.484   0.517   3.041
23100WAT      O69541   8.774   2.973   0.887
23100WAT     H169542   8.817   3.041   0.828
23100WAT     H269543   8.693   3.013   0.930
23101WAT      O69544   3.036   5.989   2.204
23101WAT     H169545   3.041   6.075   2.154
23101WAT     H269546   3.105   5.926   2.168
23102WAT      O69547   4.618   8.352   6.268
23102WAT     H169548   4.631   8.365   6.170
23102WAT     H269549   4.542   8.289   6.284
23103WAT      O69550   1.543   6.792   8.156
23103WAT     H169551   1.493   6.874   8.183
23103WAT     H269552   1.480   6.715   8.145
23104WAT      O69553   7.199   7.298   6.200
23104WAT     H169554   7.258   7.236   6.252
23104WAT     H269555   7.256   7.360   6.146
23105WAT      O69556   8.508   1.741   1.941
23105WAT     H169557   8.607   1.749   1.926
23105WAT     H269558   8.459   1.789   1.867
23106WAT      O69559   8.625   2.276   8.294
23106WAT     H169560   8.573   2.291   8.378
23106WAT     H269561   8.641   2.178   8.282
23107WAT      O69562   7.506   1.120   4.246
23107WAT     H169563   7.532   1.131   4.150
23107WAT     H269564   7.573   1.062   4.292
23108WAT      O69565   6.159   8.072   5.531
23108WAT     H169566   6.195   8.163   5.552
23108WAT     H269567   6.107   8.038   5.609
23109WAT      O69568   6.443   3.347   9.007
23109WAT     H169569   6.492   3.331   9.093
23109WAT     H269570   6.444   3.445   8.986
23110WAT      O69571   3.222   1.423   6.794
23110WAT     H169572   3.265   1.509   6.822
23110WAT     H269573   3.293   1.356   6.772
23111WAT      O69574   9.304   7.025   7.773
23111WAT     H169575   9.338   6.973   7.852
23111WAT     H269576   9.352   7.113   7.769
23112WAT      O69577   8.794   4.614   7.997
23112WAT     H169578   8.830   4.568   8.078
23112WAT     H269579   8.702   4.580   7.977
23113WAT      O69580   1.850   2.423   1.691
23113WAT     H169581   1.938   2.376   1.686
23113WAT     H269582   1.824   2.455   1.600
23114WAT      O69583   4.823   2.020   0.006
23114WAT     H169584   4.917   1.988  -0.004
23114WAT     H269585   4.762   1.942   0.022
23115WAT      O69586   2.556   2.966   2.452
23115WAT     H169587   2.556   2.877   2.406
23115WAT     H269588   2.605   2.958   2.539
23116WAT      O69589   4.236   2.798   8.131
23116WAT     H169590   4.326   2.819   8.169
23116WAT     H269591   4.184   2.744   8.196
23117WAT      O69592   1.826   8.766   8.090
23117WAT     H169593   1.792   8.708   8.164
23117WAT     H269594   1.765   8.845   8.078
23118WAT      O69595   9.164   0.694   7.707
23118WAT     H169596   9.207   0.768   7.655
23118WAT     H269597   9.081   0.665   7.661
23119WAT      O69598   8.708   4.951   0.368
23119WAT     H169599   8.771   4.977   0.441
23119WAT     H269600   8.710   4.852   0.356
23120WAT      O69601   7.944   2.538   6.649
23120WAT     H169602   7.855   2.540   6.694
23120WAT     H269603   8.007   2.482   6.703
23121WAT      O69604   4.885   1.039   9.006
23121WAT     H169605   4.906   1.135   9.025
23121WAT     H269606   4.790   1.030   8.975
23122WAT      O69607   8.078   3.485   8.314
23122WAT     H169608   8.028   3.450   8.393
23122WAT     H269609   8.162   3.431   8.301
23123WAT      O69610   1.715   4.904   0.656
23123WAT     H169611   1.624   4.863   0.659
23123WAT     H269612   1.756   4.888   0.566
23124WAT      O69613   7.545   8.113   9.000
23124WAT     H169614   7.537   8.204   9.043
23124WAT     H269615   7.544   8.123   8.901
23125WAT      O69616   2.259   9.683   0.983
23125WAT     H169617   2.330   9.613   0.980
23125WAT     H269618   2.270   9.737   1.066
23126WAT      O69619   2.816   6.058   5.482
23126WAT     H169620   2.843   6.123   5.554
23126WAT     H269621   2.898   6.021   5.439
23127WAT      O69622   0.171   6.319   6.923
23127WAT     H169623   0.143   6.265   6.843
23127WAT     H269624   0.270   6.317   6.931
23128WAT      O69625   9.587   6.072   8.775
23128WAT     H169626   9.631   6.112   8.856
23128WAT     H269627   9.488   6.071   8.787
23129WAT      O69628   8.229   8.907   0.330
23129WAT     H169629   8.312   8.891   0.277
23129WAT     H269630   8.150   8.906   0.270
23130WAT      O69631   0.967   5.584   9.384
23130WAT     H169632   1.032   5.508   9.385
23130WAT     H269633   0.973   5.636   9.469
23131WAT      O69634   3.607   1.859   0.073
23131WAT     H169635   3.706   1.862   0.064
23131WAT     H269636   3.581   1.882   0.167
23132WAT      O69637   9.854   0.913   4.223
23132WAT     H169638   9.780   0.894   4.287
23132WAT     H269639   9.885   1.007   4.233
23133WAT      O69640   6.523   6.771   5.511
23133WAT     H169641   6.426   6.747   5.503
23133WAT     H269642   6.532   6.864   5.545
23134WAT      O69643   8.485   3.595   9.718
23134WAT     H169644   8.445   3.685   9.699
23134WAT     H269645   8.514   3.591   9.814
23135WAT      O69646   3.214   6.572   7.513
23135WAT     H169647   3.202   6.498   7.579
23135WAT     H269648   3.170   6.655   7.548
23136WAT      O69649   5.519   8.267   9.736
23136WAT     H169650   5.485   8.207   9.809
23136WAT     H269651   5.446   8.283   9.670
23137WAT      O69652   9.145   2.483   6.214
23137WAT     H169653   9.055   2.474   6.170
23137WAT     H269654   9.132   2.489   6.313
23138WAT      O69655   1.368   3.840   4.282
23138WAT     H169656   1.318   3.798   4.358
23138WAT     H269657   1.328   3.810   4.195
23139WAT      O69658   4.713   0.017   0.608
23139WAT     H169659   4.743   0.101   0.654
23139WAT     H269660   4.729  -0.061   0.668
23140WAT      O69661   1.567   5.337   3.808
23140WAT     H169662   1.487   5.357   3.865
23140WAT     H269663   1.577   5.408   3.738
23141WAT      O69664   9.600   2.553   7.352
23141WAT     H169665   9.599   2.454   7.368
23141WAT     H269666   9.695   2.585   7.344
23142WAT      O69667   7.995   6.328   4.642
23142WAT     H169668   8.072   6.385   4.670
23142WAT     H269669   7.966   6.353   4.550
23143WAT      O69670   9.464   0.091   7.821
23143WAT     H169671   9.375   0.134   7.809
23143WAT     H269672   9.535   0.161   7.817
23144WAT      O69673   8.478   9.065   8.331
23144WAT     H169674   8.529   9.111   8.404
23144WAT     H269675   8.522   8.977   8.310
23145WAT      O69676   9.322   9.386   6.257
23145WAT     H169677   9.261   9.461   6.232
23145WAT     H269678   9.293   9.347   6.344
23146WAT      O69679   8.688   2.913   1.939
23146WAT     H169680   8.634   2.829   1.941
23146WAT     H269681   8.640   2.983   1.886
23147WAT      O69682   4.278   6.839   1.217
23147WAT     H169683   4.375   6.830   1.242
23147WAT     H269684   4.225   6.771   1.267
23148WAT      O69685   2.352   6.020   8.156
23148WAT     H169686   2.358   5.920   8.152
23148WAT     H269687   2.442   6.060   8.143
23149WAT      O69688   7.963   5.529   6.088
23149WAT     H169689   8.045   5.473   6.074
23149WAT     H269690   7.963   5.566   6.181
23150WAT      O69691   9.463   8.800   2.821
23150WAT     H169692   9.450   8.770   2.726
23150WAT     H269693   9.554   8.840   2.830
23151WAT      O69694   5.868   9.282   5.716
23151WAT     H169695   5.819   9.368   5.697
23151WAT     H269696   5.801   9.209   5.731
23152WAT      O69697   9.758   9.151   5.454
23152WAT     H169698   9.810   9.228   5.418
23152WAT     H269699   9.718   9.175   5.543
23153WAT      O69700   8.885   8.253   9.589
23153WAT     H169701   8.904   8.167   9.635
23153WAT     H269702   8.899   8.329   9.653
23154WAT      O69703   1.033   2.600   1.157
23154WAT     H169704   1.021   2.638   1.249
23154WAT     H269705   1.130   2.591   1.137
23155WAT      O69706   8.093   5.415   8.866
23155WAT     H169707   8.029   5.361   8.921
23155WAT     H269708   8.087   5.386   8.770
23156WAT      O69709   9.801   0.024   4.400
23156WAT     H169710   9.733   0.085   4.360
23156WAT     H269711   9.806   0.041   4.499
23157WAT      O69712   5.881   1.920   0.866
23157WAT     H169713   5.894   1.824   0.844
23157WAT     H269714   5.851   1.970   0.785
23158WAT      O69715   3.833   9.321   6.658
23158WAT     H169716   3.822   9.320   6.757
23158WAT     H269717   3.854   9.228   6.626
23159WAT      O69718   7.527   0.972   1.293
23159WAT     H169719   7.596   1.031   1.251
23159WAT     H269720   7.493   1.015   1.377
23160WAT      O69721   8.147   1.791   3.820
23160WAT     H169722   8.129   1.840   3.906
23160WAT     H269723   8.204   1.848   3.761
23161WAT      O69724   5.354   8.958   5.127
23161WAT     H169725   5.431   8.903   5.094
23161WAT     H269726   5.338   8.938   5.224
23162WAT      O69727   8.485   6.596   6.408
23162WAT     H169728   8.433   6.524   6.454
23162WAT     H269729   8.425   6.646   6.345
23163WAT      O69730   6.576   4.481   9.081
23163WAT     H169731   6.636   4.505   9.005
23163WAT     H269732   6.480   4.484   9.051
23164WAT      O69733   2.130   7.919   1.319
23164WAT     H169734   2.099   7.927   1.413
23164WAT     H269735   2.155   7.824   1.300
23165WAT      O69736   6.762   4.076   3.906
23165WAT     H169737   6.675   4.044   3.870
23165WAT     H269738   6.833   4.066   3.836
23166WAT      O69739   1.063   1.579   4.951
23166WAT     H169740   1.085   1.649   4.882
23166WAT     H269741   1.045   1.623   5.038
23167WAT      O69742   0.161   0.213   8.725
23167WAT     H169743   0.112   0.148   8.783
23167WAT     H269744   0.103   0.294   8.709
23168WAT      O69745   3.779   7.658   0.210
23168WAT     H169746   3.726   7.599   0.149
23168WAT     H269747   3.753   7.753   0.195
23169WAT      O69748   0.366   3.301   5.231
23169WAT     H169749   0.285   3.274   5.179
23169WAT     H269750   0.354   3.275   5.327
23170WAT      O69751   4.052   7.816   5.657
23170WAT     H169752   4.142   7.787   5.689
23170WAT     H269753   4.057   7.911   5.626
23171WAT      O69754   4.602   1.621   3.555
23171WAT     H169755   4.684   1.626   3.613
23171WAT     H269756   4.521   1.639   3.611
23172WAT      O69757   1.941   0.538   5.161
23172WAT     H169758   1.985   0.459   5.120
23172WAT     H269759   2.005   0.615   5.164
23173WAT      O69760   1.143   6.258   9.462
23173WAT     H169761   1.203   6.223   9.534
23173WAT     H269762   1.176   6.346   9.430
23174WAT      O69763   1.005   3.309   4.024
23174WAT     H169764   1.041   3.400   4.045
23174WAT     H269765   0.905   3.311   4.031
23175WAT      O69766   2.209   5.088   2.674
23175WAT     H169767   2.239   5.166   2.618
23175WAT     H269768   2.178   5.121   2.763
23176WAT      O69769   7.725   0.199   1.064
23176WAT     H169770   7.723   0.149   0.978
23176WAT     H269771   7.640   0.252   1.074
23177WAT      O69772   2.259   9.606   9.610
23177WAT     H169773   2.213   9.618   9.699
23177WAT     H269774   2.297   9.694   9.581
23178WAT      O69775   8.362   4.241   0.085
23178WAT     H169776   8.447   4.240   0.031
23178WAT     H269777   8.309   4.159   0.064
23179WAT      O69778   5.969   0.498   0.179
23179WAT     H169779   6.022   0.427   0.225
23179WAT     H269780   5.911   0.544   0.245
23180WAT      O69781   3.061   4.400   9.137
23180WAT     H169782   3.122   4.477   9.156
23180WAT     H269783   3.053   4.344   9.219
23181WAT      O69784   2.485   0.152   8.334
23181WAT     H169785   2.524   0.149   8.242
23181WAT     H269786   2.532   0.085   8.392
23182WAT      O69787   6.828   3.576   0.592
23182WAT     H169788   6.803   3.568   0.688
23182WAT     H269789   6.809   3.670   0.561
23183WAT      O69790   8.885   8.070   2.570
23183WAT     H169791   8.922   8.052   2.661
23183WAT     H269792   8.845   7.986   2.533
23184WAT      O69793   6.600   3.975   7.537
23184WAT     H169794   6.548   3.991   7.453
23184WAT     H269795   6.568   3.892   7.582
23185WAT      O69796   0.553   5.659   6.930
23185WAT     H169797   0.595   5.602   7.000
23185WAT     H269798   0.525   5.746   6.970
23186WAT      O69799   1.259   1.287   5.516
23186WAT     H169800   1.303   1.270   5.427
23186WAT     H269801   1.324   1.271   5.589
23187WAT      O69802   3.405   5.027   4.056
23187WAT     H169803   3.388   4.949   4.115
23187WAT     H269804   3.440   4.995   3.968
23188WAT      O69805   3.927   9.192   1.091
23188WAT     H169806   3.976   9.276   1.070
23188WAT     H269807   3.908   9.189   1.189
23189WAT      O69808   1.428   6.192   3.702
23189WAT     H169809   1.402   6.102   3.737
23189WAT     H269810   1.483   6.181   3.619
23190WAT      O69811   1.353   1.795   8.159
23190WAT     H169812   1.421   1.829   8.224
23190WAT     H269813   1.328   1.701   8.182
23191WAT      O69814   0.132   6.508   6.564
23191WAT     H169815   0.162   6.602   6.545
23191WAT     H269816   0.140   6.453   6.481
23192WAT      O69817   7.157   8.949   8.548
23192WAT     H169818   7.121   8.988   8.633
23192WAT     H269819   7.102   8.981   8.471
23193WAT      O69820   4.926   6.758   9.282
23193WAT     H169821   4.826   6.754   9.285
23193WAT     H269822   4.956   6.789   9.192
23194WAT      O69823   9.559   7.987   0.097
23194WAT     H169824   9.475   7.949   0.060
23194WAT     H269825   9.584   8.070   0.048
23195WAT      O69826   5.863   1.939   8.354
23195WAT     H169827   5.854   1.883   8.272
23195WAT     H269828   5.950   1.919   8.399
23196WAT      O69829   7.460   7.055   0.249
23196WAT     H169830   7.457   7.106   0.163
23196WAT     H269831   7.504   7.109   0.319
23197WAT      O69832   0.757   4.029   5.620
23197WAT     H169833   0.731   3.944   5.665
23197WAT     H269834   0.762   4.102   5.687
23198WAT      O69835   5.276   5.599   3.163
23198WAT     H169836   5.310   5.566   3.075
23198WAT     H269837   5.232   5.524   3.212
23199WAT      O69838   9.647   1.979   6.461
23199WAT     H169839   9.558   1.959   6.420
23199WAT     H269840   9.658   2.078   6.468
23200WAT      O69841   9.426   4.277   1.946
23200WAT     H169842   9.436   4.330   1.862
23200WAT     H269843   9.351   4.316   2.001
23201WAT      O69844   8.978   7.944   7.114
23201WAT     H169845   8.943   7.947   7.020
23201WAT     H269846   8.988   8.037   7.149
23202WAT      O69847   6.351   6.126   3.924
23202WAT     H169848   6.286   6.099   3.996
23202WAT     H269849   6.354   6.054   3.855
23203WAT      O69850   2.595   2.094   6.667
23203WAT     H169851   2.515   2.120   6.613
23203WAT     H269852   2.678   2.126   6.619
23204WAT      O69853   5.955   2.580   9.707
23204WAT     H169854   5.905   2.555   9.790
23204WAT     H269855   5.900   2.554   9.627
23205WAT      O69856   1.123   3.512   7.988
23205WAT     H169857   1.189   3.513   8.063
23205WAT     H269858   1.063   3.591   7.996
23206WAT      O69859   7.970   9.466   5.916
23206WAT     H169860   8.035   9.443   5.988
23206WAT     H269861   8.003   9.429   5.829
23207WAT      O69862   1.257   8.855   0.491
23207WAT     H169863   1.318   8.798   0.437
23207WAT     H269864   1.226   8.804   0.571
23208WAT      O69865   4.387   9.105   7.117
23208WAT     H169866   4.327   9.177   7.081
23208WAT     H269867   4.466   9.093   7.057
23209WAT      O69868   1.679   3.968   7.886
23209WAT     H169869   1.655   4.031   7.812
23209WAT     H269870   1.688   3.875   7.850
23210WAT      O69871   1.920   3.131   0.736
23210WAT     H169872   2.016   3.158   0.748
23210WAT     H269873   1.916   3.044   0.687
23211WAT      O69874   0.403   2.455   6.972
23211WAT     H169875   0.425   2.372   7.023
23211WAT     H269876   0.485   2.486   6.922
23212WAT      O69877   1.998   4.210   8.900
23212WAT     H169878   2.012   4.307   8.922
23212WAT     H269879   1.931   4.171   8.963
23213WAT      O69880   3.217   6.233   8.986
23213WAT     H169881   3.227   6.323   9.027
23213WAT     H269882   3.306   6.187   8.985
23214WAT      O69883   1.396   3.412   5.910
23214WAT     H169884   1.496   3.405   5.908
23214WAT     H269885   1.366   3.414   6.006
23215WAT      O69886   4.170   0.817   4.155
23215WAT     H169887   4.145   0.796   4.061
23215WAT     H269888   4.203   0.911   4.161
23216WAT      O69889   1.474   2.460   9.275
23216WAT     H169890   1.519   2.391   9.219
23216WAT     H269891   1.542   2.513   9.325
23217WAT      O69892   0.680   7.569   6.397
23217WAT     H169893   0.707   7.650   6.448
23217WAT     H269894   0.602   7.525   6.441
23218WAT      O69895   4.073   6.770   9.452
23218WAT     H169896   3.984   6.778   9.408
23218WAT     H269897   4.143   6.809   9.393
23219WAT      O69898   7.327   5.546   5.840
23219WAT     H169899   7.246   5.489   5.841
23219WAT     H269900   7.406   5.493   5.810
23220WAT      O69901   4.463   8.913   2.990
23220WAT     H169902   4.482   8.971   3.069
23220WAT     H269903   4.424   8.826   3.020
23221WAT      O69904   9.419   1.136   0.852
23221WAT     H169905   9.342   1.073   0.833
23221WAT     H269906   9.434   1.141   0.950
23222WAT      O69907   2.672   4.230   7.363
23222WAT     H169908   2.661   4.205   7.459
23222WAT     H269909   2.631   4.320   7.346
23223WAT      O69910   8.296   2.404   4.796
23223WAT     H169911   8.374   2.369   4.847
23223WAT     H269912   8.217   2.344   4.810
23224WAT      O69913   0.765   5.077   6.193
23224WAT     H169914   0.798   5.150   6.134
23224WAT     H269915   0.784   5.100   6.289
23225WAT      O69916   2.959   4.760   2.728
23225WAT     H169917   2.899   4.734   2.804
23225WAT     H269918   2.977   4.680   2.671
23226WAT      O69919   3.151   8.969   7.667
23226WAT     H169920   3.059   9.008   7.679
23226WAT     H269921   3.143   8.879   7.625
23227WAT      O69922   8.035   7.755   9.037
23227WAT     H169923   8.057   7.839   9.087
23227WAT     H269924   7.946   7.721   9.068
23228WAT      O69925   8.948   4.215   1.521
23228WAT     H169926   9.022   4.237   1.458
23228WAT     H269927   8.864   4.260   1.491
23229WAT      O69928   3.917   2.686   8.519
23229WAT     H169929   3.919   2.607   8.580
23229WAT     H269930   3.824   2.720   8.511
23230WAT      O69931   7.212   8.573   7.946
23230WAT     H169932   7.281   8.565   8.017
23230WAT     H269933   7.126   8.534   7.979
23231WAT      O69934   6.458   8.237   6.602
23231WAT     H169935   6.465   8.222   6.504
23231WAT     H269936   6.471   8.150   6.650
23232WAT      O69937   8.060   7.993   5.206
23232WAT     H169938   8.081   7.905   5.247
23232WAT     H269939   7.978   8.032   5.249
23233WAT      O69940   3.209   2.340   9.681
23233WAT     H169941   3.246   2.400   9.752
23233WAT     H269942   3.113   2.362   9.666
23234WAT      O69943   3.478   6.600   1.614
23234WAT     H169944   3.383   6.627   1.633
23234WAT     H269945   3.502   6.522   1.671
23235WAT      O69946   9.500   1.238   5.292
23235WAT     H169947   9.504   1.147   5.335
23235WAT     H269948   9.543   1.305   5.353
23236WAT      O69949   4.452   4.611   2.264
23236WAT     H169950   4.437   4.620   2.362
23236WAT     H269951   4.473   4.701   2.225
23237WAT      O69952   7.710   8.441   3.052
23237WAT     H169953   7.675   8.520   3.001
23237WAT     H269954   7.732   8.367   2.989
23238WAT      O69955   1.973   5.288   2.409
23238WAT     H169956   1.896   5.236   2.372
23238WAT     H269957   1.940   5.357   2.473
23239WAT      O69958   6.316   9.241   9.571
23239WAT     H169959   6.398   9.272   9.620
23239WAT     H269960   6.303   9.144   9.587
23240WAT      O69961   0.067   9.158   9.341
23240WAT     H169962  -0.016   9.213   9.348
23240WAT     H269963   0.103   9.141   9.433
23241WAT      O69964   4.407   6.216   5.804
23241WAT     H169965   4.441   6.301   5.843
23241WAT     H269966   4.429   6.213   5.706
23242WAT      O69967   0.530   4.264   4.572
23242WAT     H169968   0.616   4.231   4.533
23242WAT     H269969   0.492   4.195   4.632
23243WAT      O69970   2.708   6.767   5.417
23243WAT     H169971   2.666   6.676   5.420
23243WAT     H269972   2.637   6.836   5.430
23244WAT      O69973   1.118   8.674   9.136
23244WAT     H169974   1.145   8.600   9.198
23244WAT     H269975   1.040   8.645   9.081
23245WAT      O69976   8.141   8.901   8.448
23245WAT     H169977   8.146   9.000   8.442
23245WAT     H269978   8.188   8.860   8.370
23246WAT      O69979   2.868   7.438   1.420
23246WAT     H169980   2.862   7.354   1.365
23246WAT     H269981   2.959   7.446   1.459
23247WAT      O69982   2.515   9.004   8.461
23247WAT     H169983   2.497   8.921   8.514
23247WAT     H269984   2.429   9.054   8.447
23248WAT      O69985   2.690   5.843   6.846
23248WAT     H169986   2.605   5.889   6.819
23248WAT     H269987   2.754   5.911   6.882
23249WAT      O69988   4.272   4.949   2.096
23249WAT     H169989   4.207   4.958   2.171
23249WAT     H269990   4.364   4.940   2.133
23250WAT      O69991   1.326   6.880   8.872
23250WAT     H169992   1.310   6.975   8.900
23250WAT     H269993   1.424   6.864   8.862
23251WAT      O69994   5.331   3.486   1.560
23251WAT     H169995   5.252   3.439   1.522
23251WAT     H269996   5.413   3.459   1.510
23252WAT      O69997   4.770   6.269   5.419
23252WAT     H169998   4.855   6.312   5.387
23252WAT     H269999   4.768   6.174   5.389
23253WAT      O70000   8.325   2.606   3.525
23253WAT     H170001   8.414   2.560   3.515
23253WAT     H270002   8.255   2.537   3.546
23254WAT      O70003   6.529   1.335   5.524
23254WAT     H170004   6.568   1.291   5.605
23254WAT     H270005   6.433   1.355   5.540
23255WAT      O70006   3.976   5.541   5.440
23255WAT     H170007   3.989   5.486   5.357
23255WAT     H270008   3.995   5.485   5.520
23256WAT      O70009   7.338   0.840   0.049
23256WAT     H170010   7.346   0.864   0.146
23256WAT     H270011   7.340   0.741   0.040
23257WAT      O70012   4.402   0.146   3.396
23257WAT     H170013   4.389   0.173   3.492
23257WAT     H270014   4.316   0.160   3.347
23258WAT      O70015   2.108   8.911   0.640
23258WAT     H170016   2.189   8.969   0.638
23258WAT     H270017   2.114   8.842   0.568
23259WAT      O70018   2.090   0.709   2.174
23259WAT     H170019   2.045   0.795   2.198
23259WAT     H270020   2.152   0.682   2.248
23260WAT      O70021   1.295   2.185   7.024
23260WAT     H170022   1.244   2.100   7.006
23260WAT     H270023   1.304   2.236   6.939
23261WAT      O70024   1.459   2.425   5.054
23261WAT     H170025   1.480   2.334   5.018
23261WAT     H270026   1.379   2.420   5.114
23262WAT      O70027   8.133   9.016   9.075
23262WAT     H170028   8.128   8.916   9.065
23262WAT     H270029   8.188   9.039   9.155
23263WAT      O70030   6.194   2.863   1.439
23263WAT     H170031   6.165   2.941   1.382
23263WAT     H270032   6.232   2.897   1.525
23264WAT      O70033   4.254   4.354   9.825
23264WAT     H170034   4.295   4.384   9.739
23264WAT     H270035   4.179   4.416   9.850
23265WAT      O70036   3.153   6.198   3.162
23265WAT     H170037   3.116   6.131   3.227
23265WAT     H270038   3.081   6.262   3.135
23266WAT      O70039   5.358   0.203   8.486
23266WAT     H170040   5.436   0.148   8.516
23266WAT     H270041   5.273   0.159   8.516
23267WAT      O70042   1.580   2.065   1.159
23267WAT     H170043   1.598   2.033   1.252
23267WAT     H270044   1.649   2.029   1.097
23268WAT      O70045   8.096   0.683   5.296
23268WAT     H170046   8.151   0.725   5.223
23268WAT     H270047   7.999   0.702   5.279
23269WAT      O70048   5.181   0.122   7.059
23269WAT     H170049   5.191   0.193   7.129
23269WAT     H270050   5.120   0.154   6.987
23270WAT      O70051   5.964   6.688   2.815
23270WAT     H170052   6.029   6.675   2.890
23270WAT     H270053   5.974   6.614   2.749
23271WAT      O70054   8.326   9.510   5.651
23271WAT     H170055   8.383   9.538   5.728
23271WAT     H270056   8.257   9.446   5.683
23272WAT      O70057   4.975   5.153   3.152
23272WAT     H170058   4.888   5.169   3.105
23272WAT     H270059   4.981   5.057   3.179
23273WAT      O70060   2.492   8.613   5.140
23273WAT     H170061   2.448   8.524   5.127
23273WAT     H270062   2.590   8.604   5.123
23274WAT      O70063   1.392   4.276   5.542
23274WAT     H170064   1.374   4.301   5.446
23274WAT     H270065   1.307   4.282   5.594
23275WAT      O70066   6.668   0.084   2.475
23275WAT     H170067   6.646  -0.013   2.475
23275WAT     H270068   6.586   0.137   2.454
23276WAT      O70069   6.991   7.976   1.410
23276WAT     H170070   7.053   7.959   1.333
23276WAT     H270071   7.041   8.024   1.482
23277WAT      O70072   5.982   8.391   4.920
23277WAT     H170073   5.899   8.394   4.976
23277WAT     H270074   6.061   8.381   4.980
23278WAT      O70075   3.940   7.843   5.898
23278WAT     H170076   3.960   7.832   5.801
23278WAT     H270077   3.843   7.823   5.915
23279WAT      O70078   7.700   8.926   0.020
23279WAT     H170079   7.747   9.011   0.046
23279WAT     H270080   7.605   8.947  -0.004
23280WAT      O70081   3.443   4.827   0.429
23280WAT     H170082   3.514   4.891   0.458
23280WAT     H270083   3.356   4.875   0.418
23281WAT      O70084   4.670   3.414   3.871
23281WAT     H170085   4.640   3.328   3.828
23281WAT     H270086   4.639   3.491   3.816
23282WAT      O70087   8.933   2.983   2.430
23282WAT     H170088   8.887   3.059   2.475
23282WAT     H270089   8.869   2.935   2.370
23283WAT      O70090   8.391   2.076   0.694
23283WAT     H170091   8.449   2.032   0.763
23283WAT     H270092   8.436   2.071   0.605
23284WAT      O70093   4.054   9.115   6.402
23284WAT     H170094   3.987   9.088   6.471
23284WAT     H270095   4.143   9.128   6.445
23285WAT      O70096   9.235   0.430   4.167
23285WAT     H170097   9.265   0.417   4.262
23285WAT     H270098   9.225   0.528   4.148
23286WAT      O70099   6.443   2.877   8.468
23286WAT     H170100   6.397   2.790   8.449
23286WAT     H270101   6.537   2.874   8.434
23287WAT      O70102   6.543   3.110   6.496
23287WAT     H170103   6.513   3.119   6.401
23287WAT     H270104   6.476   3.056   6.547
23288WAT      O70105   6.426   7.406   4.958
23288WAT     H170106   6.395   7.347   5.033
23288WAT     H270107   6.434   7.352   4.874
23289WAT      O70108   8.684   7.103   5.111
23289WAT     H170109   8.627   7.185   5.111
23289WAT     H270110   8.678   7.057   5.023
23290WAT      O70111   0.579   6.677   6.211
23290WAT     H170112   0.626   6.650   6.295
23290WAT     H270113   0.640   6.664   6.133
23291WAT      O70114   5.589   3.700   5.106
23291WAT     H170115   5.553   3.747   5.025
23291WAT     H270116   5.685   3.724   5.118
23292WAT      O70117   2.668   1.610   0.582
23292WAT     H170118   2.627   1.631   0.671
23292WAT     H270119   2.756   1.565   0.597
23293WAT      O70120   6.778   6.102   4.681
23293WAT     H170121   6.703   6.101   4.747
23293WAT     H270122   6.830   6.187   4.692
23294WAT      O70123   6.603   7.850   7.979
23294WAT     H170124   6.508   7.841   7.951
23294WAT     H270125   6.632   7.945   7.968
23295WAT      O70126   1.860   8.239   2.380
23295WAT     H170127   1.855   8.143   2.352
23295WAT     H270128   1.954   8.262   2.404
23296WAT      O70129   7.869   8.095   5.366
23296WAT     H170130   7.813   8.020   5.332
23296WAT     H270131   7.814   8.178   5.372
23297WAT      O70132   5.664   0.321   3.642
23297WAT     H170133   5.624   0.333   3.551
23297WAT     H270134   5.602   0.358   3.711
23298WAT      O70135   5.715   0.451   0.587
23298WAT     H170136   5.635   0.450   0.527
23298WAT     H270137   5.700   0.392   0.665
23299WAT      O70138   5.285   8.783   7.584
23299WAT     H170139   5.227   8.785   7.502
23299WAT     H270140   5.377   8.816   7.560
23300WAT      O70141   6.571   7.740   6.535
23300WAT     H170142   6.669   7.737   6.553
23300WAT     H270143   6.556   7.754   6.437
23301WAT      O70144   5.101   8.966   0.400
23301WAT     H170145   5.145   9.053   0.376
23301WAT     H270146   5.171   8.900   0.427
23302WAT      O70147   4.811   3.828   9.052
23302WAT     H170148   4.724   3.874   9.072
23302WAT     H270149   4.861   3.880   8.983
23303WAT      O70150   7.104   7.433   7.999
23303WAT     H170151   7.114   7.337   8.025
23303WAT     H270152   7.055   7.439   7.912
23304WAT      O70153   4.105   7.418   4.660
23304WAT     H170154   4.174   7.366   4.711
23304WAT     H270155   4.015   7.404   4.703
23305WAT      O70156   9.678   1.295   5.086
23305WAT     H170157   9.645   1.389   5.077
23305WAT     H270158   9.611   1.241   5.138
23306WAT      O70159   5.702   7.839   1.222
23306WAT     H170160   5.710   7.938   1.212
23306WAT     H270161   5.605   7.813   1.216
23307WAT      O70162   0.347   6.765   8.124
23307WAT     H170163   0.284   6.840   8.104
23307WAT     H270164   0.411   6.795   8.195
23308WAT      O70165   3.178   6.752   7.860
23308WAT     H170166   3.129   6.770   7.945
23308WAT     H270167   3.128   6.796   7.784
23309WAT      O70168   7.417   3.878   0.629
23309WAT     H170169   7.413   3.967   0.584
23309WAT     H270170   7.451   3.889   0.722
23310WAT      O70171   4.166   6.134   5.927
23310WAT     H170172   4.246   6.147   5.868
23310WAT     H270173   4.083   6.152   5.874
23311WAT      O70174   0.567   3.858   5.224
23311WAT     H170175   0.486   3.867   5.283
23311WAT     H270176   0.642   3.912   5.263
23312WAT      O70177   7.481   0.468   2.534
23312WAT     H170178   7.473   0.407   2.455
23312WAT     H270179   7.400   0.525   2.541
23313WAT      O70180   4.627   7.751   8.482
23313WAT     H170181   4.710   7.793   8.519
23313WAT     H270182   4.643   7.721   8.388
23314WAT      O70183   2.369   7.215   6.815
23314WAT     H170184   2.403   7.148   6.749
23314WAT     H270185   2.425   7.214   6.897
23315WAT      O70186   7.211   6.984   7.754
23315WAT     H170187   7.165   7.004   7.668
23315WAT     H270188   7.143   6.956   7.822
23316WAT      O70189   3.316   7.355   1.072
23316WAT     H170190   3.217   7.349   1.087
23316WAT     H270191   3.340   7.304   0.989
23317WAT      O70192   0.478   7.791   4.098
23317WAT     H170193   0.417   7.736   4.040
23317WAT     H270194   0.439   7.882   4.111
23318WAT      O70195   8.105   0.733   1.640
23318WAT     H170196   8.108   0.768   1.546
23318WAT     H270197   8.113   0.633   1.638
23319WAT      O70198   1.808   2.877   8.881
23319WAT     H170199   1.858   2.902   8.798
23319WAT     H270200   1.821   2.780   8.901
23320WAT      O70201   7.599   3.420   3.195
23320WAT     H170202   7.523   3.389   3.253
23320WAT     H270203   7.658   3.342   3.174
23321WAT      O70204   5.528   4.073   1.621
23321WAT     H170205   5.455   4.103   1.559
23321WAT     H270206   5.576   4.153   1.657
23322WAT      O70207   4.337   9.801   0.274
23322WAT     H170208   4.269   9.781   0.344
23322WAT     H270209   4.413   9.852   0.315
23323WAT      O70210   8.981   2.737   1.534
23323WAT     H170211   8.900   2.743   1.593
23323WAT     H270212   8.953   2.740   1.438
23324WAT      O70213   1.269   8.365   4.080
23324WAT     H170214   1.314   8.426   4.014
23324WAT     H270215   1.324   8.360   4.163
23325WAT      O70216   7.740   5.716   1.592
23325WAT     H170217   7.642   5.715   1.609
23325WAT     H270218   7.784   5.644   1.645
23326WAT      O70219   1.280   6.487   9.016
23326WAT     H170220   1.340   6.484   9.096
23326WAT     H270221   1.202   6.425   9.031
23327WAT      O70222   5.233   3.470   9.748
23327WAT     H170223   5.243   3.563   9.714
23327WAT     H270224   5.138   3.441   9.736
23328WAT      O70225   2.269   1.348   1.009
23328WAT     H170226   2.217   1.413   1.064
23328WAT     H270227   2.259   1.371   0.912
23329WAT      O70228   4.283   4.080   6.136
23329WAT     H170229   4.327   3.999   6.098
23329WAT     H270230   4.353   4.140   6.176
23330WAT      O70231   8.251   1.737   3.041
23330WAT     H170232   8.250   1.811   3.108
23330WAT     H270233   8.162   1.692   3.040
23331WAT      O70234   2.604   1.608   9.321
23331WAT     H170235   2.543   1.534   9.351
23331WAT     H270236   2.554   1.694   9.317
23332WAT      O70237   9.742   8.355   9.063
23332WAT     H170238   9.741   8.442   9.112
23332WAT     H270239   9.650   8.335   9.028
23333WAT      O70240   2.459   5.258   6.274
23333WAT     H170241   2.459   5.208   6.188
23333WAT     H270242   2.365   5.281   6.300
23334WAT      O70243   8.338   9.788   1.234
23334WAT     H170244   8.313   9.864   1.294
23334WAT     H270245   8.400   9.727   1.281
23335WAT      O70246   6.689   2.855   3.731
23335WAT     H170247   6.679   2.772   3.676
23335WAT     H270248   6.741   2.923   3.679
23336WAT      O70249   7.485   6.410   4.518
23336WAT     H170250   7.477   6.501   4.557
23336WAT     H270251   7.405   6.391   4.460
23337WAT      O70252   3.516   5.605   8.086
23337WAT     H170253   3.514   5.564   7.994
23337WAT     H270254   3.530   5.533   8.153
23338WAT      O70255   6.203   1.462   4.647
23338WAT     H170256   6.126   1.468   4.583
23338WAT     H270257   6.288   1.455   4.596
23339WAT      O70258   9.114   4.726   2.054
23339WAT     H170259   9.045   4.748   1.984
23339WAT     H270260   9.183   4.666   2.015
23340WAT      O70261   6.455   9.427   7.299
23340WAT     H170262   6.472   9.407   7.203
23340WAT     H270263   6.458   9.341   7.352
23341WAT      O70264   2.101   7.630   4.525
23341WAT     H170265   2.024   7.679   4.565
23341WAT     H270266   2.171   7.616   4.595
23342WAT      O70267   8.051   7.973   0.724
23342WAT     H170268   7.971   7.998   0.669
23342WAT     H270269   8.127   8.034   0.702
23343WAT      O70270   2.710   2.427   8.366
23343WAT     H170271   2.759   2.447   8.281
23343WAT     H270272   2.774   2.395   8.435
23344WAT      O70273   7.277   6.487   1.733
23344WAT     H170274   7.213   6.510   1.806
23344WAT     H270275   7.370   6.512   1.761
23345WAT      O70276   1.447   1.610   1.466
23345WAT     H170277   1.408   1.701   1.484
23345WAT     H270278   1.459   1.598   1.368
23346WAT      O70279   8.815   7.172   9.857
23346WAT     H170280   8.848   7.266   9.864
23346WAT     H270281   8.766   7.147   9.940
23347WAT      O70282   2.390   6.874   2.013
23347WAT     H170283   2.446   6.879   2.095
23347WAT     H270284   2.313   6.811   2.029
23348WAT      O70285   8.383   7.740   6.316
23348WAT     H170286   8.318   7.754   6.391
23348WAT     H270287   8.443   7.663   6.339
23349WAT      O70288   4.584   8.887   8.125
23349WAT     H170289   4.554   8.866   8.032
23349WAT     H270290   4.519   8.847   8.190
23350WAT      O70291   1.969   7.723   2.205
23350WAT     H170292   1.945   7.743   2.110
23350WAT     H270293   2.037   7.649   2.208
23351WAT      O70294   5.980   1.142   8.020
23351WAT     H170295   6.028   1.062   7.982
23351WAT     H270296   5.904   1.111   8.077
23352WAT      O70297   7.755   1.405   0.977
23352WAT     H170298   7.702   1.321   0.990
23352WAT     H270299   7.831   1.386   0.914
23353WAT      O70300   2.039   5.533   0.802
23353WAT     H170301   1.954   5.570   0.839
23353WAT     H270302   2.086   5.603   0.750
23354WAT      O70303   7.274   6.384   4.371
23354WAT     H170304   7.210   6.461   4.364
23354WAT     H270305   7.314   6.365   4.281
23355WAT      O70306   6.810   5.075   8.684
23355WAT     H170307   6.745   5.003   8.708
23355WAT     H270308   6.777   5.163   8.718
23356WAT      O70309   4.325   6.697   6.345
23356WAT     H170310   4.246   6.722   6.401
23356WAT     H270311   4.318   6.743   6.256
23357WAT      O70312   6.023   2.793   6.974
23357WAT     H170313   5.963   2.713   6.977
23357WAT     H270314   6.030   2.832   7.066
23358WAT      O70315   2.070   9.627   5.509
23358WAT     H170316   1.973   9.607   5.526
23358WAT     H270317   2.127   9.563   5.560
23359WAT      O70318   6.812   9.292   1.957
23359WAT     H170319   6.884   9.332   2.014
23359WAT     H270320   6.846   9.283   1.863
23360WAT      O70321   4.489   5.856   3.293
23360WAT     H170322   4.410   5.916   3.307
23360WAT     H270323   4.469   5.765   3.330
23361WAT      O70324   9.315   1.021   7.347
23361WAT     H170325   9.235   1.079   7.362
23361WAT     H270326   9.310   0.980   7.256
23362WAT      O70327   4.685   9.580   7.973
23362WAT     H170328   4.707   9.565   7.877
23362WAT     H270329   4.766   9.613   8.021
23363WAT      O70330   2.154   4.293   6.256
23363WAT     H170331   2.172   4.373   6.313
23363WAT     H270332   2.239   4.265   6.210
23364WAT      O70333   8.661   0.406   4.556
23364WAT     H170334   8.727   0.470   4.595
23364WAT     H270335   8.703   0.357   4.480
23365WAT      O70336   2.440   4.312   3.805
23365WAT     H170337   2.418   4.352   3.893
23365WAT     H270338   2.511   4.367   3.760
23366WAT      O70339   1.073   1.832   6.056
23366WAT     H170340   1.044   1.918   6.098
23366WAT     H270341   1.171   1.835   6.038
23367WAT      O70342   8.345   6.698   9.729
23367WAT     H170343   8.251   6.702   9.762
23367WAT     H270344   8.385   6.610   9.752
23368WAT      O70345   4.324   6.636   5.515
23368WAT     H170346   4.323   6.557   5.576
23368WAT     H270347   4.342   6.607   5.421
23369WAT      O70348   1.055   2.575   4.970
23369WAT     H170349   1.089   2.634   4.897
23369WAT     H270350   0.977   2.521   4.935
23370WAT      O70351   3.935   6.175   7.279
23370WAT     H170352   3.893   6.148   7.192
23370WAT     H270353   3.917   6.272   7.296
23371WAT      O70354   9.676   4.757   9.880
23371WAT     H170355   9.745   4.733   9.812
23371WAT     H270356   9.721   4.780   9.966
23372WAT      O70357   0.622   8.378   4.652
23372WAT     H170358   0.580   8.335   4.733
23372WAT     H270359   0.675   8.309   4.602
23373WAT      O70360   4.238   4.006   4.615
23373WAT     H170361   4.328   4.035   4.647
23373WAT     H270362   4.229   4.026   4.518
23374WAT      O70363   7.754   1.292   9.178
23374WAT     H170364   7.841   1.243   9.170
23374WAT     H270365   7.767   1.387   9.151
23375WAT      O70366   4.270   0.710   1.192
23375WAT     H170367   4.300   0.698   1.287
23375WAT     H270368   4.350   0.716   1.132
23376WAT      O70369   7.972   2.169   0.925
23376WAT     H170370   7.920   2.255   0.932
23376WAT     H270371   8.035   2.174   0.848
23377WAT      O70372   3.838   2.356   2.585
23377WAT     H170373   3.829   2.361   2.685
23377WAT     H270374   3.928   2.390   2.558
23378WAT      O70375   8.760   1.692   3.255
23378WAT     H170376   8.709   1.633   3.193
23378WAT     H270377   8.788   1.640   3.335
23379WAT      O70378   3.706   8.590   2.874
23379WAT     H170379   3.732   8.687   2.870
23379WAT     H270380   3.656   8.566   2.791
23380WAT      O70381   7.768   2.476   2.982
23380WAT     H170382   7.854   2.507   3.025
23380WAT     H270383   7.789   2.434   2.894
23381WAT      O70384   9.298   5.068   3.622
23381WAT     H170385   9.394   5.040   3.625
23381WAT     H270386   9.264   5.057   3.529
23382WAT      O70387   1.779   2.440   6.705
23382WAT     H170388   1.861   2.454   6.761
23382WAT     H270389   1.800   2.462   6.610
23383WAT      O70390   1.275   7.089   2.674
23383WAT     H170391   1.367   7.129   2.676
23383WAT     H270392   1.207   7.162   2.674
23384WAT      O70393   4.260   5.141   3.959
23384WAT     H170394   4.322   5.137   3.881
23384WAT     H270395   4.283   5.219   4.017
23385WAT      O70396   0.222   5.761   4.631
23385WAT     H170397   0.277   5.759   4.714
23385WAT     H270398   0.126   5.748   4.653
23386WAT      O70399   5.376   8.345   7.534
23386WAT     H170400   5.291   8.398   7.530
23386WAT     H270401   5.389   8.297   7.448
23387WAT      O70402   3.722   7.695   7.407
23387WAT     H170403   3.640   7.714   7.352
23387WAT     H270404   3.696   7.640   7.487
23388WAT      O70405   0.132   3.188   6.598
23388WAT     H170406   0.141   3.134   6.682
23388WAT     H270407   0.170   3.136   6.521
23389WAT      O70408   4.864   6.943   3.549
23389WAT     H170409   4.959   6.914   3.554
23389WAT     H270410   4.805   6.862   3.550
23390WAT      O70411   5.530   6.802   5.021
23390WAT     H170412   5.595   6.872   4.991
23390WAT     H270413   5.578   6.728   5.067
23391WAT      O70414   0.934   7.847   3.608
23391WAT     H170415   1.001   7.920   3.618
23391WAT     H270416   0.924   7.824   3.511
23392WAT      O70417   3.948   4.245   7.963
23392WAT     H170418   3.898   4.332   7.960
23392WAT     H270419   4.004   4.241   8.046
23393WAT      O70420   9.225   1.966   9.293
23393WAT     H170421   9.251   1.902   9.220
23393WAT     H270422   9.179   2.045   9.252
23394WAT      O70423   1.225   9.708   8.578
23394WAT     H170424   1.166   9.751   8.646
23394WAT     H270425   1.169   9.674   8.502
23395WAT      O70426   7.001   9.545   9.311
23395WAT     H170427   6.979   9.495   9.395
23395WAT     H270428   6.918   9.561   9.258
23396WAT      O70429   7.504   6.440   2.719
23396WAT     H170430   7.450   6.391   2.787
23396WAT     H270431   7.501   6.391   2.632
23397WAT      O70432   3.568   0.686   4.805
23397WAT     H170433   3.506   0.728   4.871
23397WAT     H270434   3.655   0.735   4.805
23398WAT      O70435   8.595   0.656   6.267
23398WAT     H170436   8.536   0.705   6.202
23398WAT     H270437   8.668   0.610   6.217
23399WAT      O70438   1.356   9.325   4.025
23399WAT     H170439   1.290   9.373   4.082
23399WAT     H270440   1.427   9.388   3.995
23400WAT      O70441   3.249   9.136   7.193
23400WAT     H170442   3.237   9.063   7.125
23400WAT     H270443   3.280   9.096   7.279
23401WAT      O70444   2.181   0.043   5.861
23401WAT     H170445   2.118   0.084   5.927
23401WAT     H270446   2.150  -0.049   5.838
23402WAT      O70447   7.293   6.717   8.243
23402WAT     H170448   7.346   6.745   8.163
23402WAT     H270449   7.307   6.619   8.260
23403WAT      O70450   7.133   4.694   7.093
23403WAT     H170451   7.188   4.728   7.170
23403WAT     H270452   7.144   4.755   7.015
23404WAT      O70453   3.945   3.627   5.835
23404WAT     H170454   4.016   3.576   5.787
23404WAT     H270455   3.915   3.576   5.915
23405WAT      O70456   3.357   5.086   6.773
23405WAT     H170457   3.294   5.163   6.765
23405WAT     H270458   3.311   5.002   6.746
23406WAT      O70459   2.689   8.493   1.981
23406WAT     H170460   2.765   8.558   1.991
23406WAT     H270461   2.608   8.542   1.947
23407WAT      O70462   1.348   9.080   6.413
23407WAT     H170463   1.256   9.070   6.451
23407WAT     H270464   1.354   9.165   6.361
23408WAT      O70465   0.816   5.323   0.164
23408WAT     H170466   0.881   5.398   0.150
23408WAT     H270467   0.837   5.248   0.101
23409WAT      O70468   0.354   5.179   9.251
23409WAT     H170469   0.266   5.143   9.220
23409WAT     H270470   0.383   5.255   9.193
23410WAT      O70471   9.269   6.053   6.166
23410WAT     H170472   9.334   5.981   6.141
23410WAT     H270473   9.318   6.132   6.201
23411WAT      O70474   6.524   6.979   8.837
23411WAT     H170475   6.522   7.066   8.886
23411WAT     H270476   6.440   6.969   8.784
23412WAT      O70477   5.130   3.010   2.715
23412WAT     H170478   5.187   3.092   2.720
23412WAT     H270479   5.034   3.036   2.719
23413WAT      O70480   8.293   8.315   6.856
23413WAT     H170481   8.356   8.346   6.785
23413WAT     H270482   8.209   8.368   6.852
23414WAT      O70483   9.413   2.176   2.321
23414WAT     H170484   9.366   2.115   2.258
23414WAT     H270485   9.357   2.257   2.337
23415WAT      O70486   2.561   3.684   4.316
23415WAT     H170487   2.504   3.670   4.235
23415WAT     H270488   2.586   3.595   4.355
23416WAT      O70489   3.588   2.759   5.630
23416WAT     H170490   3.562   2.685   5.692
23416WAT     H270491   3.649   2.723   5.559
23417WAT      O70492   8.100   5.616   1.944
23417WAT     H170493   8.127   5.617   1.847
23417WAT     H270494   8.036   5.540   1.959
23418WAT      O70495   7.545   0.914   9.610
23418WAT     H170496   7.478   0.954   9.547
23418WAT     H270497   7.504   0.834   9.654
23419WAT      O70498   8.575   3.621   6.042
23419WAT     H170499   8.650   3.592   5.983
23419WAT     H270500   8.606   3.696   6.101
23420WAT      O70501   0.263   9.611   8.004
23420WAT     H170502   0.189   9.544   8.015
23420WAT     H270503   0.348   9.574   8.041
23421WAT      O70504   0.040   2.483   5.649
23421WAT     H170505   0.020   2.580   5.633
23421WAT     H270506   0.112   2.454   5.586
23422WAT      O70507   7.861   3.638   4.583
23422WAT     H170508   7.886   3.715   4.523
23422WAT     H270509   7.878   3.663   4.678
23423WAT      O70510   5.424   0.365   5.027
23423WAT     H170511   5.421   0.328   4.934
23423WAT     H270512   5.506   0.421   5.038
23424WAT      O70513   5.518   9.574   7.051
23424WAT     H170514   5.523   9.482   7.014
23424WAT     H270515   5.530   9.571   7.150
23425WAT      O70516   3.378   4.981   9.445
23425WAT     H170517   3.341   4.965   9.353
23425WAT     H270518   3.302   4.998   9.509
23426WAT      O70519   7.106   3.585   8.753
23426WAT     H170520   7.079   3.563   8.659
23426WAT     H270521   7.029   3.627   8.801
23427WAT      O70522   7.055   2.704   5.391
23427WAT     H170523   7.072   2.799   5.364
23427WAT     H270524   7.142   2.657   5.404
23428WAT      O70525   4.292   1.736   1.395
23428WAT     H170526   4.371   1.798   1.401
23428WAT     H270527   4.212   1.781   1.434
23429WAT      O70528   7.308   8.620   7.265
23429WAT     H170529   7.304   8.720   7.257
23429WAT     H270530   7.354   8.582   7.185
23430WAT      O70531   5.853   9.204   3.032
23430WAT     H170532   5.865   9.113   2.991
23430WAT     H270533   5.925   9.264   2.999
23431WAT      O70534   6.175   7.683   5.199
23431WAT     H170535   6.124   7.602   5.227
23431WAT     H270536   6.135   7.764   5.243
23432WAT      O70537   8.730   6.767   1.714
23432WAT     H170538   8.743   6.726   1.804
23432WAT     H270539   8.683   6.702   1.654
23433WAT      O70540   3.790   7.921   6.381
23433WAT     H170541   3.742   7.961   6.459
23433WAT     H270542   3.881   7.963   6.372
23434WAT      O70543   1.824   4.775   7.433
23434WAT     H170544   1.833   4.741   7.526
23434WAT     H270545   1.910   4.760   7.383
23435WAT      O70546   2.281   1.536   6.827
23435WAT     H170547   2.276   1.441   6.797
23435WAT     H270548   2.331   1.590   6.759
23436WAT      O70549   6.220   2.322   5.786
23436WAT     H170550   6.123   2.299   5.776
23436WAT     H270551   6.229   2.416   5.819
23437WAT      O70552   2.349   9.096   9.352
23437WAT     H170553   2.346   9.069   9.448
23437WAT     H270554   2.418   9.168   9.339
23438WAT      O70555   2.622   6.959   3.869
23438WAT     H170556   2.657   6.892   3.803
23438WAT     H270557   2.666   6.945   3.957
23439WAT      O70558   1.932   0.455   8.681
23439WAT     H170559   1.884   0.536   8.714
23439WAT     H270560   2.011   0.483   8.625
23440WAT      O70561   2.497   8.317   1.715
23440WAT     H170562   2.470   8.402   1.670
23440WAT     H270563   2.483   8.240   1.653
23441WAT      O70564   6.932   2.456   8.991
23441WAT     H170565   6.921   2.371   8.938
23441WAT     H270566   7.011   2.506   8.957
23442WAT      O70567   9.604   3.656   9.557
23442WAT     H170568   9.534   3.619   9.618
23442WAT     H270569   9.670   3.710   9.610
23443WAT      O70570   3.174   7.619   3.085
23443WAT     H170571   3.085   7.637   3.127
23443WAT     H270572   3.170   7.641   2.988
23444WAT      O70573   6.995   9.825   3.657
23444WAT     H170574   7.066   9.770   3.614
23444WAT     H270575   6.946   9.770   3.724
23445WAT      O70576   8.350   1.067   3.316
23445WAT     H170577   8.446   1.078   3.290
23445WAT     H270578   8.295   1.056   3.233
23446WAT      O70579   5.263   0.444   9.883
23446WAT     H170580   5.211   0.492   9.954
23446WAT     H270581   5.201   0.414   9.811
23447WAT      O70582   2.000   0.172   4.835
23447WAT     H170583   1.940   0.243   4.797
23447WAT     H270584   2.059   0.137   4.763
23448WAT      O70585   4.269   3.249   1.208
23448WAT     H170586   4.364   3.278   1.219
23448WAT     H270587   4.215   3.281   1.285
23449WAT      O70588   5.841   5.214   9.608
23449WAT     H170589   5.884   5.146   9.549
23449WAT     H270590   5.753   5.178   9.641
23450WAT      O70591   1.972   5.235   0.760
23450WAT     H170592   1.892   5.276   0.717
23450WAT     H270593   2.042   5.306   0.775
23451WAT      O70594   4.654   9.168   3.729
23451WAT     H170595   4.646   9.069   3.732
23451WAT     H270596   4.664   9.204   3.822
23452WAT      O70597   3.348   5.930   1.598
23452WAT     H170598   3.271   5.948   1.538
23452WAT     H270599   3.429   5.908   1.544
23453WAT      O70600   3.483   6.170   8.325
23453WAT     H170601   3.488   6.186   8.226
23453WAT     H270602   3.532   6.243   8.373
23454WAT      O70603   8.258   7.418   2.529
23454WAT     H170604   8.169   7.412   2.485
23454WAT     H270605   8.251   7.477   2.610
23455WAT      O70606   4.213   1.015   8.983
23455WAT     H170607   4.245   1.059   8.899
23455WAT     H270608   4.122   0.977   8.968
23456WAT      O70609   5.554   3.317   9.001
23456WAT     H170610   5.535   3.376   8.923
23456WAT     H270611   5.615   3.243   8.972
23457WAT      O70612   4.151   9.610   8.896
23457WAT     H170613   4.165   9.527   8.842
23457WAT     H270614   4.068   9.599   8.952
23458WAT      O70615   9.675   2.372   2.251
23458WAT     H170616   9.612   2.399   2.324
23458WAT     H270617   9.628   2.314   2.185
23459WAT      O70618   2.911   4.392   3.245
23459WAT     H170619   2.831   4.411   3.303
23459WAT     H270620   2.979   4.342   3.298
23460WAT      O70621   3.941   2.916   5.399
23460WAT     H170622   3.867   2.928   5.466
23460WAT     H270623   3.904   2.927   5.306
23461WAT      O70624   1.709   2.734   6.092
23461WAT     H170625   1.656   2.735   6.178
23461WAT     H270626   1.791   2.790   6.103
23462WAT      O70627   9.469   0.596   3.946
23462WAT     H170628   9.520   0.520   3.988
23462WAT     H270629   9.418   0.645   4.016
23463WAT      O70630   8.584   4.146   2.649
23463WAT     H170631   8.633   4.059   2.646
23463WAT     H270632   8.610   4.195   2.733
23464WAT      O70633   1.632   4.925   1.836
23464WAT     H170634   1.548   4.978   1.843
23464WAT     H270635   1.623   4.858   1.763
23465WAT      O70636   8.926   4.317   9.611
23465WAT     H170637   8.902   4.403   9.567
23465WAT     H270638   8.887   4.315   9.703
23466WAT      O70639   8.580   6.826   2.214
23466WAT     H170640   8.609   6.896   2.149
23466WAT     H270641   8.556   6.868   2.301
23467WAT      O70642   6.904   1.356   3.175
23467WAT     H170643   6.825   1.410   3.203
23467WAT     H270644   6.874   1.279   3.118
23468WAT      O70645   2.392   5.687   0.662
23468WAT     H170646   2.424   5.780   0.680
23468WAT     H270647   2.431   5.625   0.730
23469WAT      O70648   0.634   0.430   0.524
23469WAT     H170649   0.583   0.364   0.470
23469WAT     H270650   0.664   0.505   0.465
23470WAT      O70651   7.802   6.316   3.003
23470WAT     H170652   7.886   6.270   2.974
23470WAT     H270653   7.723   6.265   2.970
23471WAT      O70654   2.208   7.971   5.441
23471WAT     H170655   2.306   7.989   5.439
23471WAT     H270656   2.159   8.052   5.474
23472WAT      O70657   7.150   7.258   9.570
23472WAT     H170658   7.183   7.275   9.477
23472WAT     H270659   7.071   7.197   9.568
23473WAT      O70660   2.547   6.087   8.579
23473WAT     H170661   2.617   6.126   8.519
23473WAT     H270662   2.591   6.047   8.659
23474WAT      O70663   2.861   9.615   9.378
23474WAT     H170664   2.868   9.519   9.404
23474WAT     H270665   2.844   9.671   9.459
23475WAT      O70666   2.839   3.852   1.759
23475WAT     H170667   2.813   3.816   1.849
23475WAT     H270668   2.861   3.949   1.767
23476WAT      O70669   3.720   6.509   2.108
23476WAT     H170670   3.711   6.581   2.039
23476WAT     H270671   3.732   6.420   2.062
23477WAT      O70672   9.278   7.058   9.348
23477WAT     H170673   9.368   7.090   9.317
23477WAT     H270674   9.208   7.125   9.322
23478WAT      O70675   2.249   6.800   8.976
23478WAT     H170676   2.208   6.889   8.957
23478WAT     H270677   2.347   6.803   8.955
23479WAT      O70678   5.910   5.387   7.317
23479WAT     H170679   5.892   5.411   7.222
23479WAT     H270680   5.854   5.309   7.344
23480WAT      O70681   8.036   1.025   6.214
23480WAT     H170682   7.976   1.091   6.169
23480WAT     H270683   8.004   0.932   6.196
23481WAT      O70684   3.257   6.965   5.199
23481WAT     H170685   3.324   6.891   5.210
23481WAT     H270686   3.234   6.974   5.102
23482WAT      O70687   7.444   8.200   1.985
23482WAT     H170688   7.439   8.279   1.924
23482WAT     H270689   7.372   8.207   2.054
23483WAT      O70690   2.599   4.102   0.548
23483WAT     H170691   2.504   4.083   0.573
23483WAT     H270692   2.630   4.185   0.593
23484WAT      O70693   3.441   2.364   3.508
23484WAT     H170694   3.500   2.367   3.588
23484WAT     H270695   3.481   2.420   3.435
23485WAT      O70696   8.840   3.739   1.103
23485WAT     H170697   8.898   3.660   1.085
23485WAT     H270698   8.894   3.811   1.146
23486WAT      O70699   7.067   5.834   1.220
23486WAT     H170700   7.032   5.764   1.282
23486WAT     H270701   7.049   5.807   1.126
23487WAT      O70702   3.363   7.095   6.794
23487WAT     H170703   3.415   7.116   6.877
23487WAT     H270704   3.306   7.014   6.810
23488WAT      O70705   8.977   2.579   3.255
23488WAT     H170706   8.932   2.511   3.312
23488WAT     H270707   8.925   2.592   3.171
23489WAT      O70708   5.585   4.038   2.410
23489WAT     H170709   5.664   4.061   2.467
23489WAT     H270710   5.516   4.110   2.418
23490WAT      O70711   2.789   5.448   9.153
23490WAT     H170712   2.826   5.481   9.066
23490WAT     H270713   2.834   5.363   9.178
23491WAT      O70714   5.707   7.272   0.573
23491WAT     H170715   5.625   7.309   0.528
23491WAT     H270716   5.756   7.212   0.510
23492WAT      O70717   3.968   0.751   1.721
23492WAT     H170718   4.041   0.706   1.773
23492WAT     H270719   4.000   0.766   1.627
23493WAT      O70720   4.023   0.582   1.106
23493WAT     H170721   3.970   0.509   1.148
23493WAT     H270722   4.097   0.609   1.166
23494WAT      O70723   7.746   7.880   5.202
23494WAT     H170724   7.737   7.918   5.110
23494WAT     H270725   7.840   7.848   5.216
23495WAT      O70726   6.346   3.936   5.038
23495WAT     H170727   6.412   3.889   4.980
23495WAT     H270728   6.317   4.020   4.994
23496WAT      O70729   5.084   3.168   6.727
23496WAT     H170730   5.030   3.186   6.809
23496WAT     H270731   5.163   3.229   6.725
23497WAT      O70732   0.375   8.598   2.650
23497WAT     H170733   0.310   8.586   2.725
23497WAT     H270734   0.412   8.691   2.653
23498WAT      O70735   0.104   7.434   7.242
23498WAT     H170736   0.034   7.499   7.213
23498WAT     H270737   0.190   7.455   7.197
23499WAT      O70738   2.513   2.334   5.136
23499WAT     H170739   2.477   2.366   5.048
23499WAT     H270740   2.613   2.323   5.129
23500WAT      O70741   2.265   2.084   9.556
23500WAT     H170742   2.200   2.034   9.498
23500WAT     H270743   2.356   2.082   9.514
23501WAT      O70744   2.867   5.722   7.112
23501WAT     H170745   2.883   5.659   7.188
23501WAT     H270746   2.853   5.670   7.028
23502WAT      O70747   6.008   6.769   0.645
23502WAT     H170748   5.991   6.829   0.723
23502WAT     H270749   5.953   6.799   0.567
23503WAT      O70750   9.171   5.243   4.148
23503WAT     H170751   9.137   5.190   4.071
23503WAT     H270752   9.097   5.257   4.214
23504WAT      O70753   6.018   8.589   2.013
23504WAT     H170754   6.041   8.655   2.085
23504WAT     H270755   6.012   8.497   2.052
23505WAT      O70756   7.238   3.661   2.861
23505WAT     H170757   7.267   3.753   2.835
23505WAT     H270758   7.282   3.594   2.801
23506WAT      O70759   0.334   1.148   7.165
23506WAT     H170760   0.342   1.211   7.242
23506WAT     H270761   0.238   1.125   7.150
23507WAT      O70762   6.365   9.708   0.476
23507WAT     H170763   6.432   9.688   0.405
23507WAT     H270764   6.308   9.628   0.493
23508WAT      O70765   3.200   9.329   4.940
23508WAT     H170766   3.121   9.268   4.935
23508WAT     H270767   3.204   9.370   5.031
23509WAT      O70768   0.867   2.735   5.086
23509WAT     H170769   0.966   2.729   5.103
23509WAT     H270770   0.849   2.733   4.988
23510WAT      O70771   7.441   6.364   0.801
23510WAT     H170772   7.488   6.386   0.887
23510WAT     H270773   7.506   6.321   0.738
23511WAT      O70774   0.980   0.982   8.568
23511WAT     H170775   1.071   1.021   8.549
23511WAT     H270776   0.981   0.885   8.548
23512WAT      O70777   9.016   5.281   7.718
23512WAT     H170778   9.055   5.190   7.705
23512WAT     H270779   9.050   5.320   7.803
23513WAT      O70780   9.138   8.688   0.180
23513WAT     H170781   9.200   8.719   0.108
23513WAT     H270782   9.081   8.614   0.146
23514WAT      O70783   8.339   5.248   0.746
23514WAT     H170784   8.292   5.316   0.801
23514WAT     H270785   8.425   5.223   0.790
23515WAT      O70786   5.940   5.797   2.492
23515WAT     H170787   5.865   5.863   2.485
23515WAT     H270788   5.937   5.753   2.582
23516WAT      O70789   8.507   5.442   3.623
23516WAT     H170790   8.442   5.425   3.549
23516WAT     H270791   8.592   5.477   3.586
23517WAT      O70792   3.163   1.368   7.076
23517WAT     H170793   3.223   1.429   7.127
23517WAT     H270794   3.174   1.384   6.978
23518WAT      O70795   5.228   2.245   6.845
23518WAT     H170796   5.204   2.258   6.749
23518WAT     H270797   5.298   2.174   6.853
23519WAT      O70798   9.335   6.197   3.070
23519WAT     H170799   9.310   6.165   3.162
23519WAT     H270800   9.422   6.155   3.043
23520WAT      O70801   7.504   7.963   2.111
23520WAT     H170802   7.483   8.052   2.071
23520WAT     H270803   7.494   7.891   2.042
23521WAT      O70804   8.289   6.223   0.390
23521WAT     H170805   8.319   6.129   0.377
23521WAT     H270806   8.235   6.230   0.474
23522WAT      O70807   2.359   8.860   5.149
23522WAT     H170808   2.263   8.839   5.131
23522WAT     H270809   2.409   8.776   5.168
23523WAT      O70810   9.289   5.441   2.479
23523WAT     H170811   9.250   5.352   2.505
23523WAT     H270812   9.293   5.500   2.560
23524WAT      O70813   9.239   5.615   0.323
23524WAT     H170814   9.208   5.710   0.312
23524WAT     H270815   9.222   5.565   0.238
23525WAT      O70816   7.301   5.154   8.823
23525WAT     H170817   7.228   5.107   8.872
23525WAT     H270818   7.295   5.132   8.726
23526WAT      O70819   2.662   4.521   9.574
23526WAT     H170820   2.605   4.538   9.654
23526WAT     H270821   2.655   4.599   9.511
23527WAT      O70822   8.497   0.281   8.039
23527WAT     H170823   8.402   0.312   8.040
23527WAT     H270824   8.546   0.323   8.115
23528WAT      O70825   2.457   7.896   2.985
23528WAT     H170826   2.421   7.975   3.036
23528WAT     H270827   2.552   7.880   3.012
23529WAT      O70828   6.986   1.724   7.581
23529WAT     H170829   6.892   1.694   7.598
23529WAT     H270830   7.023   1.676   7.502
23530WAT      O70831   9.835   7.171   6.640
23530WAT     H170832   9.816   7.256   6.591
23530WAT     H270833   9.782   7.168   6.725
23531WAT      O70834   8.663   0.529   3.662
23531WAT     H170835   8.752   0.529   3.708
23531WAT     H270836   8.592   0.555   3.726
23532WAT      O70837   7.833   8.586   1.029
23532WAT     H170838   7.894   8.511   1.054
23532WAT     H270839   7.743   8.571   1.071
23533WAT      O70840   5.748   6.016   4.726
23533WAT     H170841   5.733   6.113   4.705
23533WAT     H270842   5.683   5.961   4.673
23534WAT      O70843   4.981   2.660   3.457
23534WAT     H170844   4.995   2.636   3.361
23534WAT     H270845   5.069   2.682   3.499
23535WAT      O70846   8.023   1.777   4.586
23535WAT     H170847   8.010   1.775   4.487
23535WAT     H270848   8.114   1.815   4.606
23536WAT      O70849   4.669   8.012   1.479
23536WAT     H170850   4.653   8.049   1.571
23536WAT     H270851   4.713   7.923   1.485
23537WAT      O70852   9.360   2.533   6.621
23537WAT     H170853   9.395   2.440   6.607
23537WAT     H270854   9.363   2.554   6.719
23538WAT      O70855   2.609   5.482   6.311
23538WAT     H170856   2.542   5.414   6.282
23538WAT     H270857   2.602   5.563   6.253
23539WAT      O70858   5.714   1.066   8.560
23539WAT     H170859   5.780   1.126   8.606
23539WAT     H270860   5.734   0.971   8.584
23540WAT      O70861   4.924   0.283   8.475
23540WAT     H170862   4.903   0.342   8.553
23540WAT     H270863   4.849   0.286   8.410
23541WAT      O70864   1.626   3.046   8.975
23541WAT     H170865   1.642   3.043   9.074
23541WAT     H270866   1.699   2.995   8.928
23542WAT      O70867   3.332   4.058   7.869
23542WAT     H170868   3.241   4.017   7.878
23542WAT     H270869   3.328   4.133   7.803
23543WAT      O70870   8.530   1.770   4.334
23543WAT     H170871   8.498   1.865   4.336
23543WAT     H270872   8.511   1.730   4.244
23544WAT      O70873   7.771   2.153   4.087
23544WAT     H170874   7.749   2.093   4.010
23544WAT     H270875   7.869   2.171   4.087
23545WAT      O70876   5.228   5.876   5.879
23545WAT     H170877   5.194   5.788   5.912
23545WAT     H270878   5.208   5.948   5.946
23546WAT      O70879   1.016   5.559   3.264
23546WAT     H170880   1.113   5.536   3.254
23546WAT     H270881   1.001   5.654   3.237
23547WAT      O70882   2.074   8.294   8.075
23547WAT     H170883   2.169   8.264   8.062
23547WAT     H270884   2.053   8.296   8.172
23548WAT      O70885   0.365   4.667   7.049
23548WAT     H170886   0.272   4.634   7.035
23548WAT     H270887   0.364   4.767   7.050
23549WAT      O70888   6.523   3.539   2.190
23549WAT     H170889   6.616   3.504   2.202
23549WAT     H270890   6.457   3.465   2.206
23550WAT      O70891   0.432   5.800   7.329
23550WAT     H170892   0.432   5.720   7.390
23550WAT     H270893   0.508   5.860   7.352
23551WAT      O70894   6.684   7.516   6.107
23551WAT     H170895   6.685   7.545   6.203
23551WAT     H270896   6.596   7.540   6.066
23552WAT      O70897   3.799   3.763   1.661
23552WAT     H170898   3.700   3.759   1.649
23552WAT     H270899   3.844   3.723   1.581
23553WAT      O70900   7.913   0.110   0.468
23553WAT     H170901   7.954   0.134   0.556
23553WAT     H270902   7.969   0.147   0.394
23554WAT      O70903   9.842   9.313   7.560
23554WAT     H170904   9.812   9.407   7.545
23554WAT     H270905   9.889   9.280   7.477
23555WAT      O70906   5.878   5.779   3.997
23555WAT     H170907   5.957   5.746   4.050
23555WAT     H270908   5.810   5.707   3.992
23556WAT      O70909   0.148   3.513   7.571
23556WAT     H170910   0.048   3.517   7.576
23556WAT     H270911   0.180   3.577   7.502
23557WAT      O70912   2.037   0.037   7.782
23557WAT     H170913   1.992   0.041   7.693
23557WAT     H270914   2.135   0.056   7.771
23558WAT      O70915   2.234   0.302   1.743
23558WAT     H170916   2.228   0.207   1.775
23558WAT     H270917   2.176   0.360   1.799
23559WAT      O70918   3.743   7.519   9.676
23559WAT     H170919   3.725   7.617   9.688
23559WAT     H270920   3.820   7.492   9.734
23560WAT      O70921   0.183   7.857   0.595
23560WAT     H170922   0.192   7.925   0.523
23560WAT     H270923   0.086   7.838   0.611
23561WAT      O70924   8.930   1.509   7.904
23561WAT     H170925   8.949   1.424   7.953
23561WAT     H270926   8.838   1.506   7.865
23562WAT      O70927   6.983   9.813   1.288
23562WAT     H170928   7.077   9.778   1.289
23562WAT     H270929   6.963   9.851   1.198
23563WAT      O70930   7.045   7.011   0.312
23563WAT     H170931   6.977   7.075   0.348
23563WAT     H270932   7.092   6.967   0.388
23564WAT      O70933   9.302   2.941   4.434
23564WAT     H170934   9.223   2.946   4.496
23564WAT     H270935   9.271   2.913   4.344
23565WAT      O70936   6.289   7.969   6.433
23565WAT     H170937   6.330   8.057   6.407
23565WAT     H270938   6.256   7.974   6.527
23566WAT      O70939   5.890   8.257   1.324
23566WAT     H170940   5.837   8.200   1.261
23566WAT     H270941   5.828   8.299   1.391
23567WAT      O70942   7.744   8.386   6.273
23567WAT     H170943   7.828   8.351   6.230
23567WAT     H270944   7.685   8.423   6.202
23568WAT      O70945   3.230   9.224   1.365
23568WAT     H170946   3.151   9.261   1.414
23568WAT     H270947   3.314   9.259   1.407
23569WAT      O70948   1.387   8.156   1.439
23569WAT     H170949   1.423   8.102   1.363
23569WAT     H270950   1.397   8.253   1.418
23570WAT      O70951   8.706   3.361   3.948
23570WAT     H170952   8.627   3.301   3.957
23570WAT     H270953   8.755   3.366   4.035
23571WAT      O70954   2.263   5.248   4.589
23571WAT     H170955   2.244   5.194   4.507
23571WAT     H270956   2.180   5.297   4.615
23572WAT      O70957   9.304   8.792   4.992
23572WAT     H170958   9.320   8.772   5.089
23572WAT     H270959   9.341   8.718   4.936
23573WAT      O70960   1.041   1.479   0.124
23573WAT     H170961   0.944   1.452   0.120
23573WAT     H270962   1.068   1.519   0.037
23574WAT      O70963   1.493   1.375   1.598
23574WAT     H170964   1.476   1.463   1.553
23574WAT     H270965   1.431   1.306   1.562
23575WAT      O70966   2.008   6.977   1.313
23575WAT     H170967   1.982   7.058   1.366
23575WAT     H270968   2.066   7.004   1.236
23576WAT      O70969   1.689   7.691   1.762
23576WAT     H170970   1.741   7.640   1.693
23576WAT     H270971   1.612   7.737   1.719
23577WAT      O70972   6.933   3.529   5.088
23577WAT     H170973   6.939   3.605   5.153
23577WAT     H270974   7.009   3.466   5.105
23578WAT      O70975   0.852   1.646   9.708
23578WAT     H170976   0.809   1.558   9.689
23578WAT     H270977   0.950   1.632   9.725
23579WAT      O70978   6.824   4.006   3.158
23579WAT     H170979   6.856   3.964   3.074
23579WAT     H270980   6.735   3.968   3.183
23580WAT      O70981   5.747   3.795   2.731
23580WAT     H170982   5.804   3.876   2.723
23580WAT     H270983   5.701   3.777   2.644
23581WAT      O70984   0.941   7.225   9.874
23581WAT     H170985   0.997   7.143   9.879
23581WAT     H270986   0.851   7.207   9.913
23582WAT      O70987   0.774   7.711   6.814
23582WAT     H170988   0.840   7.656   6.763
23582WAT     H270989   0.820   7.789   6.855
23583WAT      O70990   4.579   6.105   0.815
23583WAT     H170991   4.524   6.185   0.788
23583WAT     H270992   4.675   6.123   0.795
23584WAT      O70993   2.191   6.429   0.285
23584WAT     H170994   2.220   6.385   0.369
23584WAT     H270995   2.104   6.476   0.301
23585WAT      O70996   2.347   9.162   8.161
23585WAT     H170997   2.393   9.242   8.201
23585WAT     H270998   2.260   9.148   8.207
23586WAT      O70999   8.607   6.206   8.918
23586WAT     H171000   8.524   6.261   8.916
23586WAT     H271001   8.647   6.203   8.826
23587WAT      O71002   0.899   5.478   1.126
23587WAT     H171003   0.927   5.414   1.054
23587WAT     H271004   0.805   5.508   1.110
23588WAT      O71005   6.918   6.775   4.183
23588WAT     H171006   6.864   6.694   4.207
23588WAT     H271007   6.881   6.854   4.231
23589WAT      O71008   2.205   6.642   6.145
23589WAT     H171009   2.155   6.722   6.113
23589WAT     H271010   2.167   6.560   6.103
23590WAT      O71011   2.084   9.222   0.357
23590WAT     H171012   2.125   9.312   0.342
23590WAT     H271013   1.988   9.233   0.385
23591WAT      O71014   0.358   5.775   4.872
23591WAT     H171015   0.320   5.690   4.911
23591WAT     H271016   0.458   5.774   4.883
23592WAT      O71017   2.297   1.247   2.129
23592WAT     H171018   2.220   1.186   2.147
23592WAT     H271019   2.349   1.213   2.050
23593WAT      O71020   8.574   6.294   3.192
23593WAT     H171021   8.659   6.246   3.213
23593WAT     H271022   8.505   6.228   3.162
23594WAT      O71023   8.646   8.665   4.306
23594WAT     H171024   8.565   8.716   4.333
23594WAT     H271025   8.618   8.578   4.265
23595WAT      O71026   8.731   4.325   7.935
23595WAT     H171027   8.783   4.278   8.006
23595WAT     H271028   8.784   4.325   7.850
23596WAT      O71029   0.479   7.579   4.285
23596WAT     H171030   0.477   7.648   4.213
23596WAT     H271031   0.570   7.539   4.291
23597WAT      O71032   9.392   0.233   7.099
23597WAT     H171033   9.478   0.191   7.130
23597WAT     H271034   9.317   0.198   7.155
23598WAT      O71035   9.378   3.396   9.418
23598WAT     H171036   9.477   3.406   9.415
23598WAT     H271037   9.338   3.478   9.458
23599WAT      O71038   7.255   4.101   8.140
23599WAT     H171039   7.269   4.003   8.126
23599WAT     H271040   7.184   4.134   8.079
23600WAT      O71041   2.349   5.255   9.302
23600WAT     H171042   2.275   5.252   9.369
23600WAT     H271043   2.391   5.165   9.294
23601WAT      O71044   3.653   5.341   0.602
23601WAT     H171045   3.704   5.276   0.659
23601WAT     H271046   3.717   5.396   0.549
23602WAT      O71047   7.445   7.911   5.615
23602WAT     H171048   7.366   7.964   5.585
23602WAT     H271049   7.498   7.881   5.536
23603WAT      O71050   6.787   8.816   6.728
23603WAT     H171051   6.748   8.894   6.680
23603WAT     H271052   6.715   8.749   6.746
23604WAT      O71053   3.049   4.053   7.856
23604WAT     H171054   3.047   4.130   7.792
23604WAT     H271055   3.034   4.086   7.949
23605WAT      O71056   5.600   8.503   9.410
23605WAT     H171057   5.581   8.512   9.507
23605WAT     H271058   5.690   8.542   9.390
23606WAT      O71059   1.076   7.143   9.459
23606WAT     H171060   1.093   7.136   9.361
23606WAT     H271061   1.145   7.202   9.501
23607WAT      O71062   3.035   8.528   6.857
23607WAT     H171063   3.017   8.513   6.759
23607WAT     H271064   3.025   8.442   6.907
23608WAT      O71065   4.187   5.054   1.585
23608WAT     H171066   4.261   5.116   1.559
23608WAT     H271067   4.212   5.004   1.668
23609WAT      O71068   5.464   9.588   4.959
23609WAT     H171069   5.398   9.662   4.946
23609WAT     H271070   5.492   9.552   4.870
23610WAT      O71071   9.540   0.102   3.589
23610WAT     H171072   9.490   0.088   3.504
23610WAT     H271073   9.636   0.077   3.577
23611WAT      O71074   1.552   2.381   0.377
23611WAT     H171075   1.624   2.450   0.372
23611WAT     H271076   1.591   2.290   0.364
23612WAT      O71077   3.518   5.337   4.598
23612WAT     H171078   3.492   5.369   4.507
23612WAT     H271079   3.451   5.368   4.665
23613WAT      O71080   0.375   3.004   2.031
23613WAT     H171081   0.299   2.985   2.093
23613WAT     H271082   0.353   3.083   1.975
23614WAT      O71083   7.624   7.264   5.853
23614WAT     H171084   7.703   7.261   5.792
23614WAT     H271085   7.610   7.174   5.893
23615WAT      O71086   5.272   7.710   7.353
23615WAT     H171087   5.210   7.788   7.341
23615WAT     H271088   5.262   7.647   7.276
23616WAT      O71089   8.884   5.437   7.539
23616WAT     H171090   8.928   5.526   7.529
23616WAT     H271091   8.948   5.372   7.579
23617WAT      O71092   0.884   7.226   9.623
23617WAT     H171093   0.960   7.197   9.564
23617WAT     H271094   0.914   7.223   9.719
23618WAT      O71095   0.899   6.149   1.067
23618WAT     H171096   0.892   6.081   1.140
23618WAT     H271097   0.808   6.167   1.029
23619WAT      O71098   1.959   5.252   1.052
23619WAT     H171099   1.934   5.220   0.961
23619WAT     H271100   2.001   5.343   1.045
23620WAT      O71101   8.103   6.389   2.688
23620WAT     H171102   8.016   6.424   2.655
23620WAT     H271103   8.091   6.294   2.717
23621WAT      O71104   1.573   4.881   5.953
23621WAT     H171105   1.631   4.823   6.009
23621WAT     H271106   1.479   4.875   5.986
23622WAT      O71107   7.466   5.098   4.155
23622WAT     H171108   7.502   5.186   4.185
23622WAT     H271109   7.528   5.024   4.184
23623WAT      O71110   3.722   8.752   5.647
23623WAT     H171111   3.792   8.808   5.692
23623WAT     H271112   3.665   8.810   5.589
23624WAT      O71113   2.098   6.576   1.528
23624WAT     H171114   2.043   6.502   1.567
23624WAT     H271115   2.058   6.606   1.441
23625WAT      O71116   2.000   0.063   9.356
23625WAT     H171117   1.950   0.123   9.294
23625WAT     H271118   2.066   0.009   9.305
23626WAT      O71119   5.692   8.118   1.152
23626WAT     H171120   5.670   8.109   1.055
23626WAT     H271121   5.612   8.152   1.201
23627WAT      O71122   0.493   6.547   2.326
23627WAT     H171123   0.549   6.522   2.247
23627WAT     H271124   0.410   6.593   2.294
23628WAT      O71125   4.676   0.885   3.680
23628WAT     H171126   4.634   0.832   3.754
23628WAT     H271127   4.729   0.960   3.718
23629WAT      O71128   9.274   7.132   5.530
23629WAT     H171129   9.212   7.165   5.460
23629WAT     H271130   9.364   7.175   5.519
23630WAT      O71131   7.913   4.428   7.898
23630WAT     H171132   7.951   4.383   7.818
23630WAT     H271133   7.826   4.471   7.875
23631WAT      O71134   5.174   4.798   2.568
23631WAT     H171135   5.192   4.844   2.481
23631WAT     H271136   5.136   4.864   2.633
23632WAT      O71137   8.867   9.477   8.111
23632WAT     H171138   8.797   9.478   8.040
23632WAT     H271139   8.826   9.502   8.199
23633WAT      O71140   0.468   1.243   3.706
23633WAT     H171141   0.455   1.265   3.609
23633WAT     H271142   0.566   1.241   3.727
23634WAT      O71143   9.551   9.210   0.895
23634WAT     H171144   9.594   9.235   0.982
23634WAT     H271145   9.512   9.119   0.902
23635WAT      O71146   3.574   5.935   8.411
23635WAT     H171147   3.553   6.028   8.379
23635WAT     H271148   3.668   5.912   8.386
23636WAT      O71149   9.335   7.315   8.484
23636WAT     H171150   9.307   7.331   8.389
23636WAT     H271151   9.426   7.354   8.499
23637WAT      O71152   5.509   7.501   7.594
23637WAT     H171153   5.553   7.580   7.552
23637WAT     H271154   5.497   7.429   7.526
23638WAT      O71155   4.708   3.615   9.175
23638WAT     H171156   4.762   3.680   9.121
23638WAT     H271157   4.620   3.656   9.198
23639WAT      O71158   4.850   3.083   3.862
23639WAT     H171159   4.825   2.992   3.894
23639WAT     H271160   4.903   3.075   3.778
23640WAT      O71161   7.416   1.740   0.012
23640WAT     H171162   7.480   1.729  -0.064
23640WAT     H271163   7.466   1.731   0.099
23641WAT      O71164   7.572   4.562   6.869
23641WAT     H171165   7.649   4.553   6.931
23641WAT     H271166   7.505   4.491   6.888
23642WAT      O71167   9.360   6.772   7.176
23642WAT     H171168   9.332   6.684   7.214
23642WAT     H271169   9.459   6.782   7.184
23643WAT      O71170   1.025   9.118   5.937
23643WAT     H171171   0.983   9.037   5.978
23643WAT     H271172   1.121   9.122   5.963
23644WAT      O71173   2.072   0.968   4.640
23644WAT     H171174   2.169   0.990   4.627
23644WAT     H271175   2.055   0.953   4.737
23645WAT      O71176   2.818   8.324   2.488
23645WAT     H171177   2.759   8.291   2.413
23645WAT     H271178   2.798   8.272   2.571
23646WAT      O71179   2.023   7.307   6.588
23646WAT     H171180   2.091   7.234   6.589
23646WAT     H271181   1.984   7.316   6.496
23647WAT      O71182   2.562   6.832   6.362
23647WAT     H171183   2.577   6.886   6.279
23647WAT     H271184   2.477   6.781   6.352
23648WAT      O71185   2.907   1.628   1.966
23648WAT     H171186   2.982   1.582   2.013
23648WAT     H271187   2.936   1.721   1.940
23649WAT      O71188   5.347   4.693   2.737
23649WAT     H171189   5.303   4.630   2.802
23649WAT     H271190   5.278   4.730   2.675
23650WAT      O71191   5.046   7.769   9.178
23650WAT     H171192   5.026   7.671   9.185
23650WAT     H271193   5.139   7.781   9.144
23651WAT      O71194   0.943   3.670   1.286
23651WAT     H171195   0.981   3.717   1.366
23651WAT     H271196   0.847   3.696   1.275
23652WAT      O71197   9.011   7.154   5.827
23652WAT     H171198   8.980   7.060   5.808
23652WAT     H271199   9.095   7.151   5.881
23653WAT      O71200   1.492   9.106   4.137
23653WAT     H171201   1.437   9.187   4.117
23653WAT     H271202   1.560   9.128   4.207
23654WAT      O71203   3.393   8.847   5.899
23654WAT     H171204   3.465   8.907   5.933
23654WAT     H271205   3.304   8.882   5.930
23655WAT      O71206   1.970   0.881   4.876
23655WAT     H171207   1.890   0.890   4.816
23655WAT     H271208   1.965   0.948   4.950
23656WAT      O71209   6.116   0.531   6.481
23656WAT     H171210   6.084   0.436   6.470
23656WAT     H271211   6.116   0.576   6.391
23657WAT      O71212   7.541   3.789   2.075
23657WAT     H171213   7.619   3.822   2.022
23657WAT     H271214   7.458   3.838   2.047
23658WAT      O71215   6.249   7.230   7.183
23658WAT     H171216   6.297   7.286   7.116
23658WAT     H271217   6.234   7.138   7.146
23659WAT      O71218   3.830   9.470   4.384
23659WAT     H171219   3.908   9.407   4.377
23659WAT     H271220   3.746   9.422   4.361
23660WAT      O71221   1.966   3.722   3.230
23660WAT     H171222   2.020   3.727   3.314
23660WAT     H271223   1.916   3.635   3.229
23661WAT      O71224   9.367   9.824   6.139
23661WAT     H171225   9.437   9.755   6.118
23661WAT     H271226   9.389   9.867   6.227
23662WAT      O71227   9.784   4.977   0.859
23662WAT     H171228   9.691   4.947   0.842
23662WAT     H271229   9.784   5.075   0.882
23663WAT      O71230   3.394   8.038   7.350
23663WAT     H171231   3.297   8.041   7.330
23663WAT     H271232   3.442   8.105   7.292
23664WAT      O71233   7.631   1.089   3.735
23664WAT     H171234   7.728   1.094   3.710
23664WAT     H271235   7.594   1.001   3.705
23665WAT      O71236   7.402   3.146   5.475
23665WAT     H171237   7.469   3.087   5.430
23665WAT     H271238   7.315   3.142   5.427
23666WAT      O71239   8.420   3.932   8.141
23666WAT     H171240   8.460   4.022   8.123
23666WAT     H271241   8.488   3.861   8.124
23667WAT      O71242   0.953   1.366   3.351
23667WAT     H171243   0.971   1.453   3.305
23667WAT     H271244   0.983   1.291   3.292
23668WAT      O71245   6.803   4.755   0.910
23668WAT     H171246   6.891   4.708   0.902
23668WAT     H271247   6.816   4.844   0.954
23669WAT      O71248   7.660   7.021   2.729
23669WAT     H171249   7.586   6.968   2.771
23669WAT     H271250   7.621   7.098   2.679
23670WAT      O71251   9.109   6.882   1.394
23670WAT     H171252   9.049   6.847   1.466
23670WAT     H271253   9.058   6.893   1.310
23671WAT      O71254   1.139   2.058   1.015
23671WAT     H171255   1.119   1.998   0.938
23671WAT     H271256   1.194   2.010   1.083
23672WAT      O71257   3.815   4.339   8.375
23672WAT     H171258   3.871   4.389   8.308
23672WAT     H271259   3.772   4.404   8.438
23673WAT      O71260   4.406   7.952   2.037
23673WAT     H171261   4.335   7.965   2.107
23673WAT     H271262   4.375   7.992   1.951
23674WAT      O71263   5.428   0.023   9.675
23674WAT     H171264   5.388   0.000   9.764
23674WAT     H271265   5.501   0.090   9.688
23675WAT      O71266   8.549   0.904   8.354
23675WAT     H171267   8.528   0.880   8.260
23675WAT     H271268   8.538   0.824   8.413
23676WAT      O71269   9.368   7.752   8.937
23676WAT     H171270   9.277   7.730   8.972
23676WAT     H271271   9.360   7.792   8.846
23677WAT      O71272   6.921   0.706   4.690
23677WAT     H171273   6.848   0.710   4.759
23677WAT     H271274   6.957   0.798   4.675
23678WAT      O71275   8.821   2.013   2.816
23678WAT     H171276   8.764   1.977   2.890
23678WAT     H271277   8.875   2.090   2.849
23679WAT      O71278   9.474   1.659   7.951
23679WAT     H171279   9.550   1.715   7.985
23679WAT     H271280   9.469   1.574   8.004
23680WAT      O71281   5.120   8.292   6.356
23680WAT     H171282   5.096   8.288   6.259
23680WAT     H271283   5.050   8.244   6.409
23681WAT      O71284   3.388   4.262   7.048
23681WAT     H171285   3.464   4.218   7.098
23681WAT     H271286   3.338   4.322   7.109
23682WAT      O71287   3.651   1.459   8.894
23682WAT     H171288   3.729   1.470   8.955
23682WAT     H271289   3.681   1.412   8.810
23683WAT      O71290   9.281   8.134   4.493
23683WAT     H171291   9.222   8.067   4.447
23683WAT     H271292   9.234   8.167   4.575
23684WAT      O71293   5.598   0.857   8.017
23684WAT     H171294   5.685   0.846   8.063
23684WAT     H271295   5.529   0.891   8.081
23685WAT      O71296   3.919   8.025   4.974
23685WAT     H171297   3.824   8.005   4.948
23685WAT     H271298   3.972   7.941   4.974
23686WAT      O71299   0.069   1.532   4.226
23686WAT     H171300   0.032   1.464   4.289
23686WAT     H271301   0.015   1.616   4.233
23687WAT      O71302   3.849   8.402   0.628
23687WAT     H171303   3.785   8.480   0.625
23687WAT     H271304   3.861   8.366   0.535
23688WAT      O71305   1.240   9.596   0.991
23688WAT     H171306   1.277   9.582   0.899
23688WAT     H271307   1.140   9.599   0.987
23689WAT      O71308   7.146   7.148   5.463
23689WAT     H171309   7.097   7.153   5.376
23689WAT     H271310   7.107   7.074   5.519
23690WAT      O71311   1.901   9.490   1.747
23690WAT     H171312   1.839   9.416   1.721
23690WAT     H271313   1.901   9.501   1.846
23691WAT      O71314   5.686   3.559   3.838
23691WAT     H171315   5.664   3.471   3.794
23691WAT     H271316   5.755   3.607   3.784
23692WAT      O71317   2.110   4.986   7.517
23692WAT     H171318   2.052   5.028   7.447
23692WAT     H271319   2.192   4.949   7.474
23693WAT      O71320   3.116   1.549   4.362
23693WAT     H171321   3.154   1.459   4.382
23693WAT     H271322   3.016   1.545   4.371
23694WAT      O71323   6.927   3.485   4.685
23694WAT     H171324   6.911   3.392   4.718
23694WAT     H271325   6.925   3.549   4.762
23695WAT      O71326   0.085   6.624   3.627
23695WAT     H171327   0.024   6.614   3.706
23695WAT     H271328   0.117   6.718   3.622
23696WAT      O71329   7.572   3.059   1.620
23696WAT     H171330   7.616   3.079   1.707
23696WAT     H271331   7.626   2.992   1.569
23697WAT      O71332   9.222   8.954   0.969
23697WAT     H171333   9.171   9.017   0.910
23697WAT     H271334   9.167   8.873   0.986
23698WAT      O71335   9.353   8.668   3.226
23698WAT     H171336   9.253   8.670   3.236
23698WAT     H271337   9.386   8.761   3.211
23699WAT      O71338   4.566   3.400   0.652
23699WAT     H171339   4.581   3.498   0.660
23699WAT     H271340   4.550   3.361   0.743
23700WAT      O71341   3.546   4.569   0.486
23700WAT     H171342   3.494   4.644   0.445
23700WAT     H271343   3.502   4.482   0.464
23701WAT      O71344   7.537   2.999   3.142
23701WAT     H171345   7.516   2.945   3.061
23701WAT     H271346   7.626   3.044   3.130
23702WAT      O71347   0.751   3.003   1.431
23702WAT     H171348   0.717   2.967   1.345
23702WAT     H271349   0.742   3.103   1.431
23703WAT      O71350   3.642   0.235   2.026
23703WAT     H171351   3.643   0.325   2.069
23703WAT     H271352   3.705   0.234   1.948
23704WAT      O71353   3.122   7.979   5.247
23704WAT     H171354   3.163   8.040   5.179
23704WAT     H271355   3.044   7.931   5.207
23705WAT      O71356   4.602   8.036   7.475
23705WAT     H171357   4.516   7.985   7.464
23705WAT     H271358   4.592   8.127   7.434
23706WAT      O71359   8.379   5.090   6.652
23706WAT     H171360   8.451   5.111   6.585
23706WAT     H271361   8.320   5.170   6.663
23707WAT      O71362   8.780   8.372   5.823
23707WAT     H171363   8.751   8.444   5.760
23707WAT     H271364   8.866   8.399   5.867
23708WAT      O71365   5.836   3.985   6.569
23708WAT     H171366   5.816   4.083   6.577
23708WAT     H271367   5.786   3.935   6.640
23709WAT      O71368   5.478   3.647   3.505
23709WAT     H171369   5.484   3.610   3.598
23709WAT     H271370   5.416   3.726   3.504
23710WAT      O71371   8.314   5.787   1.511
23710WAT     H171372   8.285   5.748   1.598
23710WAT     H271373   8.363   5.872   1.527
23711WAT      O71374   9.417   2.328   8.244
23711WAT     H171375   9.373   2.240   8.261
23711WAT     H271376   9.396   2.359   8.151
23712WAT      O71377   4.924   4.135   6.494
23712WAT     H171378   4.891   4.043   6.475
23712WAT     H271379   4.888   4.198   6.425
23713WAT      O71380   9.023   4.480   2.982
23713WAT     H171381   8.979   4.431   3.058
23713WAT     H271382   9.096   4.537   3.017
23714WAT      O71383   3.125   0.342   5.275
23714WAT     H171384   3.083   0.395   5.200
23714WAT     H271385   3.104   0.387   5.362
23715WAT      O71386   3.238   7.458   5.810
23715WAT     H171387   3.194   7.382   5.764
23715WAT     H271388   3.185   7.541   5.796
23716WAT      O71389   3.800   9.699   5.209
23716WAT     H171390   3.836   9.789   5.185
23716WAT     H271391   3.704   9.693   5.183
23717WAT      O71392   6.143   3.467   0.412
23717WAT     H171393   6.117   3.563   0.404
23717WAT     H271394   6.120   3.434   0.504
23718WAT      O71395   6.248   4.257   6.786
23718WAT     H171396   6.173   4.202   6.821
23718WAT     H271397   6.335   4.217   6.816
23719WAT      O71398   9.324   0.584   0.873
23719WAT     H171399   9.336   0.661   0.936
23719WAT     H271400   9.407   0.574   0.817
23720WAT      O71401   1.961   6.763   5.617
23720WAT     H171402   1.930   6.669   5.636
23720WAT     H271403   1.985   6.808   5.703
23721WAT      O71404   3.815   0.245   9.475
23721WAT     H171405   3.909   0.251   9.441
23721WAT     H271406   3.783   0.336   9.501
23722WAT      O71407   7.800   9.635   5.726
23722WAT     H171408   7.843   9.586   5.802
23722WAT     H271409   7.865   9.703   5.690
23723WAT      O71410   3.418   3.263   9.646
23723WAT     H171411   3.419   3.300   9.739
23723WAT     H271412   3.486   3.310   9.591
23724WAT      O71413   9.221   4.980   1.398
23724WAT     H171414   9.185   4.908   1.339
23724WAT     H271415   9.315   4.958   1.424
23725WAT      O71416   4.349   8.161   1.564
23725WAT     H171417   4.274   8.193   1.506
23725WAT     H271418   4.373   8.068   1.538
23726WAT      O71419   0.760   8.978   5.274
23726WAT     H171420   0.781   9.049   5.207
23726WAT     H271421   0.813   8.896   5.253
23727WAT      O71422   1.526   7.070   8.263
23727WAT     H171423   1.428   7.065   8.279
23727WAT     H271424   1.554   7.166   8.257
23728WAT      O71425   7.423   3.419   2.473
23728WAT     H171426   7.389   3.334   2.434
23728WAT     H271427   7.381   3.496   2.426
23729WAT      O71428   6.023   6.767   5.956
23729WAT     H171429   6.116   6.794   5.931
23729WAT     H271430   5.986   6.706   5.886
23730WAT      O71431   7.925   7.695   5.542
23730WAT     H171432   7.869   7.711   5.623
23730WAT     H271433   8.009   7.648   5.570
23731WAT      O71434   7.317   0.353   0.322
23731WAT     H171435   7.348   0.352   0.416
23731WAT     H271436   7.306   0.259   0.289
23732WAT      O71437   1.713   1.918   4.454
23732WAT     H171438   1.779   1.886   4.386
23732WAT     H271439   1.721   2.017   4.465
23733WAT      O71440   9.447   6.893   7.957
23733WAT     H171441   9.445   6.832   7.878
23733WAT     H271442   9.432   6.840   8.041
23734WAT      O71443   0.996   7.796   0.493
23734WAT     H171444   1.070   7.730   0.481
23734WAT     H271445   0.935   7.790   0.414
23735WAT      O71446   5.292   7.232   5.724
23735WAT     H171447   5.303   7.323   5.766
23735WAT     H271448   5.229   7.239   5.647
23736WAT      O71449   7.294   0.176   5.239
23736WAT     H171450   7.256   0.089   5.207
23736WAT     H271451   7.251   0.201   5.325
23737WAT      O71452   8.906   0.977   2.207
23737WAT     H171453   8.817   0.941   2.235
23737WAT     H271454   8.891   1.054   2.143
23738WAT      O71455   3.361   1.997   5.326
23738WAT     H171456   3.448   2.043   5.345
23738WAT     H271457   3.289   2.038   5.382
23739WAT      O71458   9.179   4.992   0.039
23739WAT     H171459   9.080   4.979   0.035
23739WAT     H271460   9.208   5.052  -0.035
23740WAT      O71461   3.898   5.862   6.563
23740WAT     H171462   3.820   5.824   6.512
23740WAT     H271463   3.899   5.962   6.553
23741WAT      O71464   7.440   9.063   3.608
23741WAT     H171465   7.432   9.073   3.509
23741WAT     H271466   7.515   9.000   3.630
23742WAT      O71467   2.916   7.166   8.906
23742WAT     H171468   2.912   7.107   8.826
23742WAT     H271469   2.833   7.222   8.911
23743WAT      O71470   6.779   0.127   3.269
23743WAT     H171471   6.707   0.196   3.274
23743WAT     H271472   6.756   0.050   3.329
23744WAT      O71473   6.950   7.612   8.488
23744WAT     H171474   7.000   7.654   8.564
23744WAT     H271475   7.015   7.568   8.427
23745WAT      O71476   7.940   9.742   4.377
23745WAT     H171477   7.907   9.653   4.346
23745WAT     H271478   8.024   9.730   4.430
23746WAT      O71479   0.309   5.765   5.499
23746WAT     H171480   0.298   5.744   5.402
23746WAT     H271481   0.406   5.768   5.522
23747WAT      O71482   1.300   9.824   6.495
23747WAT     H171483   1.335   9.916   6.516
23747WAT     H271484   1.342   9.791   6.411
23748WAT      O71485   8.858   8.653   7.717
23748WAT     H171486   8.914   8.727   7.753
23748WAT     H271487   8.833   8.674   7.622
23749WAT      O71488   6.129   1.101   8.376
23749WAT     H171489   6.183   1.080   8.294
23749WAT     H271490   6.188   1.099   8.456
23750WAT      O71491   6.645   8.428   6.611
23750WAT     H171492   6.567   8.370   6.587
23750WAT     H271493   6.685   8.394   6.696
23751WAT      O71494   1.433   5.723   3.885
23751WAT     H171495   1.361   5.679   3.938
23751WAT     H271496   1.522   5.694   3.919
23752WAT      O71497   0.306   1.475   0.526
23752WAT     H171498   0.247   1.466   0.606
23752WAT     H271499   0.364   1.394   0.518
23753WAT      O71500   4.546   1.845   2.228
23753WAT     H171501   4.541   1.819   2.131
23753WAT     H271502   4.505   1.772   2.283
23754WAT      O71503   1.393   7.406   2.837
23754WAT     H171504   1.390   7.432   2.933
23754WAT     H271505   1.303   7.423   2.795
23755WAT      O71506   2.118   4.332   6.603
23755WAT     H171507   2.120   4.351   6.505
23755WAT     H271508   2.211   4.339   6.640
23756WAT      O71509   2.483   6.767   0.077
23756WAT     H171510   2.574   6.808   0.074
23756WAT     H271511   2.476   6.708   0.157
23757WAT      O71512   1.947   0.952   3.959
23757WAT     H171513   1.938   0.866   4.009
23757WAT     H271514   1.990   1.021   4.018
23758WAT      O71515   8.226   1.776   7.771
23758WAT     H171516   8.178   1.855   7.810
23758WAT     H271517   8.323   1.798   7.762
23759WAT      O71518   1.827   0.501   7.308
23759WAT     H171519   1.900   0.436   7.329
23759WAT     H271520   1.817   0.566   7.383
23760WAT      O71521   9.848   3.507   2.911
23760WAT     H171522   9.846   3.417   2.867
23760WAT     H271523   9.755   3.544   2.914
23761WAT      O71524   6.147   9.497   1.014
23761WAT     H171525   6.204   9.416   1.007
23761WAT     H271526   6.074   9.482   1.080
23762WAT      O71527   5.762   2.524   3.749
23762WAT     H171528   5.696   2.561   3.814
23762WAT     H271529   5.778   2.427   3.770
23763WAT      O71530   7.416   8.812   0.074
23763WAT     H171531   7.408   8.780   0.169
23763WAT     H271532   7.503   8.860   0.062
23764WAT      O71533   3.929   2.212   0.214
23764WAT     H171534   3.835   2.180   0.210
23764WAT     H271535   3.954   2.254   0.127
23765WAT      O71536   7.854   5.363   9.871
23765WAT     H171537   7.822   5.321   9.787
23765WAT     H271538   7.830   5.460   9.872
23766WAT      O71539   7.851   7.672   0.006
23766WAT     H171540   7.863   7.673  -0.093
23766WAT     H271541   7.901   7.595   0.045
23767WAT      O71542   4.511   4.564   4.077
23767WAT     H171543   4.485   4.648   4.029
23767WAT     H271544   4.488   4.573   4.174
23768WAT      O71545   6.550   9.218   2.301
23768WAT     H171546   6.595   9.131   2.281
23768WAT     H271547   6.509   9.255   2.217
23769WAT      O71548   6.624   9.135   2.685
23769WAT     H171549   6.700   9.086   2.729
23769WAT     H271550   6.552   9.151   2.752
23770WAT      O71551   1.503   2.209   3.594
23770WAT     H171552   1.417   2.258   3.580
23770WAT     H271553   1.527   2.158   3.511
23771WAT      O71554   5.899   1.502   8.237
23771WAT     H171555   5.804   1.495   8.267
23771WAT     H271556   5.955   1.438   8.290
23772WAT      O71557   2.383   8.270   4.110
23772WAT     H171558   2.355   8.224   4.026
23772WAT     H271559   2.478   8.249   4.131
23773WAT      O71560   0.938   2.716   0.899
23773WAT     H171561   0.949   2.672   0.988
23773WAT     H271562   0.992   2.669   0.830
23774WAT      O71563   6.604   2.317   4.735
23774WAT     H171564   6.615   2.282   4.642
23774WAT     H271565   6.564   2.409   4.731
23775WAT      O71566   6.432   6.938   4.096
23775WAT     H171567   6.336   6.953   4.076
23775WAT     H271568   6.482   6.924   4.010
23776WAT      O71569   1.648   6.721   5.435
23776WAT     H171570   1.600   6.741   5.520
23776WAT     H271571   1.721   6.787   5.422
23777WAT      O71572   3.446   5.372   8.754
23777WAT     H171573   3.492   5.358   8.667
23777WAT     H271574   3.465   5.465   8.787
23778WAT      O71575   2.127   3.762   3.425
23778WAT     H171576   2.132   3.711   3.511
23778WAT     H271577   2.123   3.860   3.445
23779WAT      O71578   3.227   9.716   2.361
23779WAT     H171579   3.265   9.789   2.417
23779WAT     H271580   3.184   9.755   2.280
23780WAT      O71581   8.840   5.925   0.241
23780WAT     H171582   8.862   5.961   0.151
23780WAT     H271583   8.805   5.999   0.299
23781WAT      O71584   2.734   8.172   1.115
23781WAT     H171585   2.833   8.158   1.103
23781WAT     H271586   2.716   8.202   1.209
23782WAT      O71587   6.484   5.908   7.307
23782WAT     H171588   6.514   6.003   7.321
23782WAT     H271589   6.385   5.902   7.320
23783WAT      O71590   8.658   9.832   2.269
23783WAT     H171591   8.562   9.801   2.265
23783WAT     H271592   8.687   9.860   2.177
23784WAT      O71593   9.122   9.178   0.504
23784WAT     H171594   9.145   9.085   0.534
23784WAT     H271595   9.042   9.175   0.444
23785WAT      O71596   3.277   5.209   7.659
23785WAT     H171597   3.297   5.220   7.756
23785WAT     H271598   3.347   5.151   7.617
23786WAT      O71599   6.751   6.896   2.294
23786WAT     H171600   6.818   6.877   2.366
23786WAT     H271601   6.688   6.819   2.287
23787WAT      O71602   6.394   1.654   7.347
23787WAT     H171603   6.468   1.622   7.406
23787WAT     H271604   6.313   1.673   7.402
23788WAT      O71605   1.360   0.709   6.973
23788WAT     H171606   1.443   0.698   7.027
23788WAT     H271607   1.302   0.628   6.983
23789WAT      O71608   9.304   1.479   9.026
23789WAT     H171609   9.392   1.438   9.052
23789WAT     H271610   9.230   1.428   9.070
23790WAT      O71611   5.044   6.089   5.497
23790WAT     H171612   5.056   5.992   5.515
23790WAT     H271613   5.051   6.140   5.582
23791WAT      O71614   5.021   5.368   7.950
23791WAT     H171615   5.053   5.421   7.871
23791WAT     H271616   4.976   5.430   8.015
23792WAT      O71617   3.815   4.054   2.065
23792WAT     H171618   3.859   4.096   2.144
23792WAT     H271619   3.879   3.991   2.021
23793WAT      O71620   7.244   2.000   0.067
23793WAT     H171621   7.290   1.912   0.054
23793WAT     H271622   7.203   2.029  -0.020
23794WAT      O71623   5.555   9.294   7.012
23794WAT     H171624   5.641   9.247   6.996
23794WAT     H271625   5.511   9.258   7.094
23795WAT      O71626   9.765   2.250   5.502
23795WAT     H171627   9.855   2.276   5.469
23795WAT     H271628   9.773   2.200   5.588
23796WAT      O71629   3.871   5.725   5.629
23796WAT     H171630   3.905   5.651   5.570
23796WAT     H271631   3.842   5.802   5.572
23797WAT      O71632   0.126   8.123   9.892
23797WAT     H171633   0.039   8.093   9.853
23797WAT     H271634   0.114   8.213   9.934
23798WAT      O71635   4.163   1.540   9.028
23798WAT     H171636   4.220   1.473   8.980
23798WAT     H271637   4.220   1.613   9.064
23799WAT      O71638   4.470   7.162   1.098
23799WAT     H171639   4.405   7.145   1.172
23799WAT     H271640   4.424   7.209   1.023
23800WAT      O71641   0.814   6.439   5.354
23800WAT     H171642   0.808   6.446   5.454
23800WAT     H271643   0.902   6.476   5.324
23801WAT      O71644   2.977   3.108   3.962
23801WAT     H171645   2.897   3.057   3.931
23801WAT     H271646   2.950   3.201   3.986
23802WAT      O71647   9.079   6.647   6.635
23802WAT     H171648   9.175   6.652   6.662
23802WAT     H271649   9.042   6.739   6.627
23803WAT      O71650   2.116   2.199   2.354
23803WAT     H171651   2.107   2.226   2.449
23803WAT     H271652   2.042   2.240   2.300
23804WAT      O71653   2.061   3.812   0.816
23804WAT     H171654   2.001   3.892   0.819
23804WAT     H271655   2.064   3.770   0.906
23805WAT      O71656   0.338   1.804   8.561
23805WAT     H171657   0.270   1.764   8.622
23805WAT     H271658   0.372   1.734   8.498
23806WAT      O71659   8.240   2.689   4.867
23806WAT     H171660   8.168   2.711   4.800
23806WAT     H271661   8.266   2.593   4.856
23807WAT      O71662   1.529   9.556   7.469
23807WAT     H171663   1.550   9.587   7.376
23807WAT     H271664   1.615   9.539   7.518
23808WAT      O71665   4.213   9.157   6.160
23808WAT     H171666   4.159   9.167   6.244
23808WAT     H271667   4.230   9.248   6.121
23809WAT      O71668   6.019   1.834   6.561
23809WAT     H171669   5.994   1.808   6.468
23809WAT     H271670   6.119   1.839   6.568
23810WAT      O71671   8.006   2.623   9.128
23810WAT     H171672   8.083   2.604   9.189
23810WAT     H271673   7.957   2.703   9.162
23811WAT      O71674   3.516   5.111   7.566
23811WAT     H171675   3.530   5.196   7.516
23811WAT     H271676   3.590   5.100   7.634
23812WAT      O71677   3.917   3.612   1.180
23812WAT     H171678   3.961   3.654   1.101
23812WAT     H271679   3.859   3.536   1.149
23813WAT      O71680   6.922   8.132   6.885
23813WAT     H171681   6.900   8.078   6.966
23813WAT     H271682   6.866   8.215   6.884
23814WAT      O71683   8.969   0.933   7.606
23814WAT     H171684   8.965   0.833   7.598
23814WAT     H271685   9.021   0.958   7.688
23815WAT      O71686   9.163   3.194   6.227
23815WAT     H171687   9.232   3.121   6.225
23815WAT     H271688   9.104   3.186   6.146
23816WAT      O71689   2.694   3.649   8.403
23816WAT     H171690   2.647   3.648   8.491
23816WAT     H271691   2.632   3.682   8.332
23817WAT      O71692   9.316   7.278   0.555
23817WAT     H171693   9.352   7.196   0.599
23817WAT     H271694   9.232   7.255   0.505
23818WAT      O71695   3.616   9.123   9.678
23818WAT     H171696   3.705   9.152   9.645
23818WAT     H271697   3.568   9.201   9.719
23819WAT      O71698   7.351   1.850   8.208
23819WAT     H171699   7.275   1.792   8.178
23819WAT     H271700   7.434   1.794   8.217
23820WAT      O71701   0.246   3.963   9.446
23820WAT     H171702   0.322   4.022   9.418
23820WAT     H271703   0.242   3.883   9.386
23821WAT      O71704   7.532   5.795   0.254
23821WAT     H171705   7.538   5.712   0.310
23821WAT     H271706   7.619   5.843   0.257
23822WAT      O71707   4.996   0.824   3.954
23822WAT     H171708   4.917   0.768   3.978
23822WAT     H271709   4.989   0.913   3.998
23823WAT      O71710   6.186   8.500   6.038
23823WAT     H171711   6.182   8.559   5.957
23823WAT     H271712   6.202   8.405   6.010
23824WAT      O71713   7.839   0.658   0.176
23824WAT     H171714   7.785   0.725   0.126
23824WAT     H271715   7.826   0.670   0.274
23825WAT      O71716   3.157   7.797   8.061
23825WAT     H171717   3.174   7.836   8.151
23825WAT     H271718   3.061   7.807   8.037
23826WAT      O71719   7.751   3.355   7.246
23826WAT     H171720   7.696   3.437   7.231
23826WAT     H271721   7.703   3.293   7.308
23827WAT      O71722   6.806   0.064   2.736
23827WAT     H171723   6.774   0.067   2.641
23827WAT     H271724   6.736   0.024   2.794
23828WAT      O71725   2.819   1.665   2.605
23828WAT     H171726   2.741   1.604   2.602
23828WAT     H271727   2.844   1.693   2.512
23829WAT      O71728   4.769   2.130   9.273
23829WAT     H171729   4.704   2.093   9.340
23829WAT     H271730   4.862   2.121   9.309
23830WAT      O71731   8.455   2.427   8.717
23830WAT     H171732   8.432   2.476   8.801
23830WAT     H271733   8.403   2.342   8.714
23831WAT      O71734   2.591   6.450   3.556
23831WAT     H171735   2.677   6.401   3.566
23831WAT     H271736   2.593   6.534   3.609
23832WAT      O71737   5.255   0.903   6.644
23832WAT     H171738   5.345   0.907   6.603
23832WAT     H271739   5.254   0.835   6.718
23833WAT      O71740   2.730   3.886   0.631
23833WAT     H171741   2.806   3.883   0.567
23833WAT     H271742   2.669   3.962   0.607
23834WAT      O71743   7.037   7.933   3.817
23834WAT     H171744   6.993   7.996   3.752
23834WAT     H271745   7.126   7.969   3.843
23835WAT      O71746   2.179   9.346   5.817
23835WAT     H171747   2.227   9.271   5.863
23835WAT     H271748   2.214   9.434   5.850
23836WAT      O71749   0.124   2.778   2.683
23836WAT     H171750   0.052   2.715   2.710
23836WAT     H271751   0.177   2.805   2.764
23837WAT      O71752   5.700   7.815   8.700
23837WAT     H171753   5.764   7.868   8.756
23837WAT     H271754   5.746   7.783   8.618
23838WAT      O71755   0.801   1.842   9.508
23838WAT     H171756   0.821   1.787   9.589
23838WAT     H271757   0.860   1.812   9.432
23839WAT      O71758   1.006   3.223   7.661
23839WAT     H171759   0.945   3.293   7.623
23839WAT     H271760   1.048   3.258   7.745
23840WAT      O71761   1.647   7.730   0.878
23840WAT     H171762   1.737   7.698   0.905
23840WAT     H271763   1.616   7.678   0.798
23841WAT      O71764   7.078   3.334   1.071
23841WAT     H171765   7.127   3.384   0.999
23841WAT     H271766   7.108   3.367   1.160
23842WAT      O71767   3.709   8.953   1.310
23842WAT     H171768   3.748   9.039   1.343
23842WAT     H271769   3.764   8.918   1.234
23843WAT      O71770   6.433   2.017   1.280
23843WAT     H171771   6.397   2.100   1.324
23843WAT     H271772   6.518   2.040   1.233
23844WAT      O71773   9.343   0.049   0.006
23844WAT     H171774   9.259   0.088   0.044
23844WAT     H271775   9.361  -0.040   0.048
23845WAT      O71776   8.563   6.849   5.409
23845WAT     H171777   8.521   6.810   5.327
23845WAT     H271778   8.553   6.948   5.408
23846WAT      O71779   7.980   3.880   5.000
23846WAT     H171780   8.003   3.789   5.033
23846WAT     H271781   7.990   3.947   5.074
23847WAT      O71782   5.783   8.462   0.558
23847WAT     H171783   5.707   8.414   0.602
23847WAT     H271784   5.833   8.398   0.499
23848WAT      O71785   5.722   3.548   1.197
23848WAT     H171786   5.678   3.630   1.233
23848WAT     H271787   5.805   3.529   1.251
23849WAT      O71788   6.992   7.773   2.329
23849WAT     H171789   6.894   7.794   2.332
23849WAT     H271790   7.014   7.726   2.244
23850WAT      O71791   6.627   2.130   1.065
23850WAT     H171792   6.611   2.148   0.968
23850WAT     H271793   6.710   2.076   1.075
23851WAT      O71794   1.085   3.553   9.453
23851WAT     H171795   1.054   3.648   9.448
23851WAT     H271796   1.155   3.544   9.524
23852WAT      O71797   9.626   7.996   3.628
23852WAT     H171798   9.663   7.982   3.536
23852WAT     H271799   9.686   7.952   3.695
23853WAT      O71800   1.101   1.304   8.313
23853WAT     H171801   1.188   1.257   8.303
23853WAT     H271802   1.078   1.312   8.410
23854WAT      O71803   2.091   4.265   1.199
23854WAT     H171804   2.114   4.201   1.272
23854WAT     H271805   2.056   4.350   1.238
23855WAT      O71806   9.647   5.939   4.232
23855WAT     H171807   9.571   5.990   4.272
23855WAT     H271808   9.690   5.995   4.161
23856WAT      O71809   3.932   9.032   0.229
23856WAT     H171810   3.971   9.063   0.315
23856WAT     H271811   3.833   9.018   0.239
23857WAT      O71812   5.864   8.942   6.796
23857WAT     H171813   5.897   8.862   6.847
23857WAT     H271814   5.889   8.933   6.700
23858WAT      O71815   0.113   4.365   5.775
23858WAT     H171816   0.193   4.313   5.805
23858WAT     H271817   0.090   4.434   5.843
23859WAT      O71818   0.071   3.607   6.907
23859WAT     H171819   0.026   3.675   6.850
23859WAT     H271820   0.169   3.621   6.905
23860WAT      O71821   1.896   8.828   4.810
23860WAT     H171822   1.883   8.729   4.801
23860WAT     H271823   1.911   8.851   4.906
23861WAT      O71824   3.741   8.909   0.750
23861WAT     H171825   3.643   8.891   0.756
23861WAT     H271826   3.783   8.894   0.840
23862WAT      O71827   6.482   3.463   9.889
23862WAT     H171828   6.577   3.434   9.878
23862WAT     H271829   6.422   3.389   9.858
23863WAT      O71830   6.519   2.120   9.811
23863WAT     H171831   6.530   2.060   9.889
23863WAT     H271832   6.437   2.177   9.823
23864WAT      O71833   7.046   4.923   4.183
23864WAT     H171834   7.103   4.858   4.133
23864WAT     H271835   7.073   4.923   4.279
23865WAT      O71836   3.588   7.706   1.526
23865WAT     H171837   3.652   7.664   1.462
23865WAT     H271838   3.585   7.804   1.510
23866WAT      O71839   5.235   6.818   5.754
23866WAT     H171840   5.289   6.871   5.688
23866WAT     H271841   5.283   6.814   5.841
23867WAT      O71842   1.246   4.776   1.923
23867WAT     H171843   1.236   4.685   1.962
23867WAT     H271844   1.170   4.834   1.953
23868WAT      O71845   6.667   1.501   9.253
23868WAT     H171846   6.613   1.507   9.337
23868WAT     H271847   6.749   1.446   9.270
23869WAT      O71848   0.027   7.178   1.880
23869WAT     H171849   0.055   7.270   1.905
23869WAT     H271850  -0.008   7.130   1.960
23870WAT      O71851   1.552   5.762   1.655
23870WAT     H171852   1.553   5.827   1.730
23870WAT     H271853   1.458   5.736   1.634
23871WAT      O71854   9.714   8.621   7.227
23871WAT     H171855   9.811   8.624   7.204
23871WAT     H271856   9.661   8.648   7.146
23872WAT      O71857   7.040   5.513   3.753
23872WAT     H171858   7.039   5.422   3.713
23872WAT     H271859   7.011   5.580   3.684
23873WAT      O71860   3.178   9.488   4.174
23873WAT     H171861   3.094   9.440   4.200
23873WAT     H271862   3.208   9.454   4.084
23874WAT      O71863   7.615   2.696   5.982
23874WAT     H171864   7.639   2.690   6.079
23874WAT     H271865   7.690   2.738   5.931
23875WAT      O71866   5.357   0.975   6.354
23875WAT     H171867   5.259   0.996   6.356
23875WAT     H271868   5.407   1.046   6.403
23876WAT      O71869   4.258   6.911   7.644
23876WAT     H171870   4.290   6.833   7.698
23876WAT     H271871   4.240   6.881   7.550
23877WAT      O71872   0.240   2.987   4.993
23877WAT     H171873   0.270   3.060   4.931
23877WAT     H271874   0.240   2.900   4.945
23878WAT      O71875   7.595   7.766   6.954
23878WAT     H171876   7.510   7.721   6.985
23878WAT     H271877   7.658   7.774   7.031
23879WAT      O71878   5.636   8.067   1.506
23879WAT     H171879   5.670   8.160   1.520
23879WAT     H271880   5.589   8.036   1.588
23880WAT      O71881   8.100   8.052   6.015
23880WAT     H171882   8.050   8.089   6.093
23880WAT     H271883   8.161   7.979   6.046
23881WAT      O71884   0.279   6.391   5.368
23881WAT     H171885   0.224   6.332   5.427
23881WAT     H271886   0.366   6.347   5.348
23882WAT      O71887   0.571   1.833   9.683
23882WAT     H171888   0.574   1.838   9.783
23882WAT     H271889   0.664   1.827   9.647
23883WAT      O71890   2.026   4.348   8.535
23883WAT     H171891   2.003   4.256   8.504
23883WAT     H271892   2.125   4.355   8.548
23884WAT      O71893   4.707   2.336   3.018
23884WAT     H171894   4.757   2.287   3.089
23884WAT     H271895   4.747   2.316   2.928
23885WAT      O71896   6.738   7.893   3.397
23885WAT     H171897   6.664   7.861   3.338
23885WAT     H271898   6.796   7.816   3.422
23886WAT      O71899   1.666   5.335   8.316
23886WAT     H171900   1.575   5.341   8.357
23886WAT     H271901   1.697   5.427   8.292
23887WAT      O71902   5.132   8.266   0.518
23887WAT     H171903   5.033   8.274   0.507
23887WAT     H271904   5.175   8.261   0.428
23888WAT      O71905   4.389   7.273   3.288
23888WAT     H171906   4.299   7.296   3.252
23888WAT     H271907   4.393   7.298   3.385
23889WAT      O71908   8.922   4.038   9.599
23889WAT     H171909   8.938   4.124   9.550
23889WAT     H271910   8.869   3.976   9.541
23890WAT      O71911   7.227   2.680   0.542
23890WAT     H171912   7.141   2.661   0.494
23890WAT     H271913   7.253   2.775   0.526
23891WAT      O71914   9.542   8.792   1.805
23891WAT     H171915   9.575   8.709   1.759
23891WAT     H271916   9.612   8.825   1.868
23892WAT      O71917   3.776   4.541   9.720
23892WAT     H171918   3.860   4.571   9.765
23892WAT     H271919   3.797   4.468   9.655
23893WAT      O71920   8.392   8.469   6.620
23893WAT     H171921   8.319   8.446   6.556
23893WAT     H271922   8.471   8.410   6.604
23894WAT      O71923   2.185   6.019   2.107
23894WAT     H171924   2.213   6.048   2.198
23894WAT     H271925   2.116   5.946   2.114
23895WAT      O71926   6.828   4.217   5.354
23895WAT     H171927   6.825   4.306   5.400
23895WAT     H271928   6.901   4.217   5.285
23896WAT      O71929   3.871   5.025   7.468
23896WAT     H171930   3.823   4.985   7.390
23896WAT     H271931   3.819   5.008   7.552
23897WAT      O71932   5.082   3.849   3.342
23897WAT     H171933   5.073   3.768   3.283
23897WAT     H271934   4.993   3.892   3.353
23898WAT      O71935   8.468   3.340   3.341
23898WAT     H171936   8.494   3.334   3.245
23898WAT     H271937   8.477   3.435   3.372
23899WAT      O71938   1.324   0.817   3.090
23899WAT     H171939   1.360   0.730   3.125
23899WAT     H271940   1.249   0.847   3.148
23900WAT      O71941   2.663   9.653   7.179
23900WAT     H171942   2.587   9.588   7.186
23900WAT     H271943   2.697   9.655   7.085
23901WAT      O71944   3.853   9.307   0.051
23901WAT     H171945   3.936   9.294   0.105
23901WAT     H271946   3.878   9.325  -0.045
23902WAT      O71947   2.482   7.139   7.046
23902WAT     H171948   2.503   7.044   7.022
23902WAT     H271949   2.390   7.143   7.086
23903WAT      O71950   5.701   6.968   4.895
23903WAT     H171951   5.674   7.020   4.814
23903WAT     H271952   5.793   6.994   4.922
23904WAT      O71953   4.948   7.073   9.809
23904WAT     H171954   4.960   7.099   9.713
23904WAT     H271955   5.033   7.034   9.844
23905WAT      O71956   5.926   4.847   9.209
23905WAT     H171957   5.864   4.852   9.130
23905WAT     H271958   6.020   4.865   9.178
23906WAT      O71959   8.489   3.207   3.987
23906WAT     H171960   8.487   3.111   3.960
23906WAT     H271961   8.409   3.227   4.044
23907WAT      O71962   0.189   2.325   6.893
23907WAT     H171963   0.211   2.227   6.886
23907WAT     H271964   0.272   2.376   6.914
23908WAT      O71965   6.184   1.432   6.240
23908WAT     H171966   6.152   1.506   6.181
23908WAT     H271967   6.254   1.379   6.192
23909WAT      O71968   6.095   0.623   8.081
23909WAT     H171969   6.019   0.559   8.076
23909WAT     H271970   6.177   0.576   8.113
23910WAT      O71971   2.121   6.900   1.681
23910WAT     H171972   2.177   6.938   1.755
23910WAT     H271973   2.124   6.801   1.684
23911WAT      O71974   1.077   8.826   2.965
23911WAT     H171975   1.076   8.790   2.872
23911WAT     H271976   1.163   8.803   3.009
23912WAT      O71977   5.671   5.112   7.005
23912WAT     H171978   5.617   5.036   6.969
23912WAT     H271979   5.746   5.076   7.061
23913WAT      O71980   3.617   7.490   9.446
23913WAT     H171981   3.658   7.483   9.537
23913WAT     H271982   3.555   7.568   9.443
23914WAT      O71983   1.649   0.844   1.668
23914WAT     H171984   1.717   0.774   1.651
23914WAT     H271985   1.557   0.804   1.664
23915WAT      O71986   3.504   3.415   4.940
23915WAT     H171987   3.452   3.352   4.996
23915WAT     H271988   3.460   3.505   4.941
23916WAT      O71989   6.693   8.617   3.074
23916WAT     H171990   6.646   8.697   3.037
23916WAT     H271991   6.629   8.561   3.125
23917WAT      O71992   4.149   1.181   1.244
23917WAT     H171993   4.133   1.272   1.282
23917WAT     H271994   4.143   1.185   1.144
23918WAT      O71995   2.793   3.192   4.530
23918WAT     H171996   2.772   3.221   4.437
23918WAT     H271997   2.728   3.121   4.558
23919WAT      O71998   5.634   8.087   0.893
23919WAT     H171999   5.664   7.992   0.893
23919WAT     H272000   5.640   8.125   0.801
23920WAT      O72001   0.287   3.676   3.354
23920WAT     H172002   0.246   3.599   3.304
23920WAT     H272003   0.378   3.695   3.316
23921WAT      O72004   9.829   0.258   4.888
23921WAT     H172005   9.745   0.256   4.943
23921WAT     H272006   9.906   0.285   4.946
23922WAT      O72007   3.950   2.486   8.696
23922WAT     H172008   3.998   2.447   8.774
23922WAT     H272009   3.977   2.437   8.613
23923WAT      O72010   0.243   1.418   8.566
23923WAT     H172011   0.270   1.346   8.503
23923WAT     H272012   0.309   1.423   8.641
23924WAT      O72013   4.615   8.204   2.173
23924WAT     H172014   4.519   8.194   2.200
23924WAT     H272015   4.662   8.263   2.238
23925WAT      O72016   6.145   5.823   7.894
23925WAT     H172017   6.097   5.799   7.810
23925WAT     H272018   6.128   5.919   7.916
23926WAT      O72019   1.859   6.787   4.557
23926WAT     H172020   1.818   6.837   4.634
23926WAT     H272021   1.876   6.692   4.583
23927WAT      O72022   0.350   2.959   0.990
23927WAT     H172023   0.257   2.993   0.973
23927WAT     H272024   0.383   2.909   0.910
23928WAT      O72025   2.388   5.642   2.630
23928WAT     H172026   2.435   5.710   2.574
23928WAT     H272027   2.416   5.550   2.601
23929WAT      O72028   8.079   1.699   0.935
23929WAT     H172029   8.146   1.631   0.962
23929WAT     H272030   8.053   1.754   1.015
23930WAT      O72031   0.384   3.423   8.533
23930WAT     H172032   0.443   3.503   8.532
23930WAT     H272033   0.393   3.373   8.447
23931WAT      O72034   3.122   2.920   2.527
23931WAT     H172035   3.078   2.932   2.616
23931WAT     H272036   3.105   3.000   2.470
23932WAT      O72037   2.374   3.825   1.973
23932WAT     H172038   2.389   3.902   2.035
23932WAT     H272039   2.417   3.743   2.010
23933WAT      O72040   7.683   5.327   2.552
23933WAT     H172041   7.688   5.424   2.528
23933WAT     H272042   7.596   5.289   2.521
23934WAT      O72043   4.351   6.109   2.679
23934WAT     H172044   4.329   6.202   2.652
23934WAT     H272045   4.443   6.086   2.649
23935WAT      O72046   8.397   4.152   1.764
23935WAT     H172047   8.364   4.243   1.790
23935WAT     H272048   8.496   4.155   1.752
23936WAT      O72049   6.995   8.914   1.061
23936WAT     H172050   6.951   8.984   1.005
23936WAT     H272051   7.083   8.889   1.020
23937WAT      O72052   0.432   2.953   4.148
23937WAT     H172053   0.495   2.940   4.224
23937WAT     H272054   0.474   3.011   4.078
23938WAT      O72055   9.160   1.977   4.198
23938WAT     H172056   9.201   1.908   4.138
23938WAT     H272057   9.065   1.953   4.217
23939WAT      O72058   8.959   7.778   0.932
23939WAT     H172059   9.000   7.702   0.982
23939WAT     H272060   8.962   7.861   0.988
23940WAT      O72061   3.226   1.295   4.102
23940WAT     H172062   3.233   1.283   4.201
23940WAT     H272063   3.318   1.296   4.062
23941WAT      O72064   8.409   4.897   3.675
23941WAT     H172065   8.488   4.924   3.619
23941WAT     H272066   8.434   4.904   3.772
23942WAT      O72067   3.639   0.775   1.446
23942WAT     H172068   3.553   0.760   1.495
23942WAT     H272069   3.664   0.872   1.453
23943WAT      O72070   5.616   1.833   3.338
23943WAT     H172071   5.625   1.857   3.434
23943WAT     H272072   5.680   1.760   3.315
23944WAT      O72073   5.456   0.487   8.909
23944WAT     H172074   5.511   0.497   8.992
23944WAT     H272075   5.435   0.578   8.872
23945WAT      O72076   6.307   0.159   3.311
23945WAT     H172077   6.350   0.249   3.312
23945WAT     H272078   6.233   0.159   3.244
23946WAT      O72079   4.443   4.811   7.355
23946WAT     H172080   4.390   4.878   7.303
23946WAT     H272081   4.394   4.788   7.439
23947WAT      O72082   2.177   6.284   8.614
23947WAT     H172083   2.242   6.221   8.571
23947WAT     H272084   2.226   6.364   8.648
23948WAT      O72085   0.780   9.532   3.718
23948WAT     H172086   0.697   9.588   3.716
23948WAT     H272087   0.792   9.485   3.631
23949WAT      O72088   3.947   4.187   0.116
23949WAT     H172089   3.971   4.268   0.169
23949WAT     H272090   3.985   4.106   0.161
23950WAT      O72091   6.478   2.190   5.742
23950WAT     H172092   6.517   2.176   5.833
23950WAT     H272093   6.382   2.219   5.750
23951WAT      O72094   0.922   0.218   5.120
23951WAT     H172095   0.877   0.307   5.113
23951WAT     H272096   0.954   0.189   5.030
23952WAT      O72097   0.358   6.941   2.196
23952WAT     H172098   0.390   6.880   2.123
23952WAT     H272099   0.260   6.925   2.212
23953WAT      O72100   6.952   1.259   5.564
23953WAT     H172101   6.908   1.259   5.474
23953WAT     H272102   6.984   1.167   5.585
23954WAT      O72103   8.938   8.515   8.051
23954WAT     H172104   8.890   8.428   8.047
23954WAT     H272105   8.979   8.535   7.962
23955WAT      O72106   4.585   5.181   6.601
23955WAT     H172107   4.507   5.235   6.632
23955WAT     H272108   4.624   5.223   6.519
23956WAT      O72109   8.638   4.760   4.232
23956WAT     H172110   8.580   4.841   4.232
23956WAT     H272111   8.632   4.715   4.143
23957WAT      O72112   6.671   6.460   2.670
23957WAT     H172113   6.753   6.457   2.613
23957WAT     H272114   6.590   6.459   2.611
23958WAT      O72115   5.133   2.748   6.616
23958WAT     H172116   5.075   2.669   6.599
23958WAT     H272117   5.181   2.773   6.532
23959WAT      O72118   2.237   5.907   1.857
23959WAT     H172119   2.258   5.952   1.944
23959WAT     H272120   2.263   5.966   1.781
23960WAT      O72121   7.503   0.866   3.652
23960WAT     H172122   7.428   0.812   3.689
23960WAT     H272123   7.502   0.861   3.553
23961WAT      O72124   2.935   0.982   1.833
23961WAT     H172125   3.026   0.971   1.873
23961WAT     H272126   2.865   0.967   1.904
23962WAT      O72127   4.296   8.719   7.933
23962WAT     H172128   4.351   8.769   7.867
23962WAT     H272129   4.341   8.633   7.956
23963WAT      O72130   3.968   6.400   1.086
23963WAT     H172131   3.912   6.476   1.053
23963WAT     H272132   4.002   6.348   1.008
23964WAT      O72133   7.127   9.151   1.610
23964WAT     H172134   7.197   9.113   1.670
23964WAT     H272135   7.154   9.244   1.583
23965WAT      O72136   8.136   7.665   7.128
23965WAT     H172137   8.136   7.696   7.223
23965WAT     H272138   8.048   7.623   7.106
23966WAT      O72139   6.962   5.612   2.365
23966WAT     H172140   7.031   5.574   2.303
23966WAT     H272141   6.975   5.710   2.373
23967WAT      O72142   2.888   3.685   2.521
23967WAT     H172143   2.950   3.763   2.510
23967WAT     H272144   2.847   3.663   2.432
23968WAT      O72145   7.468   8.648   9.204
23968WAT     H172146   7.444   8.650   9.107
23968WAT     H272147   7.403   8.590   9.253
23969WAT      O72148   7.926   6.168   8.495
23969WAT     H172149   7.991   6.194   8.566
23969WAT     H272150   7.970   6.175   8.406
23970WAT      O72151   7.209   8.284   2.360
23970WAT     H172152   7.270   8.320   2.431
23970WAT     H272153   7.180   8.191   2.384
23971WAT      O72154   5.345   6.126   7.440
23971WAT     H172155   5.254   6.087   7.454
23971WAT     H272156   5.399   6.066   7.382
23972WAT      O72157   0.859   5.520   7.589
23972WAT     H172158   0.851   5.528   7.688
23972WAT     H272159   0.927   5.450   7.566
23973WAT      O72160   2.266   4.059   5.184
23973WAT     H172161   2.298   4.151   5.163
23973WAT     H272162   2.290   4.035   5.278
23974WAT      O72163   7.703   8.844   3.453
23974WAT     H172164   7.742   8.923   3.405
23974WAT     H272165   7.659   8.874   3.537
23975WAT      O72166   0.766   4.497   8.841
23975WAT     H172167   0.743   4.538   8.930
23975WAT     H272168   0.749   4.399   8.845
23976WAT      O72169   3.096   5.877   7.564
23976WAT     H172170   3.112   5.975   7.561
23976WAT     H272171   2.999   5.859   7.578
23977WAT      O72172   8.189   8.387   3.556
23977WAT     H172173   8.092   8.407   3.567
23977WAT     H272174   8.235   8.465   3.513
23978WAT      O72175   2.298   9.088   4.000
23978WAT     H172176   2.208   9.122   3.977
23978WAT     H272177   2.322   9.012   3.941
23979WAT      O72178   9.176   5.090   7.241
23979WAT     H172179   9.181   5.182   7.280
23979WAT     H272180   9.115   5.034   7.296
23980WAT      O72181   0.495   2.399   6.149
23980WAT     H172182   0.438   2.409   6.068
23980WAT     H272183   0.475   2.312   6.193
23981WAT      O72184   8.501   9.242   4.070
23981WAT     H172185   8.438   9.296   4.127
23981WAT     H272186   8.584   9.295   4.054
23982WAT      O72187   2.510   3.588   8.945
23982WAT     H172188   2.543   3.682   8.942
23982WAT     H272189   2.447   3.571   8.869
23983WAT      O72190   5.525   6.902   4.093
23983WAT     H172191   5.615   6.911   4.135
23983WAT     H272192   5.495   6.990   4.058
23984WAT      O72193   5.820   0.427   8.718
23984WAT     H172194   5.833   0.465   8.627
23984WAT     H272195   5.745   0.361   8.716
23985WAT      O72196   3.246   6.637   4.645
23985WAT     H172197   3.209   6.553   4.606
23985WAT     H272198   3.210   6.716   4.595
23986WAT      O72199   5.423   7.769   2.620
23986WAT     H172200   5.370   7.749   2.703
23986WAT     H272201   5.373   7.736   2.540
23987WAT      O72202   5.533   3.297   8.025
23987WAT     H172203   5.587   3.218   7.998
23987WAT     H272204   5.494   3.341   7.944
23988WAT      O72205   8.831   4.681   1.884
23988WAT     H172206   8.780   4.672   1.969
23988WAT     H272207   8.892   4.603   1.873
23989WAT      O72208   5.049   9.207   8.845
23989WAT     H172209   4.988   9.236   8.771
23989WAT     H272210   5.140   9.190   8.809
23990WAT      O72211   0.054   2.366   1.179
23990WAT     H172212   0.111   2.408   1.249
23990WAT     H272213   0.077   2.269   1.171
23991WAT      O72214   3.019   6.980   7.136
23991WAT     H172215   2.921   6.978   7.154
23991WAT     H272216   3.043   7.068   7.094
23992WAT      O72217   3.320   9.623   2.914
23992WAT     H172218   3.320   9.542   2.857
23992WAT     H272219   3.384   9.611   2.990
23993WAT      O72220   4.985   4.249   0.272
23993WAT     H172221   4.889   4.234   0.292
23993WAT     H272222   5.037   4.251   0.358
23994WAT      O72223   6.406   2.849   4.887
23994WAT     H172224   6.452   2.765   4.857
23994WAT     H272225   6.389   2.907   4.807
23995WAT      O72226   2.103   5.493   2.210
23995WAT     H172227   2.048   5.439   2.273
23995WAT     H272228   2.196   5.456   2.206
23996WAT      O72229   7.299   3.792   6.867
23996WAT     H172230   7.384   3.844   6.859
23996WAT     H272231   7.280   3.772   6.963
23997WAT      O72232   7.016   5.812   9.061
23997WAT     H172233   6.963   5.762   8.992
23997WAT     H272234   7.061   5.746   9.122
23998WAT      O72235   8.928   6.008   9.878
23998WAT     H172236   8.990   5.960   9.815
23998WAT     H272237   8.853   6.048   9.827
23999WAT      O72238   7.937   8.255   2.928
23999WAT     H172239   8.020   8.244   2.873
23999WAT     H272240   7.905   8.165   2.958
24000WAT      O72241   8.662   2.894   4.768
24000WAT     H172242   8.576   2.897   4.819
24000WAT     H272243   8.643   2.893   4.670
24001WAT      O72244   9.321   1.508   5.776
24001WAT     H172245   9.259   1.441   5.736
24001WAT     H272246   9.376   1.465   5.847
24002WAT      O72247   1.158   6.469   6.993
24002WAT     H172248   1.096   6.538   7.033
24002WAT     H272249   1.105   6.404   6.939
24003WAT      O72250   9.420   3.806   0.317
24003WAT     H172251   9.464   3.724   0.353
24003WAT     H272252   9.334   3.822   0.366
24004WAT      O72253   4.025   2.902   0.898
24004WAT     H172254   4.092   2.951   0.842
24004WAT     H272255   3.939   2.894   0.848
24005WAT      O72256   6.767   4.294   7.115
24005WAT     H172257   6.754   4.324   7.210
24005WAT     H272258   6.839   4.349   7.073
24006WAT      O72259   4.351   4.390   2.137
24006WAT     H172260   4.331   4.430   2.048
24006WAT     H272261   4.381   4.462   2.200
24007WAT      O72262   1.606   7.957   9.102
24007WAT     H172263   1.540   7.922   9.035
24007WAT     H272264   1.561   8.023   9.162
24008WAT      O72265   8.647   1.197   6.580
24008WAT     H172266   8.596   1.193   6.666
24008WAT     H272267   8.662   1.292   6.554
24009WAT      O72268   6.256   1.978   5.219
24009WAT     H172269   6.184   1.925   5.176
24009WAT     H272270   6.332   1.917   5.242
24010WAT      O72271   3.250   3.387   8.536
24010WAT     H172272   3.178   3.452   8.562
24010WAT     H272273   3.245   3.306   8.594
24011WAT      O72274   4.936   8.775   4.174
24011WAT     H172275   4.862   8.716   4.142
24011WAT     H272276   4.917   8.806   4.267
24012WAT      O72277   5.068   7.220   1.162
24012WAT     H172278   5.158   7.204   1.202
24012WAT     H272279   5.057   7.163   1.081
24013WAT      O72280   4.841   4.060   9.351
24013WAT     H172281   4.836   4.103   9.261
24013WAT     H272282   4.826   3.961   9.342
24014WAT      O72283   1.396   8.282   3.240
24014WAT     H172284   1.420   8.218   3.167
24014WAT     H272285   1.303   8.316   3.227
24015WAT      O72286   2.057   8.663   7.391
24015WAT     H172287   2.087   8.585   7.336
24015WAT     H272288   1.962   8.683   7.371
24016WAT      O72289   7.039   9.617   0.860
24016WAT     H172290   7.134   9.637   0.834
24016WAT     H272291   7.003   9.544   0.803
24017WAT      O72292   5.670   7.264   8.436
24017WAT     H172293   5.580   7.302   8.413
24017WAT     H272294   5.687   7.276   8.533
24018WAT      O72295   1.879   7.752   4.653
24018WAT     H172296   1.818   7.712   4.585
24018WAT     H272297   1.828   7.771   4.737
24019WAT      O72298   1.958   0.326   5.566
24019WAT     H172299   1.911   0.412   5.584
24019WAT     H272300   1.891   0.252   5.561
24020WAT      O72301   4.451   5.419   3.625
24020WAT     H172302   4.485   5.473   3.703
24020WAT     H272303   4.521   5.352   3.599
24021WAT      O72304   6.748   1.647   4.778
24021WAT     H172305   6.822   1.597   4.823
24021WAT     H272306   6.671   1.585   4.762
24022WAT      O72307   5.323   8.839   0.478
24022WAT     H172308   5.284   8.747   0.478
24022WAT     H272309   5.336   8.870   0.572
24023WAT      O72310   0.289   3.754   9.291
24023WAT     H172311   0.278   3.731   9.194
24023WAT     H272312   0.384   3.742   9.318
24024WAT      O72313   9.864   6.611   1.926
24024WAT     H172314   9.878   6.664   2.010
24024WAT     H272315   9.769   6.579   1.923
24025WAT      O72316   9.860   6.499   3.383
24025WAT     H172317   9.767   6.484   3.417
24025WAT     H272318   9.919   6.525   3.459
24026WAT      O72319   7.162   3.623   6.713
24026WAT     H172320   7.214   3.680   6.778
24026WAT     H272321   7.104   3.682   6.657
24027WAT      O72322   4.980   7.439   1.295
24027WAT     H172323   4.886   7.447   1.264
24027WAT     H272324   5.028   7.370   1.240
24028WAT      O72325   1.680   1.773   5.774
24028WAT     H172326   1.627   1.742   5.853
24028WAT     H272327   1.651   1.865   5.748
24029WAT      O72328   4.999   8.829   1.907
24029WAT     H172329   4.941   8.844   1.988
24029WAT     H272330   5.016   8.731   1.896
24030WAT      O72331   7.020   5.478   9.599
24030WAT     H172332   6.952   5.425   9.650
24030WAT     H272333   7.111   5.439   9.614
24031WAT      O72334   4.600   6.803   2.824
24031WAT     H172335   4.588   6.825   2.727
24031WAT     H272336   4.693   6.769   2.839
24032WAT      O72337   3.068   1.098   3.989
24032WAT     H172338   3.122   1.015   3.973
24032WAT     H272339   3.123   1.166   4.036
24033WAT      O72340   1.894   4.696   3.558
24033WAT     H172341   1.927   4.718   3.650
24033WAT     H272342   1.971   4.667   3.501
24034WAT      O72343   5.049   8.520   6.048
24034WAT     H172344   5.071   8.430   6.087
24034WAT     H272345   5.128   8.555   5.997
24035WAT      O72346   1.978   1.281   0.494
24035WAT     H172347   2.054   1.215   0.503
24035WAT     H272348   1.966   1.330   0.581
24036WAT      O72349   3.953   4.227   5.372
24036WAT     H172350   4.020   4.263   5.306
24036WAT     H272351   3.865   4.215   5.326
24037WAT      O72352   4.055   4.167   0.812
24037WAT     H172353   3.997   4.089   0.836
24037WAT     H272354   4.151   4.144   0.832
24038WAT      O72355   9.390   2.241   1.451
24038WAT     H172356   9.366   2.206   1.361
24038WAT     H272357   9.331   2.199   1.520
24039WAT      O72358   4.721   1.348   5.704
24039WAT     H172359   4.728   1.443   5.735
24039WAT     H272360   4.807   1.321   5.660
24040WAT      O72361   0.885   1.333   2.777
24040WAT     H172362   0.921   1.261   2.837
24040WAT     H272363   0.928   1.421   2.801
24041WAT      O72364   2.638   3.099   2.978
24041WAT     H172365   2.603   3.149   2.899
24041WAT     H272366   2.729   3.133   3.002
24042WAT      O72367   3.736   4.379   9.021
24042WAT     H172368   3.768   4.367   9.115
24042WAT     H272369   3.661   4.315   9.003
24043WAT      O72370   8.772   8.872   5.912
24043WAT     H172371   8.818   8.956   5.882
24043WAT     H272372   8.840   8.799   5.923
24044WAT      O72373   5.457   8.009   2.491
24044WAT     H172374   5.534   7.997   2.428
24044WAT     H272375   5.446   7.927   2.546
24045WAT      O72376   3.555   8.235   2.475
24045WAT     H172377   3.466   8.206   2.440
24045WAT     H272378   3.559   8.335   2.478
24046WAT      O72379   7.084   0.875   2.788
24046WAT     H172380   7.088   0.880   2.688
24046WAT     H272381   7.168   0.833   2.822
24047WAT      O72382   8.576   7.219   1.492
24047WAT     H172383   8.599   7.137   1.544
24047WAT     H272384   8.659   7.256   1.450
24048WAT      O72385   8.459   2.743   1.725
24048WAT     H172386   8.482   2.714   1.818
24048WAT     H272387   8.415   2.832   1.728
24049WAT      O72388   7.172   0.114   6.624
24049WAT     H172389   7.213   0.072   6.544
24049WAT     H272390   7.140   0.206   6.601
24050WAT      O72391   7.257   2.650   2.122
24050WAT     H172392   7.338   2.592   2.130
24050WAT     H272393   7.276   2.726   2.060
24051WAT      O72394   8.377   3.864   8.553
24051WAT     H172395   8.372   3.874   8.652
24051WAT     H272396   8.303   3.805   8.521
24052WAT      O72397   5.815   9.843   9.057
24052WAT     H172398   5.750   9.792   9.114
24052WAT     H272399   5.907   9.805   9.068
24053WAT      O72400   4.719   0.904   9.582
24053WAT     H172401   4.659   0.879   9.659
24053WAT     H272402   4.683   0.864   9.498
24054WAT      O72403   3.923   6.321   8.853
24054WAT     H172404   3.849   6.271   8.899
24054WAT     H272405   4.006   6.315   8.908
24055WAT      O72406   0.018   3.067   8.637
24055WAT     H172407  -0.065   3.019   8.665
24055WAT     H272408   0.005   3.105   8.545
24056WAT      O72409   7.500   4.903   6.752
24056WAT     H172410   7.524   4.808   6.734
24056WAT     H272411   7.578   4.962   6.730
24057WAT      O72412   4.448   4.141   2.095
24057WAT     H172413   4.375   4.081   2.063
24057WAT     H272414   4.409   4.229   2.123
24058WAT      O72415   0.973   5.607   0.855
24058WAT     H172416   1.025   5.657   0.786
24058WAT     H272417   0.963   5.512   0.828
24059WAT      O72418   3.563   9.330   3.796
24059WAT     H172419   3.522   9.420   3.784
24059WAT     H272420   3.629   9.333   3.871
24060WAT      O72421   8.338   8.806   1.009
24060WAT     H172422   8.247   8.810   1.050
24060WAT     H272423   8.388   8.890   1.029
24061WAT      O72424   4.823   3.366   9.141
24061WAT     H172425   4.776   3.286   9.178
24061WAT     H272426   4.765   3.447   9.150
24062WAT      O72427   9.387   8.437   9.879
24062WAT     H172428   9.469   8.383   9.894
24062WAT     H272429   9.308   8.377   9.871
24063WAT      O72430   3.364   5.315   0.146
24063WAT     H172431   3.337   5.395   0.092
24063WAT     H272432   3.286   5.282   0.199
24064WAT      O72433   0.646   5.663   3.741
24064WAT     H172434   0.687   5.593   3.683
24064WAT     H272435   0.715   5.701   3.802
24065WAT      O72436   0.208   1.560   8.192
24065WAT     H172437   0.132   1.557   8.127
24065WAT     H272438   0.294   1.544   8.144
24066WAT      O72439   5.893   1.577   6.299
24066WAT     H172440   5.835   1.551   6.222
24066WAT     H272441   5.936   1.665   6.280
24067WAT      O72442   2.715   4.724   1.315
24067WAT     H172443   2.671   4.703   1.227
24067WAT     H272444   2.773   4.805   1.305
24068WAT      O72445   3.709   2.770   7.258
24068WAT     H172446   3.694   2.680   7.218
24068WAT     H272447   3.783   2.766   7.324
24069WAT      O72448   1.508   8.543   8.774
24069WAT     H172449   1.427   8.504   8.818
24069WAT     H272450   1.532   8.630   8.818
24070WAT      O72451   9.434   3.465   9.764
24070WAT     H172452   9.368   3.393   9.742
24070WAT     H272453   9.521   3.424   9.791
24071WAT      O72454   1.272   2.758   0.208
24071WAT     H172455   1.183   2.788   0.244
24071WAT     H272456   1.338   2.755   0.283
24072WAT      O72457   2.145   7.450   4.910
24072WAT     H172458   2.063   7.397   4.931
24072WAT     H272459   2.223   7.388   4.899
24073WAT      O72460   2.700   7.199   7.806
24073WAT     H172461   2.618   7.144   7.787
24073WAT     H272462   2.781   7.148   7.777
24074WAT      O72463   4.042   3.353   2.025
24074WAT     H172464   4.045   3.387   1.931
24074WAT     H272465   4.111   3.282   2.037
24075WAT      O72466   7.337   7.074   1.831
24075WAT     H172467   7.416   7.065   1.770
24075WAT     H272468   7.366   7.114   1.918
24076WAT      O72469   5.304   1.240   3.455
24076WAT     H172470   5.326   1.337   3.462
24076WAT     H272471   5.278   1.218   3.362
24077WAT      O72472   5.018   6.900   2.666
24077WAT     H172473   5.076   6.819   2.658
24077WAT     H272474   5.069   6.974   2.710
24078WAT      O72475   7.730   5.872   5.755
24078WAT     H172476   7.783   5.822   5.823
24078WAT     H272477   7.687   5.808   5.692
24079WAT      O72478   9.185   0.604   7.029
24079WAT     H172479   9.132   0.616   7.113
24079WAT     H272480   9.199   0.507   7.012
24080WAT      O72481   6.018   6.161   0.488
24080WAT     H172482   5.977   6.150   0.398
24080WAT     H272483   6.113   6.130   0.486
24081WAT      O72484   4.456   8.982   6.574
24081WAT     H172485   4.392   9.057   6.557
24081WAT     H272486   4.540   9.018   6.614
24082WAT      O72487   2.004   6.218   1.075
24082WAT     H172488   2.083   6.247   1.129
24082WAT     H272489   2.021   6.127   1.037
24083WAT      O72490   8.610   0.417   7.646
24083WAT     H172491   8.700   0.447   7.675
24083WAT     H272492   8.617   0.373   7.556
24084WAT      O72493   5.162   1.187   3.236
24084WAT     H172494   5.155   1.123   3.160
24084WAT     H272495   5.073   1.230   3.252
24085WAT      O72496   9.846   2.725   6.320
24085WAT     H172497   9.796   2.811   6.306
24085WAT     H272498   9.917   2.740   6.389
24086WAT      O72499   9.843   1.602   8.036
24086WAT     H172500   9.874   1.600   7.941
24086WAT     H272501   9.779   1.678   8.049
24087WAT      O72502   6.649   8.814   0.285
24087WAT     H172503   6.617   8.796   0.192
24087WAT     H272504   6.637   8.731   0.341
24088WAT      O72505   3.520   7.627   7.044
24088WAT     H172506   3.616   7.605   7.058
24088WAT     H272507   3.486   7.679   7.123
24089WAT      O72508   4.338   5.555   1.408
24089WAT     H172509   4.273   5.620   1.369
24089WAT     H272510   4.352   5.478   1.346
24090WAT      O72511   2.793   7.709   9.837
24090WAT     H172512   2.706   7.686   9.880
24090WAT     H272513   2.795   7.671   9.744
24091WAT      O72514   9.634   4.330   8.282
24091WAT     H172515   9.689   4.377   8.351
24091WAT     H272516   9.605   4.395   8.212
24092WAT      O72517   5.135   3.903   4.923
24092WAT     H172518   5.100   3.871   4.834
24092WAT     H272519   5.208   3.969   4.908
24093WAT      O72520   5.063   0.740   6.516
24093WAT     H172521   5.140   0.799   6.543
24093WAT     H272522   5.022   0.699   6.598
24094WAT      O72523   9.838   7.868   1.519
24094WAT     H172524   9.872   7.775   1.510
24094WAT     H272525   9.839   7.894   1.615
24095WAT      O72526   1.993   2.873   4.565
24095WAT     H172527   1.949   2.894   4.653
24095WAT     H272528   1.949   2.793   4.524
24096WAT      O72529   4.929   6.507   4.784
24096WAT     H172530   4.860   6.574   4.811
24096WAT     H272531   4.886   6.417   4.778
24097WAT      O72532   3.359   5.968   3.729
24097WAT     H172533   3.458   5.980   3.735
24097WAT     H272534   3.314   6.029   3.793
24098WAT      O72535   7.499   3.656   0.229
24098WAT     H172536   7.428   3.604   0.276
24098WAT     H272537   7.588   3.633   0.267
24099WAT      O72538   7.911   3.211   5.754
24099WAT     H172539   8.011   3.216   5.763
24099WAT     H272540   7.869   3.275   5.818
24100WAT      O72541   5.726   5.981   2.555
24100WAT     H172542   5.676   6.060   2.519
24100WAT     H272543   5.808   6.013   2.602
24101WAT      O72544   5.891   9.575   6.118
24101WAT     H172545   5.805   9.595   6.071
24101WAT     H272546   5.966   9.576   6.052
24102WAT      O72547   6.041   3.562   9.462
24102WAT     H172548   5.965   3.510   9.503
24102WAT     H272549   6.052   3.535   9.367
24103WAT      O72550   2.759   9.060   6.135
24103WAT     H172551   2.836   9.004   6.165
24103WAT     H272552   2.788   9.118   6.058
24104WAT      O72553   4.090   9.280   2.382
24104WAT     H172554   4.044   9.287   2.470
24104WAT     H272555   4.144   9.195   2.379
24105WAT      O72556   6.695   4.831   9.875
24105WAT     H172557   6.705   4.897   9.800
24105WAT     H272558   6.600   4.828   9.904
24106WAT      O72559   8.470   7.663   3.743
24106WAT     H172560   8.567   7.685   3.739
24106WAT     H272561   8.456   7.585   3.804
24107WAT      O72562   2.813   1.222   8.738
24107WAT     H172563   2.780   1.314   8.721
24107WAT     H272564   2.743   1.156   8.709
24108WAT      O72565   2.312   7.403   5.720
24108WAT     H172566   2.295   7.342   5.797
24108WAT     H272567   2.229   7.411   5.665
24109WAT      O72568   2.381   8.550   1.642
24109WAT     H172569   2.430   8.636   1.659
24109WAT     H272570   2.325   8.559   1.560
24110WAT      O72571   1.698   8.174   2.000
24110WAT     H172572   1.630   8.247   2.008
24110WAT     H272573   1.652   8.085   2.008
24111WAT      O72574   7.239   1.605   3.483
24111WAT     H172575   7.337   1.623   3.473
24111WAT     H272576   7.187   1.682   3.446
24112WAT      O72577   7.510   6.567   9.362
24112WAT     H172578   7.590   6.584   9.304
24112WAT     H272579   7.511   6.473   9.394
24113WAT      O72580   7.615   4.313   1.439
24113WAT     H172581   7.599   4.218   1.466
24113WAT     H272582   7.631   4.316   1.340
24114WAT      O72583   8.205   9.375   3.455
24114WAT     H172584   8.235   9.430   3.377
24114WAT     H272585   8.281   9.320   3.489
24115WAT      O72586   0.316   9.263   0.403
24115WAT     H172587   0.307   9.195   0.476
24115WAT     H272588   0.275   9.349   0.433
24116WAT      O72589   1.233   2.134   6.361
24116WAT     H172590   1.253   2.043   6.395
24116WAT     H272591   1.167   2.128   6.285
24117WAT      O72592   4.463   4.678   7.831
24117WAT     H172593   4.391   4.609   7.829
24117WAT     H272594   4.471   4.714   7.924
24118WAT      O72595   5.411   2.819   4.340
24118WAT     H172596   5.337   2.760   4.309
24118WAT     H272597   5.468   2.769   4.405
24119WAT      O72598   0.652   2.623   2.738
24119WAT     H172599   0.581   2.693   2.747
24119WAT     H272600   0.739   2.660   2.771
24120WAT      O72601   5.843   1.517   2.236
24120WAT     H172602   5.927   1.502   2.287
24120WAT     H272603   5.777   1.446   2.259
24121WAT      O72604   1.433   0.804   7.547
24121WAT     H172605   1.373   0.884   7.542
24121WAT     H272606   1.524   0.833   7.578
24122WAT      O72607   7.935   2.271   7.491
24122WAT     H172608   7.970   2.185   7.528
24122WAT     H272609   7.920   2.260   7.392
24123WAT      O72610   6.028   9.490   5.405
24123WAT     H172611   5.976   9.407   5.382
24123WAT     H272612   5.964   9.564   5.427
24124WAT      O72613   0.459   4.635   2.905
24124WAT     H172614   0.504   4.582   2.977
24124WAT     H272615   0.515   4.715   2.883
24125WAT      O72616   0.075   3.603   2.423
24125WAT     H172617   0.031   3.677   2.473
24125WAT     H272618   0.062   3.616   2.325
24126WAT      O72619   3.240   1.958   8.445
24126WAT     H172620   3.336   1.967   8.417
24126WAT     H272621   3.236   1.919   8.537
24127WAT      O72622   2.265   3.783   8.170
24127WAT     H172623   2.193   3.838   8.212
24127WAT     H272624   2.224   3.715   8.109
24128WAT      O72625   6.620   3.295   8.179
24128WAT     H172626   6.618   3.244   8.093
24128WAT     H272627   6.567   3.247   8.248
24129WAT      O72628   7.895   3.122   0.588
24129WAT     H172629   7.819   3.078   0.541
24129WAT     H272630   7.873   3.217   0.607
24130WAT      O72631   9.068   5.477   8.870
24130WAT     H172632   9.047   5.546   8.940
24130WAT     H272633   9.113   5.522   8.792
24131WAT      O72634   8.665   9.077   7.003
24131WAT     H172635   8.596   9.005   7.011
24131WAT     H272636   8.625   9.156   6.957
24132WAT      O72637   8.252   9.170   0.401
24132WAT     H172638   8.242   9.078   0.362
24132WAT     H272639   8.174   9.190   0.460
24133WAT      O72640   2.417   9.678   3.597
24133WAT     H172641   2.409   9.775   3.575
24133WAT     H272642   2.446   9.628   3.516
24134WAT      O72643   5.615   8.590   3.144
24134WAT     H172644   5.565   8.676   3.134
24134WAT     H272645   5.618   8.565   3.241
24135WAT      O72646   4.339   4.148   5.271
24135WAT     H172647   4.289   4.193   5.345
24135WAT     H272648   4.287   4.157   5.186
24136WAT      O72649   2.631   1.686   7.763
24136WAT     H172650   2.705   1.745   7.731
24136WAT     H272651   2.551   1.742   7.785
24137WAT      O72652   1.803   3.213   3.309
24137WAT     H172653   1.821   3.196   3.406
24137WAT     H272654   1.708   3.189   3.287
24138WAT      O72655   1.558   5.405   5.164
24138WAT     H172656   1.499   5.346   5.220
24138WAT     H272657   1.647   5.414   5.207
24139WAT      O72658   4.933   4.567   7.475
24139WAT     H172659   4.912   4.664   7.466
24139WAT     H272660   5.018   4.555   7.527
24140WAT      O72661   0.449   5.511   9.357
24140WAT     H172662   0.375   5.576   9.371
24140WAT     H272663   0.439   5.433   9.419
24141WAT      O72664   9.107   9.374   7.861
24141WAT     H172665   9.191   9.399   7.909
24141WAT     H272666   9.063   9.298   7.908
24142WAT      O72667   2.030   3.126   8.096
24142WAT     H172668   2.095   3.113   8.171
24142WAT     H272669   1.950   3.175   8.129
24143WAT      O72670   7.501   6.879   2.911
24143WAT     H172671   7.439   6.931   2.853
24143WAT     H272672   7.496   6.913   3.005
24144WAT      O72673   9.028   0.589   5.927
24144WAT     H172674   9.114   0.612   5.882
24144WAT     H272675   8.951   0.618   5.870
24145WAT      O72676   7.465   7.201   9.892
24145WAT     H172677   7.365   7.200   9.884
24145WAT     H272678   7.504   7.136   9.827
24146WAT      O72679   7.779   6.070   1.095
24146WAT     H172680   7.843   6.097   1.166
24146WAT     H272681   7.747   5.976   1.112
24147WAT      O72682   8.834   3.068   8.050
24147WAT     H172683   8.773   3.093   8.125
24147WAT     H272684   8.806   3.114   7.966
24148WAT      O72685   1.848   1.401   7.354
24148WAT     H172686   1.784   1.373   7.426
24148WAT     H272687   1.936   1.355   7.369
24149WAT      O72688   6.374   2.775   0.445
24149WAT     H172689   6.434   2.758   0.367
24149WAT     H272690   6.278   2.769   0.415
24150WAT      O72691   8.899   6.235   1.810
24150WAT     H172692   8.965   6.257   1.738
24150WAT     H272693   8.807   6.229   1.770
24151WAT      O72694   0.015   7.217   0.146
24151WAT     H172695   0.114   7.222   0.138
24151WAT     H272696  -0.014   7.122   0.150
24152WAT      O72697   7.685   4.902   5.400
24152WAT     H172698   7.710   4.945   5.313
24152WAT     H272699   7.704   4.964   5.475
24153WAT      O72700   8.245   8.956   3.466
24153WAT     H172701   8.325   8.924   3.517
24153WAT     H272702   8.224   8.892   3.392
24154WAT      O72703   0.849   8.914   0.328
24154WAT     H172704   0.802   8.927   0.240
24154WAT     H272705   0.940   8.955   0.323
24155WAT      O72706   9.845   7.547   7.712
24155WAT     H172707   9.828   7.490   7.632
24155WAT     H272708   9.936   7.528   7.748
24156WAT      O72709   6.872   3.212   5.145
24156WAT     H172710   6.910   3.268   5.219
24156WAT     H272711   6.821   3.135   5.184
24157WAT      O72712   9.767   2.702   4.064
24157WAT     H172713   9.765   2.704   4.164
24157WAT     H272714   9.733   2.614   4.032
24158WAT      O72715   4.983   1.282   0.400
24158WAT     H172716   4.901   1.247   0.444
24158WAT     H272717   5.004   1.229   0.318
24159WAT      O72718   0.935   2.675   1.937
24159WAT     H172719   0.901   2.611   2.006
24159WAT     H272720   0.861   2.735   1.907
24160WAT      O72721   2.899   6.809   0.655
24160WAT     H172722   2.831   6.737   0.653
24160WAT     H272723   2.988   6.772   0.627
24161WAT      O72724   8.846   0.247   4.407
24161WAT     H172725   8.903   0.267   4.328
24161WAT     H272726   8.846   0.148   4.425
24162WAT      O72727   5.130   8.419   5.352
24162WAT     H172728   5.210   8.478   5.359
24162WAT     H272729   5.056   8.468   5.306
24163WAT      O72730   6.122   3.755   0.423
24163WAT     H172731   6.159   3.818   0.355
24163WAT     H272732   6.028   3.781   0.445
24164WAT      O72733   3.428   8.510   9.225
24164WAT     H172734   3.503   8.554   9.274
24164WAT     H272735   3.464   8.440   9.163
24165WAT      O72736   0.993   4.138   2.332
24165WAT     H172737   0.950   4.064   2.281
24165WAT     H272738   0.947   4.149   2.420
24166WAT      O72739   4.700   0.908   6.009
24166WAT     H172740   4.637   0.837   5.977
24166WAT     H272741   4.712   0.976   5.937
24167WAT      O72742   0.554   4.519   0.536
24167WAT     H172743   0.557   4.595   0.601
24167WAT     H272744   0.498   4.445   0.574
24168WAT      O72745   0.801   8.045   7.963
24168WAT     H172746   0.855   8.027   8.046
24168WAT     H272747   0.856   8.098   7.899
24169WAT      O72748   4.970   8.367   0.090
24169WAT     H172749   4.894   8.307   0.063
24169WAT     H272750   5.025   8.389   0.010
24170WAT      O72751   1.502   5.619   5.005
24170WAT     H172752   1.508   5.602   4.906
24170WAT     H272753   1.507   5.532   5.053
24171WAT      O72754   6.129   0.016   5.473
24171WAT     H172755   6.115   0.027   5.374
24171WAT     H272756   6.220  -0.024   5.489
24172WAT      O72757   0.077   8.049   2.095
24172WAT     H172758   0.138   8.123   2.123
24172WAT     H272759   0.128   7.983   2.039
24173WAT      O72760   4.279   8.919   9.376
24173WAT     H172761   4.227   8.979   9.437
24173WAT     H272762   4.310   8.971   9.297
24174WAT      O72763   7.783   1.953   0.921
24174WAT     H172764   7.835   2.031   0.886
24174WAT     H272765   7.788   1.877   0.857
24175WAT      O72766   4.248   3.583   3.365
24175WAT     H172767   4.273   3.553   3.457
24175WAT     H272768   4.179   3.521   3.328
24176WAT      O72769   1.661   1.525   3.307
24176WAT     H172770   1.606   1.453   3.350
24176WAT     H272771   1.636   1.614   3.345
24177WAT      O72772   6.209   4.790   5.485
24177WAT     H172773   6.291   4.789   5.428
24177WAT     H272774   6.187   4.697   5.513
24178WAT      O72775   0.039   6.985   3.038
24178WAT     H172776   0.041   6.886   3.019
24178WAT     H272777   0.133   7.018   3.049
24179WAT      O72778   3.189   7.524   0.400
24179WAT     H172779   3.211   7.430   0.427
24179WAT     H272780   3.161   7.526   0.304
24180WAT      O72781   3.436   5.022   2.839
24180WAT     H172782   3.449   4.938   2.892
24180WAT     H272783   3.365   5.008   2.771
24181WAT      O72784   2.771   6.015   6.335
24181WAT     H172785   2.866   6.033   6.361
24181WAT     H272786   2.758   6.035   6.238
24182WAT      O72787   2.155   0.584   3.381
24182WAT     H172788   2.188   0.678   3.380
24182WAT     H272789   2.056   0.583   3.388
24183WAT      O72790   0.607   4.365   6.548
24183WAT     H172791   0.645   4.287   6.499
24183WAT     H272792   0.660   4.447   6.527
24184WAT      O72793   2.826   0.955   3.987
24184WAT     H172794   2.824   0.885   4.059
24184WAT     H272795   2.906   1.013   4.000
24185WAT      O72796   2.731   0.617   0.143
24185WAT     H172797   2.721   0.641   0.046
24185WAT     H272798   2.706   0.696   0.199
24186WAT      O72799   5.838   4.574   2.840
24186WAT     H172800   5.803   4.658   2.882
24186WAT     H272801   5.823   4.578   2.741
24187WAT      O72802   6.766   0.805   6.232
24187WAT     H172803   6.832   0.856   6.177
24187WAT     H272804   6.707   0.869   6.281
24188WAT      O72805   0.147   8.261   6.935
24188WAT     H172806   0.074   8.253   7.003
24188WAT     H272807   0.117   8.218   6.849
24189WAT      O72808   8.274   6.838   7.991
24189WAT     H172809   8.192   6.797   8.031
24189WAT     H272810   8.253   6.870   7.899
24190WAT      O72811   4.607   8.214   4.221
24190WAT     H172812   4.585   8.223   4.123
24190WAT     H272813   4.658   8.295   4.251
24191WAT      O72814   3.728   8.655   4.631
24191WAT     H172815   3.642   8.606   4.618
24191WAT     H272816   3.802   8.605   4.586
24192WAT      O72817   3.822   4.116   3.075
24192WAT     H172818   3.806   4.165   2.990
24192WAT     H272819   3.918   4.085   3.078
24193WAT      O72820   3.278   3.488   7.925
24193WAT     H172821   3.266   3.573   7.874
24193WAT     H272822   3.287   3.509   8.023
24194WAT      O72823   5.753   2.820   8.789
24194WAT     H172824   5.661   2.851   8.812
24194WAT     H272825   5.809   2.898   8.762
24195WAT      O72826   7.728   9.057   5.211
24195WAT     H172827   7.645   9.094   5.253
24195WAT     H272828   7.750   8.969   5.253
24196WAT      O72829   5.140   0.654   9.084
24196WAT     H172830   5.198   0.614   9.154
24196WAT     H272831   5.044   0.644   9.110
24197WAT      O72832   0.384   9.789   9.413
24197WAT     H172833   0.428   9.718   9.358
24197WAT     H272834   0.394   9.767   9.510
24198WAT      O72835   4.845   2.738   0.086
24198WAT     H172836   4.780   2.752   0.011
24198WAT     H272837   4.800   2.686   0.159
24199WAT      O72838   1.710   6.603   3.317
24199WAT     H172839   1.640   6.575   3.382
24199WAT     H272840   1.799   6.567   3.347
24200WAT      O72841   8.475   9.631   0.955
24200WAT     H172842   8.377   9.640   0.975
24200WAT     H272843   8.522   9.716   0.980
24201WAT      O72844   2.246   9.836   7.043
24201WAT     H172845   2.263   9.903   6.972
24201WAT     H272846   2.300   9.859   7.124
24202WAT      O72847   0.585   7.046   1.032
24202WAT     H172848   0.560   7.043   1.129
24202WAT     H272849   0.564   6.958   0.989
24203WAT      O72850   2.703   3.992   3.720
24203WAT     H172851   2.648   4.017   3.800
24203WAT     H272852   2.747   3.904   3.737
24204WAT      O72853   7.346   7.341   5.820
24204WAT     H172854   7.438   7.313   5.846
24204WAT     H272855   7.338   7.341   5.720
24205WAT      O72856   0.339   5.258   2.596
24205WAT     H172857   0.374   5.270   2.503
24205WAT     H272858   0.241   5.276   2.598
24206WAT      O72859   6.445   0.321   4.199
24206WAT     H172860   6.433   0.366   4.288
24206WAT     H272861   6.540   0.291   4.190
24207WAT      O72862   6.705   2.602   4.283
24207WAT     H172863   6.647   2.564   4.210
24207WAT     H272864   6.648   2.646   4.352
24208WAT      O72865   8.773   9.252   4.669
24208WAT     H172866   8.847   9.259   4.735
24208WAT     H272867   8.759   9.156   4.645
24209WAT      O72868   5.242   7.789   4.003
24209WAT     H172869   5.300   7.848   4.059
24209WAT     H272870   5.163   7.758   4.057
24210WAT      O72871   4.638   3.704   8.571
24210WAT     H172872   4.606   3.720   8.478
24210WAT     H272873   4.562   3.676   8.629
24211WAT      O72874   2.500   2.545   1.215
24211WAT     H172875   2.442   2.481   1.265
24211WAT     H272876   2.490   2.530   1.117
24212WAT      O72877   8.167   4.581   3.592
24212WAT     H172878   8.265   4.564   3.581
24212WAT     H272879   8.130   4.520   3.661
24213WAT      O72880   0.381   6.683   0.204
24213WAT     H172881   0.388   6.637   0.115
24213WAT     H272882   0.401   6.619   0.277
24214WAT      O72883   1.645   0.363   0.057
24214WAT     H172884   1.656   0.285  -0.005
24214WAT     H272885   1.694   0.345   0.142
24215WAT      O72886   2.492   4.347   9.383
24215WAT     H172887   2.418   4.397   9.337
24215WAT     H272888   2.546   4.411   9.438
24216WAT      O72889   8.213   4.910   6.473
24216WAT     H172890   8.167   4.822   6.464
24216WAT     H272891   8.274   4.907   6.552
24217WAT      O72892   7.073   7.058   4.001
24217WAT     H172893   6.989   7.112   3.993
24217WAT     H272894   7.091   7.039   4.097
24218WAT      O72895   9.644   9.265   4.036
24218WAT     H172896   9.606   9.178   4.006
24218WAT     H272897   9.655   9.264   4.136
24219WAT      O72898   4.647   9.789   2.492
24219WAT     H172899   4.617   9.843   2.413
24219WAT     H272900   4.729   9.830   2.531
24220WAT      O72901   1.990   4.432   4.775
24220WAT     H172902   1.936   4.473   4.702
24220WAT     H272903   1.934   4.365   4.824
24221WAT      O72904   2.991   1.998   1.305
24221WAT     H172905   2.908   2.051   1.325
24221WAT     H272906   3.071   2.051   1.335
24222WAT      O72907   8.884   5.473   7.128
24222WAT     H172908   8.869   5.429   7.039
24222WAT     H272909   8.848   5.414   7.201
24223WAT      O72910   0.902   1.072   7.722
24223WAT     H172911   0.815   1.121   7.712
24223WAT     H272912   0.946   1.064   7.632
24224WAT      O72913   7.872   7.937   2.688
24224WAT     H172914   7.943   7.896   2.631
24224WAT     H272915   7.782   7.906   2.656
24225WAT      O72916   8.138   7.514   7.669
24225WAT     H172917   8.164   7.560   7.584
24225WAT     H272918   8.061   7.563   7.710
24226WAT      O72919   1.497   7.226   5.396
24226WAT     H172920   1.572   7.247   5.459
24226WAT     H272921   1.450   7.144   5.428
24227WAT      O72922   2.604   2.497   4.864
24227WAT     H172923   2.635   2.522   4.956
24227WAT     H272924   2.657   2.548   4.796
24228WAT      O72925   7.635   7.157   4.360
24228WAT     H172926   7.606   7.061   4.366
24228WAT     H272927   7.666   7.176   4.266
24229WAT      O72928   9.713   7.753   6.610
24229WAT     H172929   9.806   7.779   6.582
24229WAT     H272930   9.647   7.813   6.565
24230WAT      O72931   4.386   6.892   1.560
24230WAT     H172932   4.404   6.835   1.640
24230WAT     H272933   4.445   6.863   1.484
24231WAT      O72934   2.133   3.349   9.577
24231WAT     H172935   2.210   3.332   9.516
24231WAT     H272936   2.105   3.445   9.569
24232WAT      O72937   2.314   0.453   8.979
24232WAT     H172938   2.380   0.426   9.050
24232WAT     H272939   2.343   0.540   8.938
24233WAT      O72940   6.641   6.351   8.937
24233WAT     H172941   6.584   6.374   9.016
24233WAT     H272942   6.672   6.256   8.945
24234WAT      O72943   0.620   5.181   9.021
24234WAT     H172944   0.555   5.244   9.064
24234WAT     H272945   0.572   5.100   8.987
24235WAT      O72946   6.589   9.751   5.281
24235WAT     H172947   6.609   9.765   5.184
24235WAT     H272948   6.557   9.657   5.295
24236WAT      O72949   5.952   3.531   4.428
24236WAT     H172950   5.868   3.570   4.465
24236WAT     H272951   6.023   3.601   4.425
24237WAT      O72952   8.047   9.039   0.921
24237WAT     H172953   8.105   9.015   0.843
24237WAT     H272954   8.042   8.962   0.984
24238WAT      O72955   8.254   1.370   3.062
24238WAT     H172956   8.172   1.423   3.040
24238WAT     H272957   8.255   1.350   3.160
24239WAT      O72958   1.137   2.010   3.865
24239WAT     H172959   1.171   2.006   3.958
24239WAT     H272960   1.038   1.993   3.864
24240WAT      O72961   5.146   3.888   7.219
24240WAT     H172962   5.079   3.928   7.156
24240WAT     H272963   5.187   3.808   7.177
24241WAT      O72964   0.818   5.007   4.053
24241WAT     H172965   0.740   4.945   4.055
24241WAT     H272966   0.903   4.954   4.051
24242WAT      O72967   5.993   3.277   4.544
24242WAT     H172968   6.008   3.369   4.510
24242WAT     H272969   5.904   3.273   4.590
24243WAT      O72970   5.933   0.979   2.341
24243WAT     H172971   5.875   0.950   2.266
24243WAT     H272972   6.009   1.033   2.306
24244WAT      O72973   2.216   0.564   1.071
24244WAT     H172974   2.192   0.561   1.168
24244WAT     H272975   2.141   0.526   1.017
24245WAT      O72976   6.633   1.735   1.403
24245WAT     H172977   6.654   1.729   1.306
24245WAT     H272978   6.658   1.825   1.438
24246WAT      O72979   8.120   8.009   2.167
24246WAT     H172980   8.071   7.942   2.223
24246WAT     H272981   8.206   8.033   2.211
24247WAT      O72982   4.679   8.733   6.992
24247WAT     H172983   4.656   8.746   6.895
24247WAT     H272984   4.677   8.636   7.014
24248WAT      O72985   4.618   1.410   3.402
24248WAT     H172986   4.601   1.493   3.456
24248WAT     H272987   4.668   1.434   3.319
24249WAT      O72988   5.039   1.995   7.338
24249WAT     H172989   4.981   1.987   7.257
24249WAT     H272990   5.077   1.905   7.362
24250WAT      O72991   5.309   6.460   1.963
24250WAT     H172992   5.299   6.507   2.051
24250WAT     H272993   5.269   6.369   1.970
24251WAT      O72994   9.521   2.844   4.210
24251WAT     H172995   9.539   2.774   4.140
24251WAT     H272996   9.494   2.929   4.165
24252WAT      O72997   0.141   0.847   5.884
24252WAT     H172998   0.059   0.881   5.931
24252WAT     H272999   0.222   0.893   5.920
24253WAT      O73000   5.677   7.249   2.777
24253WAT     H173001   5.608   7.258   2.849
24253WAT     H273002   5.691   7.337   2.732
24254WAT      O73003   5.718   7.451   3.742
24254WAT     H173004   5.636   7.504   3.761
24254WAT     H273005   5.692   7.360   3.709
24255WAT      O73006   2.048   3.413   9.196
24255WAT     H173007   2.014   3.358   9.273
24255WAT     H273008   2.017   3.507   9.205
24256WAT      O73009   2.233   7.042   9.180
24256WAT     H173010   2.230   6.982   9.260
24256WAT     H273011   2.173   7.006   9.109
24257WAT      O73012   6.396   3.363   4.165
24257WAT     H173013   6.322   3.421   4.201
24257WAT     H273014   6.457   3.419   4.109
24258WAT      O73015   2.504   7.566   5.840
24258WAT     H173016   2.597   7.553   5.805
24258WAT     H273017   2.440   7.511   5.787
24259WAT      O73018   7.092   5.631   2.789
24259WAT     H173019   7.014   5.592   2.738
24259WAT     H273020   7.174   5.578   2.769
24260WAT      O73021   5.618   8.353   6.991
24260WAT     H173022   5.621   8.453   6.992
24260WAT     H273023   5.530   8.322   6.956
24261WAT      O73024   4.454   2.531   2.615
24261WAT     H173025   4.548   2.533   2.581
24261WAT     H273026   4.436   2.442   2.658
24262WAT      O73027   5.549   0.972   6.960
24262WAT     H173028   5.546   0.882   6.916
24262WAT     H273029   5.611   1.032   6.910
24263WAT      O73030   4.162   4.802   9.517
24263WAT     H173031   4.214   4.720   9.542
24263WAT     H273032   4.185   4.829   9.423
24264WAT      O73033   1.938   5.336   7.930
24264WAT     H173034   2.012   5.302   7.988
24264WAT     H273035   1.973   5.406   7.868
24265WAT      O73036   7.353   5.774   2.316
24265WAT     H173037   7.323   5.868   2.301
24265WAT     H273038   7.300   5.712   2.258
24266WAT      O73039   1.476   5.165   8.603
24266WAT     H173040   1.481   5.174   8.703
24266WAT     H273041   1.558   5.118   8.570
24267WAT      O73042   7.081   2.831   7.905
24267WAT     H173043   7.010   2.876   7.959
24267WAT     H273044   7.171   2.863   7.935
24268WAT      O73045   5.358   5.973   8.165
24268WAT     H173046   5.352   6.029   8.082
24268WAT     H273047   5.452   5.943   8.178
24269WAT      O73048   6.603   4.957   3.459
24269WAT     H173049   6.590   4.926   3.553
24269WAT     H273050   6.612   5.056   3.458
24270WAT      O73051   9.387   8.981   3.461
24270WAT     H173052   9.413   9.077   3.476
24270WAT     H273053   9.376   8.964   3.364
24271WAT      O73054   0.911   1.653   1.958
24271WAT     H173055   0.821   1.622   1.988
24271WAT     H273056   0.905   1.682   1.863
24272WAT      O73057   0.412   3.909   6.321
24272WAT     H173058   0.367   3.997   6.308
24272WAT     H273059   0.367   3.858   6.394
24273WAT      O73060   6.728   8.110   1.460
24273WAT     H173061   6.823   8.097   1.433
24273WAT     H273062   6.688   8.022   1.487
24274WAT      O73063   9.209   8.511   5.226
24274WAT     H173064   9.307   8.498   5.238
24274WAT     H273065   9.162   8.423   5.234
24275WAT      O73066   9.559   4.618   1.303
24275WAT     H173067   9.489   4.593   1.237
24275WAT     H273068   9.542   4.711   1.337
24276WAT      O73069   2.013   4.275   5.442
24276WAT     H173070   1.995   4.290   5.344
24276WAT     H273071   2.111   4.274   5.457
24277WAT      O73072   1.886   0.811   2.848
24277WAT     H173073   1.798   0.796   2.891
24277WAT     H273074   1.944   0.731   2.861
24278WAT      O73075   0.964   6.386   9.622
24278WAT     H173076   1.021   6.453   9.670
24278WAT     H273077   1.021   6.330   9.562
24279WAT      O73078   2.187   5.838   2.431
24279WAT     H173079   2.260   5.778   2.464
24279WAT     H273080   2.227   5.924   2.399
24280WAT      O73081   6.376   8.506   4.260
24280WAT     H173082   6.414   8.574   4.323
24280WAT     H273083   6.354   8.551   4.173
24281WAT      O73084   3.353   8.943   2.799
24281WAT     H173085   3.423   8.983   2.857
24281WAT     H273086   3.262   8.959   2.839
24282WAT      O73087   6.800   8.472   5.973
24282WAT     H173088   6.702   8.453   5.983
24282WAT     H273089   6.825   8.548   6.033
24283WAT      O73090   0.807   3.689   7.121
24283WAT     H173091   0.843   3.734   7.039
24283WAT     H273092   0.855   3.602   7.135
24284WAT      O73093   2.155   3.727   7.085
24284WAT     H173094   2.062   3.692   7.084
24284WAT     H273095   2.177   3.765   6.995
24285WAT      O73096   1.080   2.831   4.744
24285WAT     H173097   1.096   2.881   4.659
24285WAT     H273098   1.128   2.743   4.741
24286WAT      O73099   3.097   4.746   3.369
24286WAT     H173100   3.061   4.834   3.401
24286WAT     H273101   3.032   4.707   3.303
24287WAT      O73102   9.535   7.190   6.058
24287WAT     H173103   9.611   7.130   6.032
24287WAT     H273104   9.515   7.178   6.156
24288WAT      O73105   6.533   5.338   4.723
24288WAT     H173106   6.627   5.320   4.691
24288WAT     H273107   6.521   5.298   4.813
24289WAT      O73108   8.339   1.280   5.468
24289WAT     H173109   8.378   1.188   5.472
24289WAT     H273110   8.373   1.334   5.545
24290WAT      O73111   4.888   9.572   8.143
24290WAT     H173112   4.823   9.531   8.208
24290WAT     H273113   4.955   9.626   8.194
24291WAT      O73114   7.140   0.951   1.432
24291WAT     H173115   7.225   0.981   1.474
24291WAT     H273116   7.095   1.029   1.388
24292WAT      O73117   0.306   3.073   8.488
24292WAT     H173118   0.271   3.004   8.551
24292WAT     H273119   0.286   3.165   8.524
24293WAT      O73120   9.578   1.567   5.701
24293WAT     H173121   9.573   1.662   5.671
24293WAT     H273122   9.492   1.540   5.743
24294WAT      O73123   0.630   2.269   2.442
24294WAT     H173124   0.602   2.365   2.450
24294WAT     H273125   0.702   2.261   2.373
24295WAT      O73126   5.359   5.531   5.468
24295WAT     H173127   5.447   5.571   5.490
24295WAT     H273128   5.320   5.578   5.388
24296WAT      O73129   4.695   0.394   3.445
24296WAT     H173130   4.697   0.316   3.383
24296WAT     H273131   4.786   0.437   3.448
24297WAT      O73132   4.720   0.784   8.955
24297WAT     H173133   4.722   0.771   8.856
24297WAT     H273134   4.677   0.871   8.977
24298WAT      O73135   8.198   8.309   9.444
24298WAT     H173136   8.287   8.267   9.426
24298WAT     H273137   8.201   8.359   9.530
24299WAT      O73138   6.903   4.731   5.984
24299WAT     H173139   6.811   4.697   6.001
24299WAT     H273140   6.900   4.827   5.959
24300WAT      O73141   3.844   7.768   6.712
24300WAT     H173142   3.785   7.716   6.649
24300WAT     H273143   3.871   7.709   6.788
24301WAT      O73144   4.336   6.851   5.673
24301WAT     H173145   4.344   6.774   5.610
24301WAT     H273146   4.419   6.907   5.669
24302WAT      O73147   2.896   1.189   5.074
24302WAT     H173148   2.807   1.221   5.107
24302WAT     H273149   2.927   1.113   5.131
24303WAT      O73150   2.486   3.029   9.642
24303WAT     H173151   2.514   2.943   9.684
24303WAT     H273152   2.419   3.075   9.701
24304WAT      O73153   3.740   7.011   1.494
24304WAT     H173154   3.690   6.981   1.575
24304WAT     H273155   3.826   7.054   1.523
24305WAT      O73156   1.877   4.766   4.981
24305WAT     H173157   1.836   4.816   4.904
24305WAT     H273158   1.961   4.721   4.951
24306WAT      O73159   1.098   8.542   8.772
24306WAT     H173160   1.031   8.577   8.837
24306WAT     H273161   1.170   8.493   8.821
24307WAT      O73162   0.126   4.411   0.475
24307WAT     H173163   0.177   4.333   0.511
24307WAT     H273164   0.058   4.440   0.542
24308WAT      O73165   8.692   1.757   5.784
24308WAT     H173166   8.693   1.846   5.830
24308WAT     H273167   8.776   1.747   5.731
24309WAT      O73168   7.340   5.780   0.525
24309WAT     H173169   7.276   5.801   0.599
24309WAT     H273170   7.322   5.840   0.447
24310WAT      O73171   4.949   4.028   1.160
24310WAT     H173172   4.886   4.020   1.237
24310WAT     H273173   4.988   4.120   1.158
24311WAT      O73174   8.632   5.561   1.459
24311WAT     H173175   8.535   5.540   1.448
24311WAT     H273176   8.687   5.491   1.415
24312WAT      O73177   8.796   5.815   8.623
24312WAT     H173178   8.702   5.827   8.654
24312WAT     H273179   8.858   5.865   8.683
24313WAT      O73180   8.869   0.780   9.558
24313WAT     H173181   8.840   0.750   9.649
24313WAT     H273182   8.960   0.821   9.564
24314WAT      O73183   5.217   9.203   0.385
24314WAT     H173184   5.267   9.283   0.418
24314WAT     H273185   5.222   9.200   0.285
24315WAT      O73186   2.764   1.731   4.014
24315WAT     H173187   2.842   1.704   3.956
24315WAT     H273188   2.798   1.760   4.103
24316WAT      O73189   3.905   0.201   4.516
24316WAT     H173190   3.938   0.112   4.549
24316WAT     H273191   3.869   0.190   4.423
24317WAT      O73192   0.535   6.184   5.858
24317WAT     H173193   0.591   6.141   5.928
24317WAT     H273194   0.540   6.131   5.773
24318WAT      O73195   5.224   5.454   0.483
24318WAT     H173196   5.182   5.442   0.393
24318WAT     H273197   5.192   5.539   0.524
24319WAT      O73198   6.412   0.834   6.661
24319WAT     H173199   6.377   0.811   6.570
24319WAT     H273200   6.512   0.827   6.660
24320WAT      O73201   8.439   3.444   1.525
24320WAT     H173202   8.405   3.357   1.488
24320WAT     H273203   8.534   3.433   1.554
24321WAT      O73204   3.224   7.513   8.627
24321WAT     H173205   3.300   7.490   8.688
24321WAT     H273206   3.145   7.456   8.650
24322WAT      O73207   6.183   8.476   7.022
24322WAT     H173208   6.124   8.446   7.097
24322WAT     H273209   6.258   8.531   7.060
24323WAT      O73210   2.329   5.160   6.056
24323WAT     H173211   2.391   5.115   5.993
24323WAT     H273212   2.258   5.208   6.005
24324WAT      O73213   1.919   9.681   1.554
24324WAT     H173214   1.927   9.613   1.626
24324WAT     H273215   1.964   9.766   1.583
24325WAT      O73216   1.973   6.046   0.717
24325WAT     H173217   1.977   6.005   0.626
24325WAT     H273218   1.943   6.141   0.710
24326WAT      O73219   3.790   0.710   0.807
24326WAT     H173220   3.732   0.646   0.858
24326WAT     H273221   3.849   0.759   0.871
24327WAT      O73222   8.751   6.942   0.266
24327WAT     H173223   8.824   6.999   0.229
24327WAT     H273224   8.787   6.884   0.340
24328WAT      O73225   3.306   2.769   0.642
24328WAT     H173226   3.287   2.734   0.551
24328WAT     H273227   3.281   2.700   0.710
24329WAT      O73228   1.187   8.134   3.985
24329WAT     H173229   1.218   8.066   4.051
24329WAT     H273230   1.222   8.224   4.011
24330WAT      O73231   6.025   7.331   1.884
24330WAT     H173232   6.000   7.342   1.787
24330WAT     H273233   5.983   7.247   1.920
24331WAT      O73234   7.252   4.467   7.370
24331WAT     H173235   7.232   4.373   7.343
24331WAT     H273236   7.182   4.528   7.334
24332WAT      O73237   9.802   7.822   0.630
24332WAT     H173238   9.723   7.874   0.596
24332WAT     H273239   9.794   7.727   0.601
24333WAT      O73240   1.287   1.845   9.111
24333WAT     H173241   1.347   1.913   9.069
24333WAT     H273242   1.260   1.778   9.042
24334WAT      O73243   5.774   6.165   5.930
24334WAT     H173244   5.798   6.210   6.017
24334WAT     H273245   5.847   6.182   5.863
24335WAT      O73246   4.578   8.859   1.098
24335WAT     H173247   4.654   8.920   1.121
24335WAT     H273248   4.491   8.906   1.113
24336WAT      O73249   1.788   6.446   7.630
24336WAT     H173250   1.827   6.507   7.699
24336WAT     H273251   1.701   6.410   7.662
24337WAT      O73252   4.004   6.415   4.291
24337WAT     H173253   3.984   6.318   4.307
24337WAT     H273254   3.936   6.471   4.339
24338WAT      O73255   5.194   8.640   8.498
24338WAT     H173256   5.201   8.627   8.597
24338WAT     H273257   5.204   8.737   8.477
24339WAT      O73258   3.574   0.033   2.263
24339WAT     H173259   3.604   0.124   2.291
24339WAT     H273260   3.504   0.042   2.192
24340WAT      O73261   5.142   1.707   6.445
24340WAT     H173262   5.128   1.730   6.542
24340WAT     H273263   5.182   1.616   6.439
24341WAT      O73264   6.682   6.972   4.639
24341WAT     H173265   6.628   6.898   4.678
24341WAT     H273266   6.734   7.017   4.712
24342WAT      O73267   1.131   7.032   9.225
24342WAT     H173268   1.051   7.080   9.189
24342WAT     H273269   1.123   6.934   9.204
24343WAT      O73270   8.004   6.444   0.642
24343WAT     H173271   8.068   6.367   0.643
24343WAT     H273272   7.993   6.479   0.735
24344WAT      O73273   0.121   4.887   8.585
24344WAT     H173274   0.095   4.800   8.542
24344WAT     H273275   0.217   4.883   8.613
24345WAT      O73276   2.673   1.538   5.023
24345WAT     H173277   2.590   1.594   5.023
24345WAT     H273278   2.752   1.597   5.008
24346WAT      O73279   5.183   2.255   9.814
24346WAT     H173280   5.198   2.200   9.896
24346WAT     H273281   5.163   2.195   9.736
24347WAT      O73282   6.328   5.897   2.015
24347WAT     H173283   6.389   5.854   1.948
24347WAT     H273284   6.339   5.853   2.104
24348WAT      O73285   1.291   5.239   4.979
24348WAT     H173286   1.315   5.254   4.883
24348WAT     H273287   1.373   5.249   5.036
24349WAT      O73288   3.090   5.743   0.732
24349WAT     H173289   3.043   5.662   0.697
24349WAT     H273290   3.048   5.771   0.819
24350WAT      O73291   0.165   3.185   3.764
24350WAT     H173292   0.072   3.190   3.800
24350WAT     H273293   0.175   3.247   3.687
24351WAT      O73294   1.373   0.785   1.591
24351WAT     H173295   1.290   0.823   1.630
24351WAT     H273296   1.365   0.783   1.491
24352WAT      O73297   2.433   9.699   8.894
24352WAT     H173298   2.483   9.784   8.911
24352WAT     H273299   2.341   9.721   8.861
24353WAT      O73300   7.321   7.924   2.745
24353WAT     H173301   7.349   8.019   2.731
24353WAT     H273302   7.271   7.917   2.832
24354WAT      O73303   2.198   0.628   6.241
24354WAT     H173304   2.135   0.551   6.252
24354WAT     H273305   2.212   0.673   6.329
24355WAT      O73306   4.478   7.028   2.951
24355WAT     H173307   4.419   6.985   3.019
24355WAT     H273308   4.509   6.959   2.885
24356WAT      O73309   8.242   0.871   6.914
24356WAT     H173310   8.252   0.960   6.958
24356WAT     H273311   8.325   0.817   6.928
24357WAT      O73312   1.405   0.862   3.559
24357WAT     H173313   1.434   0.849   3.654
24357WAT     H273314   1.480   0.839   3.498
24358WAT      O73315   4.771   1.458   4.431
24358WAT     H173316   4.783   1.364   4.463
24358WAT     H273317   4.823   1.520   4.490
24359WAT      O73318   9.337   4.721   2.580
24359WAT     H173319   9.329   4.811   2.537
24359WAT     H273320   9.248   4.675   2.578
24360WAT      O73321   3.358   5.811   0.718
24360WAT     H173322   3.261   5.786   0.717
24360WAT     H273323   3.410   5.746   0.662
24361WAT      O73324   8.643   7.199   7.368
24361WAT     H173325   8.672   7.220   7.275
24361WAT     H273326   8.637   7.283   7.421
24362WAT      O73327   5.418   3.099   3.006
24362WAT     H173328   5.372   3.157   3.073
24362WAT     H273329   5.469   3.156   2.942
24363WAT      O73330   2.232   5.705   2.849
24363WAT     H173331   2.166   5.771   2.814
24363WAT     H273332   2.292   5.675   2.775
24364WAT      O73333   1.813   7.504   1.607
24364WAT     H173334   1.799   7.407   1.589
24364WAT     H273335   1.886   7.539   1.548
24365WAT      O73336   6.668   8.976   2.273
24365WAT     H173337   6.719   8.983   2.187
24365WAT     H273338   6.687   8.888   2.316
24366WAT      O73339   1.188   6.510   9.351
24366WAT     H173340   1.282   6.510   9.316
24366WAT     H273341   1.171   6.595   9.401
24367WAT      O73342   7.124   0.374   8.923
24367WAT     H173343   7.213   0.410   8.952
24367WAT     H273344   7.133   0.277   8.904
24368WAT      O73345   6.553   7.974   9.635
24368WAT     H173346   6.637   8.010   9.674
24368WAT     H273347   6.538   8.013   9.544
24369WAT      O73348   8.746   2.748   1.684
24369WAT     H173349   8.752   2.755   1.784
24369WAT     H273350   8.652   2.725   1.658
24370WAT      O73351   9.599   2.171   0.611
24370WAT     H173352   9.630   2.128   0.527
24370WAT     H273353   9.568   2.102   0.676
24371WAT      O73354   2.888   2.800   2.191
24371WAT     H173355   2.960   2.852   2.144
24371WAT     H273356   2.820   2.863   2.228
24372WAT      O73357   5.822   4.106   2.132
24372WAT     H173358   5.817   4.006   2.136
24372WAT     H273359   5.876   4.133   2.052
24373WAT      O73360   1.823   8.078   0.812
24373WAT     H173361   1.837   8.158   0.870
24373WAT     H273362   1.729   8.044   0.824
24374WAT      O73363   7.613   7.538   2.382
24374WAT     H173364   7.544   7.515   2.452
24374WAT     H273365   7.667   7.457   2.361
24375WAT      O73366   3.546   9.286   0.367
24375WAT     H173367   3.452   9.317   0.382
24375WAT     H273368   3.584   9.334   0.288
24376WAT      O73369   7.249   9.675   5.290
24376WAT     H173370   7.332   9.620   5.283
24376WAT     H273371   7.230   9.695   5.387
24377WAT      O73372   0.938   2.436   3.638
24377WAT     H173373   0.946   2.344   3.600
24377WAT     H273374   0.868   2.487   3.587
24378WAT      O73375   9.228   4.577   5.317
24378WAT     H173376   9.306   4.566   5.255
24378WAT     H273377   9.236   4.513   5.393
24379WAT      O73378   3.285   8.275   9.484
24379WAT     H173379   3.261   8.181   9.510
24379WAT     H273380   3.214   8.312   9.424
24380WAT      O73381   2.286   7.620   6.847
24380WAT     H173382   2.266   7.544   6.909
24380WAT     H273383   2.248   7.601   6.757
24381WAT      O73384   9.517   3.556   3.502
24381WAT     H173385   9.580   3.483   3.477
24381WAT     H273386   9.559   3.615   3.571
24382WAT      O73387   8.419   1.408   6.368
24382WAT     H173388   8.393   1.321   6.327
24382WAT     H273389   8.512   1.402   6.404
24383WAT      O73390   6.120   3.820   8.753
24383WAT     H173391   6.203   3.871   8.776
24383WAT     H273392   6.139   3.722   8.757
24384WAT      O73393   0.365   3.020   0.581
24384WAT     H173394   0.339   3.107   0.621
24384WAT     H273395   0.329   3.014   0.488
24385WAT      O73396   7.876   7.878   1.729
24385WAT     H173397   7.956   7.927   1.764
24385WAT     H273398   7.798   7.895   1.788
24386WAT      O73399   5.069   2.870   9.350
24386WAT     H173400   5.035   2.868   9.256
24386WAT     H273401   5.152   2.815   9.357
24387WAT      O73402   8.151   0.620   0.231
24387WAT     H173403   8.145   0.524   0.206
24387WAT     H273404   8.236   0.659   0.195
24388WAT      O73405   8.462   2.290   4.312
24388WAT     H173406   8.376   2.318   4.354
24388WAT     H273407   8.535   2.288   4.380
24389WAT      O73408   8.792   1.987   4.009
24389WAT     H173409   8.705   1.954   3.973
24389WAT     H273410   8.792   2.087   4.009
24390WAT      O73411   7.842   6.988   8.035
24390WAT     H173412   7.872   6.893   8.047
24390WAT     H273413   7.826   7.029   8.125
24391WAT      O73414   4.421   8.830   7.297
24391WAT     H173415   4.488   8.904   7.307
24391WAT     H273416   4.335   8.857   7.340
24392WAT      O73417   7.853   3.532   8.916
24392WAT     H173418   7.786   3.559   8.846
24392WAT     H273419   7.945   3.532   8.876
24393WAT      O73420   0.119   7.122   1.428
24393WAT     H173421   0.149   7.146   1.520
24393WAT     H273422   0.161   7.036   1.400
24394WAT      O73423   7.441   2.292   8.099
24394WAT     H173424   7.412   2.385   8.081
24394WAT     H273425   7.518   2.269   8.039
24395WAT      O73426   6.726   3.889   0.700
24395WAT     H173427   6.661   3.837   0.756
24395WAT     H273428   6.683   3.913   0.613
24396WAT      O73429   3.459   2.826   4.780
24396WAT     H173430   3.425   2.881   4.705
24396WAT     H273431   3.455   2.879   4.865
24397WAT      O73432   9.676   3.003   3.496
24397WAT     H173433   9.761   3.047   3.523
24397WAT     H273434   9.655   2.928   3.559
24398WAT      O73435   2.769   5.970   7.138
24398WAT     H173436   2.823   6.009   7.213
24398WAT     H273437   2.800   5.876   7.120
24399WAT      O73438   4.894   5.827   1.513
24399WAT     H173439   4.946   5.875   1.442
24399WAT     H273440   4.865   5.737   1.478
24400WAT      O73441   2.068   6.489   7.233
24400WAT     H173442   2.166   6.469   7.225
24400WAT     H273443   2.021   6.409   7.271
24401WAT      O73444   2.558   2.342   3.230
24401WAT     H173445   2.649   2.322   3.267
24401WAT     H273446   2.506   2.257   3.222
24402WAT      O73447   5.167   9.417   2.329
24402WAT     H173448   5.151   9.493   2.266
24402WAT     H273449   5.082   9.366   2.342
24403WAT      O73450   0.314   8.827   0.338
24403WAT     H173451   0.404   8.799   0.307
24403WAT     H273452   0.295   8.920   0.305
24404WAT      O73453   6.831   0.732   3.711
24404WAT     H173454   6.732   0.744   3.709
24404WAT     H273455   6.869   0.781   3.789
24405WAT      O73456   9.090   1.894   1.450
24405WAT     H173457   9.125   1.877   1.358
24405WAT     H273458   9.041   1.981   1.452
24406WAT      O73459   3.581   2.716   1.083
24406WAT     H173460   3.640   2.796   1.082
24406WAT     H273461   3.592   2.667   1.170
24407WAT      O73462   2.304   8.443   3.339
24407WAT     H173463   2.347   8.353   3.352
24407WAT     H273464   2.353   8.511   3.394
24408WAT      O73465   3.172   9.552   9.888
24408WAT     H173466   3.226   9.541   9.805
24408WAT     H273467   3.137   9.646   9.892
24409WAT      O73468   9.604   4.575   6.878
24409WAT     H173469   9.618   4.657   6.933
24409WAT     H273470   9.582   4.601   6.784
24410WAT      O73471   0.980   5.385   2.221
24410WAT     H173472   0.926   5.455   2.268
24410WAT     H273473   1.014   5.422   2.135
24411WAT      O73474   0.232   9.499   0.517
24411WAT     H173475   0.182   9.535   0.439
24411WAT     H273476   0.278   9.574   0.565
24412WAT      O73477   7.817   7.739   9.627
24412WAT     H173478   7.833   7.679   9.548
24412WAT     H273479   7.734   7.792   9.612
24413WAT      O73480   0.239   9.394   2.461
24413WAT     H173481   0.269   9.364   2.371
24413WAT     H273482   0.212   9.313   2.515
24414WAT      O73483   1.178   0.059   1.614
24414WAT     H173484   1.204   0.140   1.562
24414WAT     H273485   1.128   0.087   1.696
24415WAT      O73486   2.302   6.809   6.572
24415WAT     H173487   2.205   6.812   6.596
24415WAT     H273488   2.315   6.750   6.493
24416WAT      O73489   9.827   4.499   0.634
24416WAT     H173490   9.794   4.580   0.584
24416WAT     H273491   9.751   4.438   0.652
24417WAT      O73492   8.892   1.576   6.681
24417WAT     H173493   8.799   1.578   6.718
24417WAT     H273494   8.892   1.523   6.596
24418WAT      O73495   5.683   3.021   9.349
24418WAT     H173496   5.714   2.931   9.319
24418WAT     H273497   5.591   3.039   9.312
24419WAT      O73498   3.362   5.363   5.040
24419WAT     H173499   3.325   5.416   5.116
24419WAT     H273500   3.450   5.400   5.013
24420WAT      O73501   0.690   8.172   5.065
24420WAT     H173502   0.727   8.231   5.137
24420WAT     H273503   0.755   8.098   5.046
24421WAT      O73504   6.574   1.008   0.384
24421WAT     H173505   6.635   0.955   0.324
24421WAT     H273506   6.628   1.058   0.451
24422WAT      O73507   9.367   6.907   6.311
24422WAT     H173508   9.445   6.969   6.306
24422WAT     H273509   9.282   6.959   6.307
24423WAT      O73510   6.796   2.544   7.633
24423WAT     H173511   6.726   2.614   7.648
24423WAT     H273512   6.874   2.561   7.693
24424WAT      O73513   8.774   1.339   8.769
24424WAT     H173514   8.857   1.326   8.714
24424WAT     H273515   8.769   1.434   8.799
24425WAT      O73516   0.826   3.087   0.795
24425WAT     H173517   0.792   3.021   0.861
24425WAT     H273518   0.776   3.076   0.708
24426WAT      O73519   4.076   2.362   0.912
24426WAT     H173520   4.101   2.316   0.997
24426WAT     H273521   4.000   2.314   0.869
24427WAT      O73522   9.033   4.147   6.813
24427WAT     H173523   9.071   4.070   6.761
24427WAT     H273524   9.108   4.204   6.847
24428WAT      O73525   1.373   3.752   7.405
24428WAT     H173526   1.385   3.766   7.306
24428WAT     H273527   1.439   3.685   7.437
24429WAT      O73528   7.486   1.978   6.332
24429WAT     H173529   7.436   1.937   6.409
24429WAT     H273530   7.488   2.077   6.342
24430WAT      O73531   6.008   5.951   8.946
24430WAT     H173532   6.045   6.005   8.870
24430WAT     H273533   5.930   5.898   8.915
24431WAT      O73534   1.224   5.470   6.796
24431WAT     H173535   1.130   5.496   6.816
24431WAT     H273536   1.235   5.372   6.806
24432WAT      O73537   6.535   7.249   4.741
24432WAT     H173538   6.627   7.258   4.701
24432WAT     H273539   6.467   7.247   4.668
24433WAT      O73540   5.958   7.471   3.270
24433WAT     H173541   6.001   7.548   3.224
24433WAT     H273542   5.911   7.414   3.202
24434WAT      O73543   4.539   3.379   4.647
24434WAT     H173544   4.470   3.444   4.615
24434WAT     H273545   4.606   3.363   4.574
24435WAT      O73546   5.667   1.700   7.654
24435WAT     H173547   5.708   1.743   7.573
24435WAT     H273548   5.621   1.615   7.627
24436WAT      O73549   8.372   9.563   0.441
24436WAT     H173550   8.382   9.580   0.343
24436WAT     H273551   8.428   9.484   0.467
24437WAT      O73552   7.387   0.442   9.015
24437WAT     H173553   7.395   0.492   9.101
24437WAT     H273554   7.477   0.435   8.971
24438WAT      O73555   3.443   8.365   7.479
24438WAT     H173556   3.470   8.314   7.397
24438WAT     H273557   3.355   8.332   7.511
24439WAT      O73558   4.807   7.987   2.786
24439WAT     H173559   4.760   7.909   2.826
24439WAT     H273560   4.816   8.059   2.854
24440WAT      O73561   6.390   8.737   9.187
24440WAT     H173562   6.306   8.764   9.234
24440WAT     H273563   6.467   8.788   9.227
24441WAT      O73564   0.712   2.033   7.827
24441WAT     H173565   0.810   2.036   7.843
24441WAT     H273566   0.679   2.123   7.799
24442WAT      O73567   7.844   3.132   0.214
24442WAT     H173568   7.857   3.135   0.115
24442WAT     H273569   7.872   3.219   0.254
24443WAT      O73570   0.543   2.384   5.218
24443WAT     H173571   0.459   2.434   5.199
24443WAT     H273572   0.523   2.286   5.222
24444WAT      O73573   0.378   0.323   0.162
24444WAT     H173574   0.430   0.303   0.079
24444WAT     H273575   0.393   0.418   0.189
24445WAT      O73576   9.591   5.330   3.815
24445WAT     H173577   9.537   5.318   3.898
24445WAT     H273578   9.677   5.376   3.838
24446WAT      O73579   6.026   2.599   4.904
24446WAT     H173580   6.036   2.549   4.818
24446WAT     H273581   6.028   2.698   4.886
24447WAT      O73582   0.640   5.747   4.902
24447WAT     H173583   0.736   5.772   4.888
24447WAT     H273584   0.611   5.780   4.992
24448WAT      O73585   5.657   9.652   5.987
24448WAT     H173586   5.656   9.675   5.889
24448WAT     H273587   5.564   9.635   6.018
24449WAT      O73588   5.941   1.365   3.540
24449WAT     H173589   5.979   1.386   3.630
24449WAT     H273590   5.945   1.447   3.483
24450WAT      O73591   5.649   4.381   3.205
24450WAT     H173592   5.551   4.381   3.186
24450WAT     H273593   5.671   4.453   3.270
24451WAT      O73594   8.366   2.033   8.479
24451WAT     H173595   8.296   2.052   8.410
24451WAT     H273596   8.454   2.019   8.434
24452WAT      O73597   5.309   6.666   9.140
24452WAT     H173598   5.315   6.697   9.045
24452WAT     H273599   5.401   6.655   9.178
24453WAT      O73600   5.407   4.577   8.372
24453WAT     H173601   5.490   4.521   8.372
24453WAT     H273602   5.372   4.585   8.465
24454WAT      O73603   5.682   2.049   2.926
24454WAT     H173604   5.755   1.985   2.903
24454WAT     H273605   5.613   2.003   2.982
24455WAT      O73606   2.415   9.281   6.019
24455WAT     H173607   2.504   9.297   5.975
24455WAT     H273608   2.423   9.203   6.081
24456WAT      O73609   7.501   5.602   6.060
24456WAT     H173610   7.444   5.606   5.977
24456WAT     H273611   7.570   5.530   6.049
24457WAT      O73612   2.532   4.567   8.236
24457WAT     H173613   2.626   4.544   8.258
24457WAT     H273614   2.513   4.661   8.264
24458WAT      O73615   5.524   2.918   4.090
24458WAT     H173616   5.455   2.895   4.159
24458WAT     H273617   5.615   2.899   4.127
24459WAT      O73618   3.077   8.668   3.111
24459WAT     H173619   3.046   8.579   3.143
24459WAT     H273620   3.102   8.663   3.015
24460WAT      O73621   4.829   2.143   2.089
24460WAT     H173622   4.740   2.155   2.134
24460WAT     H273623   4.818   2.085   2.009
24461WAT      O73624   4.055   5.944   3.061
24461WAT     H173625   4.087   5.959   2.967
24461WAT     H273626   4.014   5.853   3.068
24462WAT      O73627   8.918   9.545   6.437
24462WAT     H173628   8.956   9.452   6.429
24462WAT     H273629   8.949   9.585   6.523
24463WAT      O73630   0.330   0.083   5.714
24463WAT     H173631   0.417   0.080   5.664
24463WAT     H273632   0.348   0.108   5.809
24464WAT      O73633   5.604   6.333   8.986
24464WAT     H173634   5.606   6.433   8.985
24464WAT     H273635   5.509   6.301   8.977
24465WAT      O73636   0.598   2.326   1.948
24465WAT     H173637   0.551   2.307   2.034
24465WAT     H273638   0.531   2.330   1.873
24466WAT      O73639   0.469   7.871   4.812
24466WAT     H173640   0.495   7.844   4.904
24466WAT     H273641   0.427   7.793   4.764
24467WAT      O73642   0.893   8.217   6.861
24467WAT     H173643   0.954   8.295   6.846
24467WAT     H273644   0.854   8.223   6.953
24468WAT      O73645   6.030   6.726   9.725
24468WAT     H173646   5.941   6.756   9.760
24468WAT     H273647   6.102   6.758   9.786
24469WAT      O73648   6.808   4.277   3.166
24469WAT     H173649   6.812   4.178   3.157
24469WAT     H273650   6.832   4.304   3.259
24470WAT      O73651   1.764   2.083   7.289
24470WAT     H173652   1.857   2.048   7.299
24470WAT     H273653   1.706   2.012   7.247
24471WAT      O73654   3.969   5.129   8.283
24471WAT     H173655   3.986   5.117   8.186
24471WAT     H273656   4.051   5.166   8.327
24472WAT      O73657   6.827   3.160   3.085
24472WAT     H173658   6.874   3.209   3.158
24472WAT     H273659   6.740   3.123   3.120
24473WAT      O73660   6.897   2.731   9.795
24473WAT     H173661   6.981   2.678   9.807
24473WAT     H273662   6.878   2.741   9.697
24474WAT      O73663   3.843   2.720   2.697
24474WAT     H173664   3.869   2.816   2.698
24474WAT     H273665   3.797   2.699   2.610
24475WAT      O73666   9.622   8.669   5.999
24475WAT     H173667   9.603   8.765   6.020
24475WAT     H273668   9.717   8.648   6.023
24476WAT      O73669   5.157   6.931   6.829
24476WAT     H173670   5.132   6.976   6.915
24476WAT     H273671   5.094   6.959   6.757
24477WAT      O73672   4.032   9.453   2.640
24477WAT     H173673   3.958   9.454   2.706
24477WAT     H273674   4.013   9.518   2.566
24478WAT      O73675   0.439   9.204   6.268
24478WAT     H173676   0.511   9.273   6.275
24478WAT     H273677   0.384   9.221   6.186
24479WAT      O73678   1.552   2.729   7.568
24479WAT     H173679   1.542   2.630   7.570
24479WAT     H273680   1.462   2.772   7.562
24480WAT      O73681   6.933   8.864   7.380
24480WAT     H173682   7.005   8.919   7.422
24480WAT     H273683   6.848   8.877   7.430
24481WAT      O73684   3.866   0.386   7.787
24481WAT     H173685   3.963   0.404   7.768
24481WAT     H273686   3.839   0.300   7.742
24482WAT      O73687   6.539   8.850   7.019
24482WAT     H173688   6.537   8.844   6.919
24482WAT     H273689   6.634   8.842   7.051
24483WAT      O73690   6.654   4.200   4.367
24483WAT     H173691   6.659   4.177   4.464
24483WAT     H273692   6.733   4.163   4.319
24484WAT      O73693   7.855   9.489   2.888
24484WAT     H173694   7.903   9.492   2.976
24484WAT     H273695   7.922   9.480   2.814
24485WAT      O73696   5.069   8.046   7.640
24485WAT     H173697   5.135   8.110   7.680
24485WAT     H273698   5.004   8.097   7.584
24486WAT      O73699   8.346   1.419   2.142
24486WAT     H173700   8.317   1.359   2.067
24486WAT     H273701   8.443   1.440   2.133
24487WAT      O73702   0.430   0.615   7.826
24487WAT     H173703   0.353   0.564   7.863
24487WAT     H273704   0.423   0.711   7.854
24488WAT      O73705   7.158   1.734   7.816
24488WAT     H173706   7.140   1.672   7.892
24488WAT     H273707   7.099   1.710   7.739
24489WAT      O73708   6.695   5.287   3.702
24489WAT     H173709   6.726   5.203   3.745
24489WAT     H273710   6.736   5.366   3.748
24490WAT      O73711   2.774   2.467   8.060
24490WAT     H173712   2.760   2.562   8.089
24490WAT     H273713   2.696   2.438   8.003
24491WAT      O73714   1.566   1.301   8.368
24491WAT     H173715   1.607   1.369   8.428
24491WAT     H273716   1.632   1.276   8.296
24492WAT      O73717   8.963   3.303   5.787
24492WAT     H173718   8.979   3.382   5.846
24492WAT     H273719   9.028   3.304   5.711
24493WAT      O73720   1.024   6.951   2.127
24493WAT     H173721   0.972   7.035   2.113
24493WAT     H273722   1.047   6.911   2.039
24494WAT      O73723   2.548   0.114   8.859
24494WAT     H173724   2.462   0.104   8.809
24494WAT     H273725   2.624   0.114   8.793
24495WAT      O73726   3.985   3.455   7.581
24495WAT     H173727   3.920   3.424   7.512
24495WAT     H273728   3.944   3.443   7.672
24496WAT      O73729   8.255   6.874   7.702
24496WAT     H173730   8.325   6.808   7.674
24496WAT     H273731   8.174   6.863   7.645
24497WAT      O73732   5.165   0.214   1.381
24497WAT     H173733   5.262   0.192   1.373
24497WAT     H273734   5.137   0.270   1.303
24498WAT      O73735   0.765   4.691   1.445
24498WAT     H173736   0.791   4.775   1.492
24498WAT     H273737   0.843   4.629   1.441
24499WAT      O73738   5.085   2.745   6.894
24499WAT     H173739   5.087   2.740   6.794
24499WAT     H273740   4.993   2.769   6.924
24500WAT      O73741   0.680   7.260   8.202
24500WAT     H173742   0.608   7.222   8.144
24500WAT     H273743   0.737   7.186   8.238
24501WAT      O73744   4.593   2.830   1.282
24501WAT     H173745   4.555   2.804   1.371
24501WAT     H273746   4.528   2.886   1.232
24502WAT      O73747   4.118   8.435   8.286
24502WAT     H173748   4.172   8.368   8.236
24502WAT     H273749   4.021   8.423   8.265
24503WAT      O73750   2.760   9.399   6.223
24503WAT     H173751   2.709   9.322   6.185
24503WAT     H273752   2.778   9.383   6.320
24504WAT      O73753   5.158   2.525   1.886
24504WAT     H173754   5.065   2.531   1.924
24504WAT     H273755   5.154   2.534   1.787
24505WAT      O73756   1.018   2.898   6.517
24505WAT     H173757   1.044   2.803   6.532
24505WAT     H273758   0.929   2.901   6.470
24506WAT      O73759   3.900   8.223   8.305
24506WAT     H173760   3.855   8.157   8.244
24506WAT     H273761   3.905   8.185   8.397
24507WAT      O73762   1.365   7.848   9.419
24507WAT     H173763   1.353   7.944   9.448
24507WAT     H273764   1.459   7.835   9.387
24508WAT      O73765   6.060   8.807   6.291
24508WAT     H173766   6.008   8.834   6.210
24508WAT     H273767   6.152   8.848   6.286
24509WAT      O73768   3.996   4.197   9.434
24509WAT     H173769   3.990   4.142   9.517
24509WAT     H273770   4.029   4.141   9.358
24510WAT      O73771   0.394   8.946   7.546
24510WAT     H173772   0.479   8.896   7.560
24510WAT     H273773   0.396   8.992   7.458
24511WAT      O73774   2.939   4.584   2.504
24511WAT     H173775   2.990   4.529   2.437
24511WAT     H273776   2.927   4.677   2.468
24512WAT      O73777   8.207   9.053   5.001
24512WAT     H173778   8.114   9.074   5.033
24512WAT     H273779   8.272   9.068   5.075
24513WAT      O73780   5.839   0.611   2.328
24513WAT     H173781   5.895   0.650   2.400
24513WAT     H273782   5.834   0.512   2.339
24514WAT      O73783   9.583   8.235   6.139
24514WAT     H173784   9.637   8.279   6.068
24514WAT     H273785   9.529   8.304   6.188
24515WAT      O73786   5.443   6.253   9.502
24515WAT     H173787   5.405   6.161   9.496
24515WAT     H273788   5.538   6.252   9.471
24516WAT      O73789   7.512   3.850   7.520
24516WAT     H173790   7.557   3.790   7.586
24516WAT     H273791   7.474   3.929   7.567
24517WAT      O73792   8.174   2.166   3.786
24517WAT     H173793   8.165   2.255   3.743
24517WAT     H273794   8.202   2.099   3.717
24518WAT      O73795   2.498   7.414   6.695
24518WAT     H173796   2.590   7.415   6.735
24518WAT     H273797   2.442   7.346   6.742
24519WAT      O73798   1.224   1.845   7.705
24519WAT     H173799   1.267   1.756   7.689
24519WAT     H273800   1.272   1.915   7.651
24520WAT      O73801   1.024   3.348   3.762
24520WAT     H173802   1.013   3.325   3.858
24520WAT     H273803   1.098   3.294   3.723
24521WAT      O73804   2.242   0.857   3.390
24521WAT     H173805   2.339   0.839   3.376
24521WAT     H273806   2.229   0.953   3.416
24522WAT      O73807   9.744   5.580   8.307
24522WAT     H173808   9.797   5.560   8.225
24522WAT     H273809   9.760   5.509   8.376
24523WAT      O73810   4.869   8.308   8.164
24523WAT     H173811   4.957   8.262   8.153
24523WAT     H273812   4.798   8.241   8.187
24524WAT      O73813   8.967   6.670   2.374
24524WAT     H173814   9.062   6.651   2.399
24524WAT     H273815   8.954   6.649   2.277
24525WAT      O73816   1.102   3.313   5.755
24525WAT     H173817   1.068   3.402   5.727
24525WAT     H273818   1.173   3.283   5.692
24526WAT      O73819   1.124   3.762   7.110
24526WAT     H173820   1.224   3.769   7.114
24526WAT     H273821   1.089   3.739   7.200
24527WAT      O73822   4.987   3.123   6.471
24527WAT     H173823   5.031   3.105   6.559
24527WAT     H273824   5.038   3.077   6.398
24528WAT      O73825   3.388   8.443   8.272
24528WAT     H173826   3.366   8.490   8.187
24528WAT     H273827   3.480   8.468   8.302
24529WAT      O73828   2.517   5.219   8.815
24529WAT     H173829   2.565   5.305   8.832
24529WAT     H273830   2.418   5.233   8.826
24530WAT      O73831   7.404   9.476   6.105
24530WAT     H173832   7.366   9.395   6.061
24530WAT     H273833   7.401   9.463   6.205
24531WAT      O73834   5.173   9.125   3.655
24531WAT     H173835   5.100   9.169   3.707
24531WAT     H273836   5.247   9.190   3.637
24532WAT      O73837   8.195   5.596   8.225
24532WAT     H173838   8.169   5.558   8.137
24532WAT     H273839   8.295   5.596   8.234
24533WAT      O73840   2.799   0.155   7.385
24533WAT     H173841   2.762   0.223   7.322
24533WAT     H273842   2.857   0.201   7.452
24534WAT      O73843   3.156   6.177   0.533
24534WAT     H173844   3.237   6.165   0.476
24534WAT     H273845   3.145   6.273   0.557
24535WAT      O73846   2.467   9.080   2.286
24535WAT     H173847   2.539   9.144   2.257
24535WAT     H273848   2.377   9.120   2.265
24536WAT      O73849   2.301   1.073   7.847
24536WAT     H173850   2.208   1.109   7.841
24536WAT     H273851   2.298   0.974   7.834
24537WAT      O73852   7.185   5.798   7.831
24537WAT     H173853   7.114   5.869   7.830
24537WAT     H273854   7.159   5.728   7.898
24538WAT      O73855   0.630   9.829   6.677
24538WAT     H173856   0.711   9.776   6.653
24538WAT     H273857   0.589   9.792   6.761
24539WAT      O73858   1.230   8.886   6.217
24539WAT     H173859   1.130   8.892   6.223
24539WAT     H273860   1.270   8.962   6.268
24540WAT      O73861   4.226   7.083   5.521
24540WAT     H173862   4.230   7.052   5.616
24540WAT     H273863   4.276   7.019   5.464
24541WAT      O73864   7.899   0.381   6.887
24541WAT     H173865   7.982   0.432   6.864
24541WAT     H273866   7.922   0.285   6.903
24542WAT      O73867   0.297   3.261   3.264
24542WAT     H173868   0.347   3.331   3.214
24542WAT     H273869   0.347   3.174   3.261
24543WAT      O73870   6.586   1.898   4.742
24543WAT     H173871   6.556   1.953   4.820
24543WAT     H273872   6.628   1.813   4.775
24544WAT      O73873   7.495   1.733   8.739
24544WAT     H173874   7.471   1.645   8.699
24544WAT     H273875   7.582   1.726   8.787
24545WAT      O73876   6.091   1.390   1.032
24545WAT     H173877   6.136   1.480   1.034
24545WAT     H273878   6.036   1.383   0.949
24546WAT      O73879   6.031   3.276   1.330
24546WAT     H173880   6.060   3.198   1.274
24546WAT     H273881   5.933   3.270   1.347
24547WAT      O73882   7.398   5.381   3.057
24547WAT     H173883   7.439   5.320   2.989
24547WAT     H273884   7.301   5.394   3.036
24548WAT      O73885   3.643   7.001   0.713
24548WAT     H173886   3.558   7.017   0.663
24548WAT     H273887   3.712   6.962   0.651
24549WAT      O73888   4.171   7.317   7.815
24549WAT     H173889   4.144   7.383   7.745
24549WAT     H273890   4.264   7.284   7.795
24550WAT      O73891   1.321   0.363   8.463
24550WAT     H173892   1.230   0.323   8.450
24550WAT     H273893   1.385   0.291   8.491
24551WAT      O73894   1.958   7.130   3.757
24551WAT     H173895   1.891   7.204   3.765
24551WAT     H273896   2.046   7.167   3.730
24552WAT      O73897   1.545   0.440   6.989
24552WAT     H173898   1.554   0.356   7.043
24552WAT     H273899   1.569   0.518   7.046
24553WAT      O73900   2.869   3.062   3.566
24553WAT     H173901   2.832   3.063   3.473
24553WAT     H273902   2.795   3.078   3.632
24554WAT      O73903   0.104   7.908   7.722
24554WAT     H173904   0.183   7.879   7.777
24554WAT     H273905   0.034   7.836   7.725
24555WAT      O73906   0.006   7.891   3.048
24555WAT     H173907  -0.072   7.952   3.034
24555WAT     H273908   0.064   7.892   2.967
24556WAT      O73909   7.603   3.040   2.537
24556WAT     H173910   7.676   3.097   2.574
24556WAT     H273911   7.524   3.097   2.515
24557WAT      O73912   1.489   6.398   0.577
24557WAT     H173913   1.477   6.305   0.612
24557WAT     H273914   1.408   6.424   0.524
24558WAT      O73915   0.688   0.384   8.467
24558WAT     H173916   0.725   0.389   8.560
24558WAT     H273917   0.607   0.325   8.466
24559WAT      O73918   2.003   6.393   5.556
24559WAT     H173919   2.049   6.314   5.597
24559WAT     H273920   1.920   6.415   5.607
24560WAT      O73921   0.591   2.222   4.334
24560WAT     H173922   0.622   2.221   4.430
24560WAT     H273923   0.498   2.185   4.329
24561WAT      O73924   2.403   7.949   6.542
24561WAT     H173925   2.365   7.867   6.501
24561WAT     H273926   2.421   7.933   6.639
24562WAT      O73927   4.763   6.386   5.872
24562WAT     H173928   4.669   6.414   5.893
24562WAT     H273929   4.798   6.442   5.797
24563WAT      O73930   6.168   0.814   0.682
24563WAT     H173931   6.223   0.735   0.711
24563WAT     H273932   6.228   0.889   0.657
24564WAT      O73933   5.234   9.367   4.438
24564WAT     H173934   5.278   9.451   4.469
24564WAT     H273935   5.166   9.338   4.506
24565WAT      O73936   3.741   7.991   1.168
24565WAT     H173937   3.732   7.970   1.071
24565WAT     H273938   3.787   8.079   1.179
24566WAT      O73939   1.871   5.502   4.162
24566WAT     H173940   1.908   5.413   4.188
24566WAT     H273941   1.930   5.543   4.092
24567WAT      O73942   2.562   4.602   0.452
24567WAT     H173943   2.650   4.607   0.405
24567WAT     H273944   2.509   4.525   0.416
24568WAT      O73945   2.678   4.444   3.057
24568WAT     H173946   2.661   4.459   3.154
24568WAT     H273947   2.725   4.356   3.046
24569WAT      O73948   9.069   6.779   8.097
24569WAT     H173949   9.163   6.745   8.100
24569WAT     H273950   9.042   6.810   8.188
24570WAT      O73951   5.603   3.002   6.212
24570WAT     H173952   5.530   2.997   6.144
24570WAT     H273953   5.653   2.916   6.214
24571WAT      O73954   0.252   6.906   1.351
24571WAT     H173955   0.277   6.816   1.316
24571WAT     H273956   0.302   6.976   1.300
24572WAT      O73957   4.956   6.406   8.666
24572WAT     H173958   4.997   6.427   8.577
24572WAT     H273959   4.865   6.366   8.652
24573WAT      O73960   9.268   5.646   2.681
24573WAT     H173961   9.225   5.637   2.771
24573WAT     H273962   9.356   5.691   2.690
24574WAT      O73963   9.081   1.121   7.449
24574WAT     H173964   9.038   1.048   7.503
24574WAT     H273965   9.011   1.178   7.408
24575WAT      O73966   8.136   5.906   7.189
24575WAT     H173967   8.080   5.826   7.165
24575WAT     H273968   8.109   5.939   7.280
24576WAT      O73969   8.887   8.010   9.686
24576WAT     H173970   8.952   7.937   9.705
24576WAT     H273971   8.806   7.972   9.642
24577WAT      O73972   0.160   0.120   7.787
24577WAT     H173973   0.146   0.124   7.886
24577WAT     H273974   0.169   0.024   7.759
24578WAT      O73975   0.266   3.149   9.135
24578WAT     H173976   0.278   3.078   9.205
24578WAT     H273977   0.336   3.137   9.064
24579WAT      O73978   3.437   5.972   6.245
24579WAT     H173979   3.367   5.944   6.311
24579WAT     H273980   3.392   6.008   6.163
24580WAT      O73981   9.292   3.693   5.808
24580WAT     H173982   9.304   3.609   5.756
24580WAT     H273983   9.311   3.675   5.905
24581WAT      O73984   1.528   3.008   7.310
24581WAT     H173985   1.567   2.926   7.267
24581WAT     H273986   1.602   3.065   7.347
24582WAT      O73987   6.693   3.010   7.088
24582WAT     H173988   6.651   3.029   6.999
24582WAT     H273989   6.788   3.041   7.088
24583WAT      O73990   1.516   8.814   8.902
24583WAT     H173991   1.453   8.878   8.857
24583WAT     H273992   1.475   8.783   8.988
24584WAT      O73993   3.045   0.582   6.816
24584WAT     H173994   3.049   0.587   6.716
24584WAT     H273995   3.137   0.569   6.852
24585WAT      O73996   8.592   9.797   5.205
24585WAT     H173997   8.546   9.886   5.203
24585WAT     H273998   8.545   9.737   5.271
24586WAT      O73999   9.495   7.965   6.042
24586WAT     H174000   9.512   7.981   5.945
24586WAT     H274001   9.495   8.052   6.092
24587WAT      O74002   4.618   5.445   4.207
24587WAT     H174003   4.698   5.493   4.168
24587WAT     H274004   4.622   5.349   4.182
24588WAT      O74005   5.054   9.347   2.708
24588WAT     H174006   5.036   9.424   2.648
24588WAT     H274007   5.042   9.262   2.658
24589WAT      O74008   7.685   1.507   0.489
24589WAT     H174009   7.612   1.447   0.455
24589WAT     H274010   7.765   1.500   0.430
24590WAT      O74011   0.267   1.254   4.559
24590WAT     H174012   0.289   1.312   4.637
24590WAT     H274013   0.295   1.300   4.474
24591WAT      O74014   1.545   5.848   9.401
24591WAT     H174015   1.572   5.757   9.371
24591WAT     H274016   1.476   5.840   9.473
24592WAT      O74017   8.809   8.555   0.643
24592WAT     H174018   8.825   8.495   0.565
24592WAT     H274019   8.723   8.605   0.630
24593WAT      O74020   3.551   4.003   0.284
24593WAT     H174021   3.470   4.062   0.291
24593WAT     H274022   3.597   3.999   0.372
24594WAT      O74023   3.548   8.753   0.012
24594WAT     H174024   3.573   8.679   0.074
24594WAT     H274025   3.584   8.840   0.047
24595WAT      O74026   6.951   7.900   0.329
24595WAT     H174027   7.048   7.880   0.344
24595WAT     H274028   6.898   7.816   0.338
24596WAT      O74029   5.233   0.168   1.944
24596WAT     H174030   5.255   0.138   1.851
24596WAT     H274031   5.179   0.097   1.990
24597WAT      O74032   5.587   8.943   9.385
24597WAT     H174033   5.490   8.942   9.409
24597WAT     H274034   5.642   8.934   9.468
24598WAT      O74035   5.449   3.371   7.763
24598WAT     H174036   5.352   3.353   7.748
24598WAT     H274037   5.467   3.469   7.757
24599WAT      O74038   3.186   4.779   7.951
24599WAT     H174039   3.139   4.742   7.871
24599WAT     H274040   3.150   4.869   7.973
24600WAT      O74041   3.004   3.694   5.465
24600WAT     H174042   3.078   3.630   5.442
24600WAT     H274043   2.983   3.686   5.563
24601WAT      O74044   0.709   1.778   6.514
24601WAT     H174045   0.790   1.721   6.512
24601WAT     H274046   0.719   1.848   6.584
24602WAT      O74047   6.210   2.263   2.352
24602WAT     H174048   6.266   2.197   2.402
24602WAT     H274049   6.134   2.215   2.307
24603WAT      O74050   0.587   6.022   5.630
24603WAT     H174051   0.576   5.923   5.641
24603WAT     H274052   0.684   6.044   5.621
24604WAT      O74053   6.868   3.681   7.435
24604WAT     H174054   6.917   3.733   7.366
24604WAT     H274055   6.900   3.586   7.433
24605WAT      O74056   9.219   3.069   1.377
24605WAT     H174057   9.287   3.141   1.367
24605WAT     H274058   9.155   3.073   1.300
24606WAT      O74059   3.420   7.655   0.342
24606WAT     H174060   3.327   7.622   0.360
24606WAT     H274061   3.464   7.596   0.275
24607WAT      O74062   1.512   1.841   8.707
24607WAT     H174063   1.579   1.892   8.654
24607WAT     H274064   1.503   1.749   8.670
24608WAT      O74065   0.747   3.341   6.846
24608WAT     H174066   0.821   3.286   6.884
24608WAT     H274067   0.665   3.285   6.837
24609WAT      O74068   1.749   4.704   2.258
24609WAT     H174069   1.770   4.691   2.161
24609WAT     H274070   1.672   4.767   2.267
24610WAT      O74071   5.127   1.827   3.980
24610WAT     H174072   5.126   1.783   3.890
24610WAT     H274073   5.220   1.831   4.015
24611WAT      O74074   1.341   0.858   2.190
24611WAT     H174075   1.313   0.938   2.243
24611WAT     H274076   1.266   0.792   2.187
24612WAT      O74077   2.159   6.428   5.966
24612WAT     H174078   2.245   6.428   5.916
24612WAT     H274079   2.159   6.353   6.033
24613WAT      O74080   5.979   8.145   0.107
24613WAT     H174081   5.958   8.241   0.090
24613WAT     H274082   6.041   8.111   0.037
24614WAT      O74083   8.040   9.757   1.496
24614WAT     H174084   8.025   9.780   1.400
24614WAT     H274085   7.967   9.696   1.528
24615WAT      O74086   1.647   1.352   9.075
24615WAT     H174087   1.716   1.282   9.094
24615WAT     H274088   1.687   1.421   9.014
24616WAT      O74089   4.367   9.227   4.283
24616WAT     H174090   4.337   9.191   4.371
24616WAT     H274091   4.350   9.160   4.211
24617WAT      O74092   1.683   0.996   1.451
24617WAT     H174093   1.676   0.957   1.359
24617WAT     H274094   1.676   0.923   1.519
24618WAT      O74095   0.576   1.934   8.206
24618WAT     H174096   0.672   1.951   8.181
24618WAT     H274097   0.525   1.908   8.124
24619WAT      O74098   2.527   0.888   3.623
24619WAT     H174099   2.512   0.895   3.524
24619WAT     H274100   2.600   0.951   3.650
24620WAT      O74101   3.784   6.325   4.519
24620WAT     H174102   3.801   6.226   4.523
24620WAT     H274103   3.714   6.344   4.450
24621WAT      O74104   9.342   8.149   1.378
24621WAT     H174105   9.439   8.136   1.363
24621WAT     H274106   9.291   8.116   1.299
24622WAT      O74107   6.570   3.826   0.901
24622WAT     H174108   6.551   3.755   0.969
24622WAT     H274109   6.485   3.848   0.852
24623WAT      O74110   0.962   8.259   9.256
24623WAT     H174111   0.954   8.355   9.226
24623WAT     H274112   1.009   8.255   9.344
24624WAT      O74113   3.939   1.878   6.668
24624WAT     H174114   3.979   1.810   6.606
24624WAT     H274115   3.881   1.831   6.735
24625WAT      O74116   6.800   2.552   6.041
24625WAT     H174117   6.846   2.639   6.027
24625WAT     H274118   6.818   2.492   5.963
24626WAT      O74119   5.716   5.436   2.137
24626WAT     H174120   5.701   5.374   2.214
24626WAT     H274121   5.683   5.393   2.053
24627WAT      O74122   9.318   6.472   3.793
24627WAT     H174123   9.267   6.495   3.876
24627WAT     H274124   9.255   6.456   3.718
24628WAT      O74125   2.147   0.297   3.364
24628WAT     H174126   2.066   0.261   3.409
24628WAT     H274127   2.162   0.392   3.392
24629WAT      O74128   4.888   4.475   9.444
24629WAT     H174129   4.983   4.471   9.414
24629WAT     H274130   4.836   4.401   9.401
24630WAT      O74131   8.418   7.489   0.408
24630WAT     H174132   8.460   7.570   0.368
24630WAT     H274133   8.420   7.496   0.508
24631WAT      O74134   9.790   6.818   3.740
24631WAT     H174135   9.846   6.853   3.665
24631WAT     H274136   9.828   6.848   3.827
24632WAT      O74137   7.351   6.468   9.618
24632WAT     H174138   7.298   6.450   9.535
24632WAT     H274139   7.389   6.382   9.652
24633WAT      O74140   3.963   4.391   2.563
24633WAT     H174141   3.975   4.293   2.577
24633WAT     H274142   4.053   4.436   2.565
24634WAT      O74143   6.107   3.412   6.399
24634WAT     H174144   6.108   3.355   6.481
24634WAT     H274145   6.035   3.379   6.337
24635WAT      O74146   8.976   1.100   0.701
24635WAT     H174147   8.966   1.074   0.797
24635WAT     H274148   8.894   1.148   0.671
24636WAT      O74149   0.986   3.234   0.024
24636WAT     H174150   0.996   3.139   0.051
24636WAT     H274151   1.014   3.246  -0.071
24637WAT      O74152   1.520   4.064   0.968
24637WAT     H174153   1.483   4.156   0.976
24637WAT     H274154   1.526   4.038   0.871
24638WAT      O74155   0.727   5.862   1.846
24638WAT     H174156   0.689   5.928   1.782
24638WAT     H274157   0.812   5.899   1.886
24639WAT      O74158   7.986   8.728   2.543
24639WAT     H174159   8.005   8.638   2.504
24639WAT     H274160   7.944   8.717   2.633
24640WAT      O74161   1.119   5.073   0.652
24640WAT     H174162   1.035   5.047   0.699
24640WAT     H274163   1.197   5.028   0.697
24641WAT      O74164   6.587   6.418   1.263
24641WAT     H174165   6.557   6.394   1.171
24641WAT     H274166   6.522   6.384   1.330
24642WAT      O74167   1.807   5.894   3.058
24642WAT     H174168   1.769   5.891   3.150
24642WAT     H274169   1.904   5.919   3.063
24643WAT      O74170   3.728   2.021   9.087
24643WAT     H174171   3.645   1.967   9.074
24643WAT     H274172   3.746   2.074   9.005
24644WAT      O74173   0.884   7.624   2.515
24644WAT     H174174   0.799   7.625   2.462
24644WAT     H274175   0.862   7.624   2.612
24645WAT      O74176   9.262   2.402   2.418
24645WAT     H174177   9.196   2.345   2.467
24645WAT     H274178   9.213   2.474   2.368
24646WAT      O74179   7.323   8.547   1.115
24646WAT     H174180   7.255   8.562   1.043
24646WAT     H274181   7.373   8.632   1.132
24647WAT      O74182   0.431   0.284   4.959
24647WAT     H174183   0.461   0.276   5.055
24647WAT     H274184   0.339   0.322   4.956
24648WAT      O74185   9.226   7.678   7.512
24648WAT     H174186   9.135   7.655   7.546
24648WAT     H274187   9.220   7.703   7.415
24649WAT      O74188   3.674   8.297   1.730
24649WAT     H174189   3.637   8.316   1.821
24649WAT     H274190   3.774   8.306   1.732
24650WAT      O74191   5.816   8.743   5.777
24650WAT     H174192   5.915   8.745   5.766
24650WAT     H274193   5.788   8.812   5.844
24651WAT      O74194   6.639   7.461   0.584
24651WAT     H174195   6.722   7.514   0.601
24651WAT     H274196   6.612   7.470   0.488
24652WAT      O74197   6.916   3.032   8.363
24652WAT     H174198   6.982   3.099   8.331
24652WAT     H274199   6.954   2.940   8.354
24653WAT      O74200   6.767   5.271   1.107
24653WAT     H174201   6.685   5.260   1.163
24653WAT     H274202   6.848   5.252   1.162
24654WAT      O74203   4.881   3.139   7.738
24654WAT     H174204   4.848   3.197   7.811
24654WAT     H274205   4.915   3.195   7.662
24655WAT      O74206   1.899   7.880   5.803
24655WAT     H174207   1.898   7.780   5.792
24655WAT     H274208   1.981   7.906   5.855
24656WAT      O74209   3.525   1.743   8.879
24656WAT     H174210   3.612   1.736   8.830
24656WAT     H274211   3.504   1.655   8.922
24657WAT      O74212   3.870   2.895   3.256
24657WAT     H174213   3.923   2.909   3.339
24657WAT     H274214   3.784   2.945   3.262
24658WAT      O74215   4.946   8.401   2.229
24658WAT     H174216   4.933   8.416   2.131
24658WAT     H274217   4.918   8.482   2.280
24659WAT      O74218   6.958   5.344   4.243
24659WAT     H174219   6.957   5.372   4.147
24659WAT     H274220   6.875   5.377   4.287
24660WAT      O74221   3.290   8.453   5.563
24660WAT     H174222   3.295   8.496   5.653
24660WAT     H274223   3.312   8.356   5.571
24661WAT      O74224   1.495   2.118   1.803
24661WAT     H174225   1.550   2.047   1.760
24661WAT     H274226   1.546   2.204   1.804
24662WAT      O74227   9.726   7.961   5.006
24662WAT     H174228   9.741   7.921   5.096
24662WAT     H274229   9.636   7.935   4.972
24663WAT      O74230   7.817   6.484   1.365
24663WAT     H174231   7.888   6.546   1.332
24663WAT     H274232   7.825   6.474   1.464
24664WAT      O74233   3.688   7.155   5.063
24664WAT     H174234   3.766   7.204   5.102
24664WAT     H274235   3.657   7.203   4.981
24665WAT      O74236   4.677   9.330   3.939
24665WAT     H174237   4.586   9.357   3.908
24665WAT     H274238   4.709   9.394   4.008
24666WAT      O74239   7.743   5.670   6.396
24666WAT     H174240   7.751   5.713   6.486
24666WAT     H274241   7.833   5.641   6.365
24667WAT      O74242   0.332   0.209   6.332
24667WAT     H174243   0.321   0.132   6.270
24667WAT     H274244   0.415   0.197   6.386
24668WAT      O74245   4.776   1.676   1.174
24668WAT     H174246   4.870   1.674   1.140
24668WAT     H274247   4.734   1.586   1.163
24669WAT      O74248   8.766   8.067   8.178
24669WAT     H174249   8.846   8.007   8.181
24669WAT     H274250   8.716   8.059   8.265
24670WAT      O74251   1.192   5.977   5.222
24670WAT     H174252   1.208   6.038   5.144
24670WAT     H274253   1.127   6.020   5.285
24671WAT      O74254   6.290   3.017   8.644
24671WAT     H174255   6.358   2.966   8.590
24671WAT     H274256   6.331   3.101   8.678
24672WAT      O74257   6.478   7.188   1.582
24672WAT     H174258   6.397   7.204   1.638
24672WAT     H274259   6.547   7.139   1.635
24673WAT      O74260   9.247   1.716   0.745
24673WAT     H174261   9.226   1.644   0.811
24673WAT     H274262   9.346   1.720   0.731
24674WAT      O74263   2.999   4.605   6.283
24674WAT     H174264   2.957   4.687   6.321
24674WAT     H274265   2.957   4.524   6.323
24675WAT      O74266   0.330   8.743   4.500
24675WAT     H174267   0.395   8.815   4.473
24675WAT     H274268   0.351   8.712   4.592
24676WAT      O74269   5.632   0.288   0.816
24676WAT     H174270   5.675   0.240   0.892
24676WAT     H274271   5.533   0.291   0.830
24677WAT      O74272   3.776   6.740   5.237
24677WAT     H174273   3.761   6.836   5.259
24677WAT     H274274   3.794   6.731   5.139
24678WAT      O74275   7.306   3.624   5.864
24678WAT     H174276   7.272   3.717   5.845
24678WAT     H274277   7.275   3.563   5.791
24679WAT      O74278   1.171   9.388   7.646
24679WAT     H174279   1.161   9.483   7.615
24679WAT     H274280   1.268   9.367   7.655
24680WAT      O74281   1.027   0.297   8.832
24680WAT     H174282   1.013   0.242   8.750
24680WAT     H274283   1.110   0.352   8.821
24681WAT      O74284   2.792   6.602   0.972
24681WAT     H174285   2.752   6.622   0.883
24681WAT     H274286   2.850   6.522   0.966
24682WAT      O74287   1.491   1.424   3.047
24682WAT     H174288   1.548   1.423   2.965
24682WAT     H274289   1.543   1.462   3.124
24683WAT      O74290   0.117   2.512   0.318
24683WAT     H174291   0.146   2.574   0.246
24683WAT     H274292   0.083   2.427   0.278
24684WAT      O74293   9.321   0.600   5.254
24684WAT     H174294   9.315   0.629   5.350
24684WAT     H274295   9.415   0.572   5.233
24685WAT      O74296   5.321   2.853   7.376
24685WAT     H174297   5.321   2.753   7.369
24685WAT     H274298   5.229   2.887   7.356
24686WAT      O74299   9.581   3.489   5.248
24686WAT     H174300   9.665   3.437   5.262
24686WAT     H274301   9.594   3.583   5.279
24687WAT      O74302   8.771   0.400   7.938
24687WAT     H174303   8.682   0.361   7.962
24687WAT     H274304   8.782   0.487   7.986
24688WAT      O74305   7.571   0.161   2.246
24688WAT     H174306   7.518   0.239   2.277
24688WAT     H274307   7.575   0.160   2.146
24689WAT      O74308   5.944   6.202   7.672
24689WAT     H174309   5.877   6.184   7.600
24689WAT     H274310   6.016   6.261   7.636
24690WAT      O74311   4.485   8.650   4.272
24690WAT     H174312   4.532   8.731   4.235
24690WAT     H274313   4.429   8.678   4.350
24691WAT      O74314   3.587   1.679   5.065
24691WAT     H174315   3.680   1.644   5.078
24691WAT     H274316   3.527   1.641   5.136
24692WAT      O74317   7.705   5.349   4.988
24692WAT     H174318   7.702   5.289   5.068
24692WAT     H274319   7.623   5.405   4.985
24693WAT      O74320   8.455   8.471   0.138
24693WAT     H174321   8.423   8.481   0.232
24693WAT     H274322   8.555   8.474   0.137
24694WAT      O74323   7.039   1.863   0.522
24694WAT     H174324   7.057   1.766   0.540
24694WAT     H274325   7.124   1.910   0.501
24695WAT      O74326   3.006   3.870   8.836
24695WAT     H174327   2.964   3.824   8.758
24695WAT     H274328   3.075   3.935   8.804
24696WAT      O74329   5.911   0.984   6.068
24696WAT     H174330   5.981   1.053   6.083
24696WAT     H274331   5.831   1.026   6.025
24697WAT      O74332   4.597   4.573   9.252
24697WAT     H174333   4.519   4.511   9.237
24697WAT     H274334   4.612   4.583   9.350
24698WAT      O74335   5.951   8.780   8.688
24698WAT     H174336   6.015   8.832   8.745
24698WAT     H274337   5.978   8.684   8.686
24699WAT      O74338   8.296   7.893   6.109
24699WAT     H174339   8.378   7.934   6.068
24699WAT     H274340   8.324   7.821   6.173
24700WAT      O74341   1.675   3.527   2.744
24700WAT     H174342   1.758   3.579   2.726
24700WAT     H274343   1.658   3.463   2.669
24701WAT      O74344   8.942   3.785   8.271
24701WAT     H174345   9.007   3.842   8.322
24701WAT     H274346   8.959   3.688   8.292
24702WAT      O74347   4.137   1.045   4.442
24702WAT     H174348   4.114   1.129   4.492
24702WAT     H274349   4.125   1.062   4.344
24703WAT      O74350   2.847   8.366   6.617
24703WAT     H174351   2.752   8.333   6.619
24703WAT     H274352   2.875   8.382   6.523
24704WAT      O74353   4.486   7.350   6.312
24704WAT     H174354   4.495   7.343   6.213
24704WAT     H274355   4.552   7.290   6.356
24705WAT      O74356   6.375   9.773   5.549
24705WAT     H174357   6.448   9.836   5.575
24705WAT     H274358   6.398   9.681   5.580
24706WAT      O74359   5.593   7.922   5.836
24706WAT     H174360   5.637   7.904   5.924
24706WAT     H274361   5.494   7.916   5.845
24707WAT      O74362   4.514   9.081   8.367
24707WAT     H174363   4.457   9.076   8.285
24707WAT     H274364   4.586   9.150   8.353
24708WAT      O74365   8.357   8.040   2.297
24708WAT     H174366   8.399   7.977   2.362
24708WAT     H274367   8.405   8.128   2.300
24709WAT      O74368   6.231   5.393   4.771
24709WAT     H174369   6.273   5.305   4.790
24709WAT     H274370   6.267   5.431   4.686
24710WAT      O74371   1.029   0.558   4.505
24710WAT     H174372   1.079   0.634   4.463
24710WAT     H274373   1.081   0.474   4.495
24711WAT      O74374   2.058   7.302   0.935
24711WAT     H174375   2.050   7.254   0.848
24711WAT     H274376   2.150   7.339   0.945
24712WAT      O74377   5.400   5.755   7.763
24712WAT     H174378   5.339   5.745   7.841
24712WAT     H274379   5.403   5.668   7.712
24713WAT      O74380   7.286   0.244   8.295
24713WAT     H174381   7.208   0.188   8.324
24713WAT     H274382   7.285   0.253   8.195
24714WAT      O74383   6.805   6.455   1.791
24714WAT     H174384   6.751   6.537   1.773
24714WAT     H274385   6.807   6.398   1.708
24715WAT      O74386   8.846   2.853   8.785
24715WAT     H174387   8.893   2.878   8.870
24715WAT     H274388   8.826   2.935   8.732
24716WAT      O74389   4.825   2.968   2.758
24716WAT     H174390   4.773   2.887   2.784
24716WAT     H274391   4.810   3.040   2.826
24717WAT      O74392   0.933   8.727   7.507
24717WAT     H174393   1.027   8.755   7.523
24717WAT     H274394   0.879   8.744   7.590
24718WAT      O74395   9.046   4.106   7.794
24718WAT     H174396   9.068   4.034   7.728
24718WAT     H274397   9.004   4.065   7.875
24719WAT      O74398   9.420   1.922   6.016
24719WAT     H174399   9.504   1.908   6.069
24719WAT     H274400   9.362   1.989   6.062
24720WAT      O74401   8.645   7.454   0.892
24720WAT     H174402   8.578   7.499   0.951
24720WAT     H274403   8.694   7.384   0.945
24721WAT      O74404   8.086   7.033   8.752
24721WAT     H174405   8.010   7.097   8.767
24721WAT     H274406   8.138   7.062   8.672
24722WAT      O74407   7.472   1.760   3.607
24722WAT     H174408   7.563   1.789   3.576
24722WAT     H274409   7.475   1.739   3.705
24723WAT      O74410   6.430   3.127   2.145
24723WAT     H174411   6.491   3.082   2.079
24723WAT     H274412   6.336   3.100   2.126
24724WAT      O74413   1.152   7.568   8.058
24724WAT     H174414   1.117   7.615   7.978
24724WAT     H274415   1.145   7.469   8.044
24725WAT      O74416   3.792   1.822   1.924
24725WAT     H174417   3.821   1.838   2.019
24725WAT     H274418   3.771   1.725   1.912
24726WAT      O74419   6.484   5.104   7.725
24726WAT     H174420   6.471   5.074   7.630
24726WAT     H274421   6.547   5.043   7.771
24727WAT      O74422   9.374   7.101   7.209
24727WAT     H174423   9.397   7.016   7.161
24727WAT     H274424   9.456   7.136   7.254
24728WAT      O74425   4.104   2.849   8.892
24728WAT     H174426   4.082   2.905   8.972
24728WAT     H274427   4.045   2.876   8.816
24729WAT      O74428   2.887   3.784   0.236
24729WAT     H174429   2.875   3.864   0.177
24729WAT     H274430   2.886   3.701   0.179
24730WAT      O74431   2.126   4.073   3.928
24730WAT     H174432   2.028   4.056   3.943
24730WAT     H274433   2.143   4.171   3.930
24731WAT      O74434   8.825   3.367   6.072
24731WAT     H174435   8.884   3.410   6.004
24731WAT     H274436   8.813   3.428   6.150
24732WAT      O74437   4.113   1.481   5.257
24732WAT     H174438   4.164   1.514   5.178
24732WAT     H274439   4.067   1.395   5.234
24733WAT      O74440   3.314   4.848   1.092
24733WAT     H174441   3.372   4.907   1.036
24733WAT     H274442   3.359   4.760   1.105
24734WAT      O74443   6.183   5.958   6.471
24734WAT     H174444   6.122   5.889   6.511
24734WAT     H274445   6.135   6.046   6.464
24735WAT      O74446   8.222   2.310   6.423
24735WAT     H174447   8.317   2.343   6.429
24735WAT     H274448   8.161   2.388   6.412
24736WAT      O74449   7.098   6.333   8.338
24736WAT     H174450   7.181   6.326   8.394
24736WAT     H274451   7.053   6.244   8.334
24737WAT      O74452   3.569   7.326   0.811
24737WAT     H174453   3.543   7.392   0.740
24737WAT     H274454   3.495   7.260   0.823
24738WAT      O74455   6.873   8.001   4.040
24738WAT     H174456   6.784   7.984   3.999
24738WAT     H274457   6.945   7.975   3.976
24739WAT      O74458   7.355   8.377   4.629
24739WAT     H174459   7.303   8.448   4.580
24739WAT     H274460   7.327   8.376   4.725
24740WAT      O74461   5.448   4.629   8.659
24740WAT     H174462   5.513   4.559   8.688
24740WAT     H274463   5.381   4.646   8.732
24741WAT      O74464   3.544   1.416   9.298
24741WAT     H174465   3.508   1.348   9.234
24741WAT     H274466   3.507   1.506   9.275
24742WAT      O74467   8.295   4.139   3.822
24742WAT     H174468   8.371   4.083   3.855
24742WAT     H274469   8.289   4.222   3.876
24743WAT      O74470   1.815   8.038   3.882
24743WAT     H174471   1.820   8.047   3.783
24743WAT     H274472   1.731   8.080   3.915
24744WAT      O74473   8.209   8.992   1.469
24744WAT     H174474   8.213   9.059   1.395
24744WAT     H274475   8.259   9.026   1.548
24745WAT      O74476   1.264   8.763   0.136
24745WAT     H174477   1.343   8.800   0.185
24745WAT     H274478   1.195   8.835   0.125
24746WAT      O74479   4.481   7.116   8.962
24746WAT     H174480   4.502   7.174   8.884
24746WAT     H274481   4.415   7.046   8.934
24747WAT      O74482   2.211   5.433   8.302
24747WAT     H174483   2.217   5.372   8.381
24747WAT     H274484   2.174   5.521   8.331
24748WAT      O74485   1.180   7.130   1.575
24748WAT     H174486   1.106   7.064   1.590
24748WAT     H274487   1.244   7.126   1.651
24749WAT      O74488   5.463   1.049   3.569
24749WAT     H174489   5.414   1.103   3.500
24749WAT     H274490   5.544   1.100   3.599
24750WAT      O74491   7.706   0.047   0.835
24750WAT     H174492   7.770  -0.029   0.843
24750WAT     H274493   7.704   0.079   0.740
24751WAT      O74494   8.516   8.686   2.098
24751WAT     H174495   8.550   8.594   2.078
24751WAT     H274496   8.594   8.749   2.102
24752WAT      O74497   2.400   5.152   5.444
24752WAT     H174498   2.391   5.233   5.502
24752WAT     H274499   2.317   5.142   5.388
24753WAT      O74500   6.754   5.319   2.912
24753WAT     H174501   6.717   5.249   2.973
24753WAT     H274502   6.691   5.334   2.836
24754WAT      O74503   8.589   3.967   7.175
24754WAT     H174504   8.501   3.949   7.130
24754WAT     H274505   8.662   3.917   7.129
24755WAT      O74506   2.852   5.140   2.431
24755WAT     H174507   2.768   5.186   2.461
24755WAT     H274508   2.842   5.112   2.336
24756WAT      O74509   6.795   5.317   9.691
24756WAT     H174510   6.760   5.317   9.784
24756WAT     H274511   6.726   5.353   9.629
24757WAT      O74512   1.651   8.369   9.494
24757WAT     H174513   1.673   8.296   9.430
24757WAT     H274514   1.610   8.330   9.576
24758WAT      O74515   8.506   1.262   9.293
24758WAT     H174516   8.461   1.344   9.327
24758WAT     H274517   8.600   1.284   9.268
24759WAT      O74518   2.358   4.937   6.654
24759WAT     H174519   2.401   4.984   6.577
24759WAT     H274520   2.426   4.879   6.700
24760WAT      O74521   9.872   2.591   7.400
24760WAT     H174522   9.907   2.677   7.361
24760WAT     H274523   9.900   2.515   7.342
24761WAT      O74524   2.881   6.209   9.506
24761WAT     H174525   2.903   6.241   9.414
24761WAT     H274526   2.890   6.110   9.510
24762WAT      O74527   5.814   0.110   4.968
24762WAT     H174528   5.714   0.107   4.958
24762WAT     H274529   5.844   0.205   4.972
24763WAT      O74530   3.683   5.893   9.853
24763WAT     H174531   3.782   5.893   9.863
24763WAT     H274532   3.659   5.877   9.758
24764WAT      O74533   7.887   3.780   9.342
24764WAT     H174534   7.805   3.777   9.284
24764WAT     H274535   7.925   3.872   9.341
24765WAT      O74536   0.792   2.500   4.557
24765WAT     H174537   0.721   2.548   4.505
24765WAT     H274538   0.812   2.550   4.641
24766WAT      O74539   2.117   6.760   2.879
24766WAT     H174540   2.172   6.786   2.958
24766WAT     H274541   2.046   6.828   2.863
24767WAT      O74542   2.324   2.699   4.689
24767WAT     H174543   2.349   2.637   4.614
24767WAT     H274544   2.315   2.792   4.653
24768WAT      O74545   4.788   6.894   1.181
24768WAT     H174546   4.864   6.839   1.216
24768WAT     H274547   4.766   6.966   1.247
24769WAT      O74548   9.120   5.874   4.254
24769WAT     H174549   9.091   5.916   4.167
24769WAT     H274550   9.094   5.933   4.330
24770WAT      O74551   9.547   9.795   1.566
24770WAT     H174552   9.628   9.736   1.562
24770WAT     H274553   9.526   9.828   1.474
24771WAT      O74554   3.417   2.966   9.663
24771WAT     H174555   3.462   2.934   9.747
24771WAT     H274556   3.400   3.065   9.670
24772WAT      O74557   2.741   6.651   6.473
24772WAT     H174558   2.682   6.722   6.433
24772WAT     H274559   2.705   6.625   6.562
24773WAT      O74560   1.728   7.838   9.650
24773WAT     H174561   1.719   7.919   9.708
24773WAT     H274562   1.761   7.761   9.704
24774WAT      O74563   6.214   3.484   4.314
24774WAT     H174564   6.127   3.445   4.343
24774WAT     H274565   6.221   3.578   4.346
24775WAT      O74566   0.325   5.299   9.505
24775WAT     H174567   0.350   5.227   9.569
24775WAT     H274568   0.338   5.267   9.412
24776WAT      O74569   2.192   8.443   7.266
24776WAT     H174570   2.218   8.392   7.348
24776WAT     H274571   2.268   8.502   7.238
24777WAT      O74572   4.186   9.805   4.478
24777WAT     H174573   4.130   9.811   4.560
24777WAT     H274574   4.231   9.716   4.475
24778WAT      O74575   1.514   6.645   8.961
24778WAT     H174576   1.446   6.573   8.975
24778WAT     H274577   1.575   6.620   8.886
24779WAT      O74578   0.171   1.874   1.588
24779WAT     H174579   0.074   1.899   1.594
24779WAT     H274580   0.190   1.838   1.496
24780WAT      O74581   8.451   7.581   0.046
24780WAT     H174582   8.520   7.576   0.118
24780WAT     H274583   8.410   7.490   0.033
24781WAT      O74584   8.879   3.643   6.826
24781WAT     H174585   8.934   3.625   6.907
24781WAT     H274586   8.822   3.563   6.805
24782WAT      O74587   1.722   9.538   7.636
24782WAT     H174588   1.668   9.517   7.718
24782WAT     H274589   1.812   9.571   7.664
24783WAT      O74590   8.105   6.309   7.165
24783WAT     H174591   8.188   6.313   7.108
24783WAT     H274592   8.122   6.252   7.245
24784WAT      O74593   4.825   1.139   9.441
24784WAT     H174594   4.790   1.055   9.483
24784WAT     H274595   4.924   1.142   9.451
24785WAT      O74596   3.110   4.215   4.666
24785WAT     H174597   3.159   4.261   4.592
24785WAT     H274598   3.168   4.212   4.747
24786WAT      O74599   1.221   7.306   2.297
24786WAT     H174600   1.293   7.375   2.309
24786WAT     H274601   1.259   7.216   2.316
24787WAT      O74602   8.275   2.258   3.476
24787WAT     H174603   8.293   2.171   3.522
24787WAT     H274604   8.359   2.293   3.436
24788WAT      O74605   4.845   7.234   6.762
24788WAT     H174606   4.889   7.145   6.747
24788WAT     H274607   4.898   7.305   6.716
24789WAT      O74608   2.462   4.794   8.968
24789WAT     H174609   2.523   4.842   8.905
24789WAT     H274610   2.515   4.734   9.027
24790WAT      O74611   8.946   7.968   4.214
24790WAT     H174612   8.928   7.939   4.120
24790WAT     H274613   8.876   7.930   4.274
24791WAT      O74614   4.253   5.252   8.026
24791WAT     H174615   4.283   5.251   8.121
24791WAT     H274616   4.239   5.347   7.996
24792WAT      O74617   1.129   7.803   0.855
24792WAT     H174618   1.174   7.734   0.799
24792WAT     H274619   1.140   7.779   0.952
24793WAT      O74620   8.270   7.377   2.945
24793WAT     H174621   8.260   7.427   3.030
24793WAT     H274622   8.268   7.279   2.964
24794WAT      O74623   6.942   7.617   5.740
24794WAT     H174624   6.926   7.569   5.826
24794WAT     H274625   7.022   7.579   5.694
24795WAT      O74626   2.412   2.663   0.022
24795WAT     H174627   2.405   2.701   0.114
24795WAT     H274628   2.469   2.722  -0.035
24796WAT      O74629   9.363   7.632   4.249
24796WAT     H174630   9.438   7.566   4.246
24796WAT     H274631   9.303   7.609   4.326
24797WAT      O74632   0.200   8.790   1.899
24797WAT     H174633   0.125   8.845   1.862
24797WAT     H274634   0.253   8.846   1.963
24798WAT      O74635   5.376   1.972   8.402
24798WAT     H174636   5.472   1.995   8.384
24798WAT     H274637   5.331   2.050   8.445
24799WAT      O74638   7.935   4.808   7.121
24799WAT     H174639   7.963   4.780   7.213
24799WAT     H274640   7.893   4.898   7.124
24800WAT      O74641   9.514   2.720   6.458
24800WAT     H174642   9.524   2.795   6.523
24800WAT     H274643   9.445   2.656   6.491
24801WAT      O74644   5.857   9.537   1.492
24801WAT     H174645   5.911   9.521   1.575
24801WAT     H274646   5.766   9.497   1.504
24802WAT      O74647   0.071   6.931   3.579
24802WAT     H174648   0.076   6.954   3.482
24802WAT     H274649   0.074   7.016   3.633
24803WAT      O74650   6.387   0.639   4.155
24803WAT     H174651   6.463   0.692   4.118
24803WAT     H274652   6.417   0.545   4.169
24804WAT      O74653   3.069   0.095   7.629
24804WAT     H174654   3.111   0.022   7.576
24804WAT     H274655   3.123   0.179   7.620
24805WAT      O74656   9.705   3.497   7.244
24805WAT     H174657   9.664   3.517   7.333
24805WAT     H274658   9.759   3.413   7.251
24806WAT      O74659   1.278   0.331   2.640
24806WAT     H174660   1.263   0.390   2.719
24806WAT     H274661   1.309   0.241   2.670
24807WAT      O74662   2.494   6.212   1.480
24807WAT     H174663   2.502   6.194   1.382
24807WAT     H274664   2.430   6.287   1.495
24808WAT      O74665   2.834   1.969   8.848
24808WAT     H174666   2.810   2.049   8.902
24808WAT     H274667   2.877   1.999   8.762
24809WAT      O74668   4.970   3.705   3.089
24809WAT     H174669   4.888   3.729   3.141
24809WAT     H274670   5.017   3.788   3.059
24810WAT      O74671   6.060   1.300   2.565
24810WAT     H174672   5.962   1.293   2.584
24810WAT     H274673   6.075   1.364   2.489
24811WAT      O74674   7.008   9.461   2.819
24811WAT     H174675   7.032   9.556   2.799
24811WAT     H274676   6.995   9.412   2.733
24812WAT      O74677   1.891   4.873   8.128
24812WAT     H174678   1.860   4.825   8.211
24812WAT     H274679   1.842   4.960   8.121
24813WAT      O74680   3.484   8.043   1.222
24813WAT     H174681   3.484   8.134   1.181
24813WAT     H274682   3.570   7.996   1.201
24814WAT      O74683   9.202   1.316   2.058
24814WAT     H174684   9.133   1.329   1.986
24814WAT     H274685   9.175   1.239   2.117
24815WAT      O74686   2.869   7.776   3.810
24815WAT     H174687   2.899   7.747   3.720
24815WAT     H274688   2.796   7.717   3.843
24816WAT      O74689   4.158   9.421   0.185
24816WAT     H174690   4.198   9.398   0.274
24816WAT     H274691   4.076   9.477   0.199
24817WAT      O74692   5.896   9.835   8.015
24817WAT     H174693   5.878   9.746   7.973
24817WAT     H274694   5.877   9.907   7.949
24818WAT      O74695   1.498   1.697   4.883
24818WAT     H174696   1.524   1.610   4.842
24818WAT     H274697   1.580   1.755   4.893
24819WAT      O74698   2.106   4.220   9.857
24819WAT     H174699   2.015   4.245   9.825
24819WAT     H274700   2.145   4.295   9.910
24820WAT      O74701   0.543   0.479   2.189
24820WAT     H174702   0.467   0.541   2.171
24820WAT     H274703   0.602   0.518   2.260
24821WAT      O74704   0.288   9.044   7.118
24821WAT     H174705   0.231   8.963   7.139
24821WAT     H274706   0.240   9.102   7.053
24822WAT      O74707   7.477   4.022   3.795
24822WAT     H174708   7.458   3.927   3.818
24822WAT     H274709   7.461   4.079   3.876
24823WAT      O74710   6.977   8.280   9.528
24823WAT     H174711   6.955   8.266   9.432
24823WAT     H274712   6.963   8.376   9.552
24824WAT      O74713   4.102   6.286   0.867
24824WAT     H174714   4.085   6.253   0.774
24824WAT     H274715   4.168   6.227   0.912
24825WAT      O74716   9.255   7.598   0.370
24825WAT     H174717   9.172   7.552   0.402
24825WAT     H274718   9.235   7.694   0.351
24826WAT      O74719   8.513   0.516   5.886
24826WAT     H174720   8.470   0.431   5.916
24826WAT     H274721   8.610   0.501   5.867
24827WAT      O74722   0.950   1.208   4.159
24827WAT     H174723   0.996   1.136   4.212
24827WAT     H274724   0.936   1.177   4.065
24828WAT      O74725   9.378   1.688   6.467
24828WAT     H174726   9.330   1.601   6.480
24828WAT     H274727   9.414   1.719   6.555
24829WAT      O74728   1.467   5.607   6.483
24829WAT     H174729   1.515   5.519   6.482
24829WAT     H274730   1.486   5.655   6.569
24830WAT      O74731   6.996   3.523   8.513
24830WAT     H174732   6.955   3.431   8.513
24830WAT     H274733   6.925   3.590   8.490
24831WAT      O74734   0.405   7.185   2.113
24831WAT     H174735   0.399   7.100   2.166
24831WAT     H274736   0.322   7.239   2.127
24832WAT      O74737   7.767   8.426   4.038
24832WAT     H174738   7.821   8.414   4.121
24832WAT     H274739   7.808   8.498   3.982
24833WAT      O74740   9.016   7.791   8.671
24833WAT     H174741   8.961   7.758   8.748
24833WAT     H274742   8.956   7.827   8.600
24834WAT      O74743   8.428   6.194   3.708
24834WAT     H174744   8.519   6.201   3.749
24834WAT     H274745   8.433   6.218   3.612
24835WAT      O74746   4.578   7.083   3.400
24835WAT     H174747   4.503   7.138   3.363
24835WAT     H274748   4.627   7.136   3.469
24836WAT      O74749   9.271   3.754   9.024
24836WAT     H174750   9.287   3.714   9.114
24836WAT     H274751   9.186   3.807   9.025
24837WAT      O74752   5.676   6.007   6.681
24837WAT     H174753   5.626   6.015   6.595
24837WAT     H274754   5.611   5.992   6.756
24838WAT      O74755   0.434   6.343   4.478
24838WAT     H174756   0.410   6.393   4.394
24838WAT     H274757   0.369   6.366   4.550
24839WAT      O74758   3.916   7.105   9.504
24839WAT     H174759   3.845   7.166   9.468
24839WAT     H274760   3.939   7.037   9.435
24840WAT      O74761   5.136   4.496   1.265
24840WAT     H174762   5.227   4.485   1.305
24840WAT     H274763   5.143   4.503   1.166
24841WAT      O74764   5.633   6.966   8.409
24841WAT     H174765   5.686   6.930   8.485
24841WAT     H274766   5.639   7.066   8.408
24842WAT      O74767   4.444   1.260   9.797
24842WAT     H174768   4.479   1.189   9.736
24842WAT     H274769   4.344   1.256   9.799
24843WAT      O74770   6.409   4.052   2.202
24843WAT     H174771   6.327   3.997   2.216
24843WAT     H274772   6.390   4.124   2.136
24844WAT      O74773   6.662   8.631   0.484
24844WAT     H174774   6.564   8.621   0.469
24844WAT     H274775   6.682   8.628   0.582
24845WAT      O74776   1.099   3.797   1.465
24845WAT     H174777   1.180   3.807   1.408
24845WAT     H274778   1.123   3.815   1.560
24846WAT      O74779   8.534   2.482   9.006
24846WAT     H174780   8.591   2.500   9.087
24846WAT     H274781   8.563   2.541   8.931
24847WAT      O74782   3.763   0.823   2.859
24847WAT     H174783   3.688   0.820   2.793
24847WAT     H274784   3.728   0.798   2.950
24848WAT      O74785   1.536   8.448   6.505
24848WAT     H174786   1.514   8.358   6.467
24848WAT     H274787   1.547   8.514   6.431
24849WAT      O74788   0.558   3.764   9.406
24849WAT     H174789   0.609   3.700   9.463
24849WAT     H274790   0.581   3.857   9.432
24850WAT      O74791   6.564   5.385   2.067
24850WAT     H174792   6.479   5.425   2.034
24850WAT     H274793   6.636   5.455   2.067
24851WAT      O74794   3.044   0.121   9.304
24851WAT     H174795   3.037   0.100   9.401
24851WAT     H274796   3.015   0.215   9.287
24852WAT      O74797   3.364   7.215   1.899
24852WAT     H174798   3.445   7.169   1.864
24852WAT     H274799   3.340   7.291   1.839
24853WAT      O74800   3.106   2.724   3.325
24853WAT     H174801   3.196   2.736   3.284
24853WAT     H274802   3.036   2.765   3.266
24854WAT      O74803   1.087   5.421   4.648
24854WAT     H174804   0.998   5.386   4.616
24854WAT     H274805   1.075   5.466   4.736
24855WAT      O74806   1.780   9.361   9.286
24855WAT     H174807   1.774   9.271   9.329
24855WAT     H274808   1.818   9.427   9.351
24856WAT      O74809   3.838   5.684   5.204
24856WAT     H174810   3.872   5.776   5.186
24856WAT     H274811   3.909   5.632   5.251
24857WAT      O74812   2.390   6.437   6.896
24857WAT     H174813   2.355   6.348   6.925
24857WAT     H274814   2.489   6.434   6.891
24858WAT      O74815   0.031   8.548   5.751
24858WAT     H174816   0.005   8.544   5.848
24858WAT     H274817   0.086   8.629   5.734
24859WAT      O74818   7.743   0.347   1.831
24859WAT     H174819   7.714   0.428   1.781
24859WAT     H274820   7.830   0.365   1.878
24860WAT      O74821   6.245   1.771   3.658
24860WAT     H174822   6.267   1.713   3.737
24860WAT     H274823   6.287   1.734   3.576
24861WAT      O74824   6.966   2.708   5.655
24861WAT     H174825   6.958   2.688   5.557
24861WAT     H274826   7.057   2.745   5.673
24862WAT      O74827   7.492   0.947   7.099
24862WAT     H174828   7.455   0.913   7.186
24862WAT     H274829   7.550   0.877   7.058
24863WAT      O74830   6.008   9.158   3.682
24863WAT     H174831   6.066   9.078   3.696
24863WAT     H274832   6.063   9.241   3.692
24864WAT      O74833   0.041   9.589   2.451
24864WAT     H174834   0.089   9.663   2.499
24864WAT     H274835   0.097   9.507   2.451
24865WAT      O74836   1.876   7.273   2.994
24865WAT     H174837   1.878   7.297   3.091
24865WAT     H274838   1.963   7.231   2.968
24866WAT      O74839   4.391   3.638   1.274
24866WAT     H174840   4.328   3.716   1.279
24866WAT     H274841   4.406   3.613   1.179
24867WAT      O74842   9.629   4.706   1.790
24867WAT     H174843   9.715   4.754   1.771
24867WAT     H274844   9.634   4.613   1.755
24868WAT      O74845   8.909   1.386   6.951
24868WAT     H174846   8.844   1.461   6.941
24868WAT     H274847   8.993   1.408   6.901
24869WAT      O74848   9.424   4.889   8.079
24869WAT     H174849   9.494   4.857   8.143
24869WAT     H274850   9.429   4.834   7.995
24870WAT      O74851   1.847   2.533   0.705
24870WAT     H174852   1.780   2.593   0.662
24870WAT     H274853   1.805   2.487   0.783
24871WAT      O74854   6.377   1.609   6.115
24871WAT     H174855   6.474   1.628   6.127
24871WAT     H274856   6.325   1.649   6.191
24872WAT      O74857   4.646   1.346   9.481
24872WAT     H174858   4.709   1.268   9.477
24872WAT     H274859   4.556   1.317   9.449
24873WAT      O74860   8.019   0.502   8.705
24873WAT     H174861   8.059   0.466   8.789
24873WAT     H274862   8.090   0.542   8.648
24874WAT      O74863   6.284   0.444   0.372
24874WAT     H174864   6.194   0.403   0.357
24874WAT     H274865   6.289   0.481   0.465
24875WAT      O74866   6.689   8.373   5.000
24875WAT     H174867   6.607   8.430   4.992
24875WAT     H274868   6.768   8.430   5.022
24876WAT      O74869   8.228   3.351   7.626
24876WAT     H174870   8.306   3.413   7.617
24876WAT     H274871   8.146   3.395   7.589
24877WAT      O74872   2.364   6.155   3.216
24877WAT     H174873   2.400   6.212   3.142
24877WAT     H274874   2.381   6.059   3.195
24878WAT      O74875   0.736   1.076   7.242
24878WAT     H174876   0.706   1.019   7.318
24878WAT     H274877   0.704   1.037   7.156
24879WAT      O74878   5.683   1.368   8.553
24879WAT     H174879   5.609   1.434   8.567
24879WAT     H274880   5.704   1.362   8.456
24880WAT      O74881   5.479   0.844   4.493
24880WAT     H174882   5.489   0.796   4.580
24880WAT     H274883   5.501   0.941   4.505
24881WAT      O74884   8.897   5.034   0.103
24881WAT     H174885   8.888   5.133   0.108
24881WAT     H274886   8.833   4.992   0.168
24882WAT      O74887   3.941   0.721   0.185
24882WAT     H174888   4.037   0.699   0.169
24882WAT     H274889   3.929   0.820   0.177
24883WAT      O74890   3.997   7.421   5.945
24883WAT     H174891   4.047   7.338   5.970
24883WAT     H274892   3.925   7.437   6.011
24884WAT      O74893   1.071   6.315   7.814
24884WAT     H174894   0.976   6.289   7.796
24884WAT     H274895   1.131   6.237   7.798
24885WAT      O74896   0.020   0.849   9.205
24885WAT     H174897   0.070   0.831   9.121
24885WAT     H274898   0.056   0.931   9.248
24886WAT      O74899   7.327   3.898   2.751
24886WAT     H174900   7.403   3.845   2.713
24886WAT     H274901   7.277   3.941   2.676
24887WAT      O74902   6.298   9.442   8.413
24887WAT     H174903   6.211   9.396   8.431
24887WAT     H274904   6.302   9.469   8.317
24888WAT      O74905   3.827   6.501   6.755
24888WAT     H174906   3.797   6.410   6.727
24888WAT     H274907   3.925   6.499   6.776
24889WAT      O74908   7.878   4.115   5.705
24889WAT     H174909   7.867   4.016   5.717
24889WAT     H274910   7.943   4.149   5.773
24890WAT      O74911   5.833   3.751   5.179
24890WAT     H174912   5.840   3.823   5.109
24890WAT     H274913   5.917   3.697   5.179
24891WAT      O74914   8.936   0.230   8.325
24891WAT     H174915   8.969   0.286   8.250
24891WAT     H274916   8.980   0.259   8.411
24892WAT      O74917   6.773   4.633   0.659
24892WAT     H174918   6.697   4.569   0.669
24892WAT     H274919   6.779   4.692   0.740
24893WAT      O74920   5.891   2.363   6.357
24893WAT     H174921   5.943   2.435   6.312
24893WAT     H274922   5.804   2.400   6.389
24894WAT      O74923   6.682   5.054   4.537
24894WAT     H174924   6.703   5.151   4.548
24894WAT     H274925   6.605   5.043   4.474
24895WAT      O74926   3.388   3.196   4.771
24895WAT     H174927   3.361   3.290   4.753
24895WAT     H274928   3.483   3.182   4.743
24896WAT      O74929   4.934   1.239   9.771
24896WAT     H174930   4.984   1.310   9.720
24896WAT     H274931   4.837   1.263   9.775
24897WAT      O74932   0.666   6.852   4.113
24897WAT     H174933   0.659   6.788   4.189
24897WAT     H274934   0.742   6.915   4.129
24898WAT      O74935   1.838   6.110   7.332
24898WAT     H174936   1.835   6.011   7.347
24898WAT     H274937   1.755   6.152   7.369
24899WAT      O74938   4.877   8.974   0.567
24899WAT     H174939   4.950   8.963   0.499
24899WAT     H274940   4.825   9.057   0.547
24900WAT      O74941   7.870   1.766   2.441
24900WAT     H174942   7.953   1.776   2.496
24900WAT     H274943   7.828   1.856   2.428
24901WAT      O74944   0.354   8.375   0.888
24901WAT     H174945   0.324   8.289   0.846
24901WAT     H274946   0.454   8.382   0.882
24902WAT      O74947   7.268   2.932   0.491
24902WAT     H174948   7.242   2.957   0.398
24902WAT     H274949   7.315   3.009   0.534
24903WAT      O74950   9.063   0.475   2.916
24903WAT     H174951   9.115   0.554   2.883
24903WAT     H274952   8.991   0.452   2.851
24904WAT      O74953   5.646   2.639   4.915
24904WAT     H174954   5.563   2.584   4.903
24904WAT     H274955   5.652   2.670   5.010
24905WAT      O74956   9.258   0.705   4.161
24905WAT     H174957   9.302   0.754   4.236
24905WAT     H274958   9.247   0.766   4.082
24906WAT      O74959   9.214   9.511   9.391
24906WAT     H174960   9.175   9.588   9.342
24906WAT     H274961   9.141   9.447   9.416
24907WAT      O74962   7.702   5.513   3.466
24907WAT     H174963   7.694   5.542   3.371
24907WAT     H274964   7.724   5.592   3.523
24908WAT      O74965   2.931   6.336   3.085
24908WAT     H174966   2.874   6.387   3.149
24908WAT     H274967   2.928   6.381   2.996
24909WAT      O74968   8.893   4.523   8.266
24909WAT     H174969   8.910   4.600   8.327
24909WAT     H274970   8.846   4.451   8.316
24910WAT      O74971   5.141   0.732   6.191
24910WAT     H174972   5.179   0.730   6.283
24910WAT     H274973   5.083   0.813   6.180
24911WAT      O74974   5.274   6.351   4.205
24911WAT     H174975   5.212   6.283   4.166
24911WAT     H274976   5.228   6.439   4.211
24912WAT      O74977   8.579   3.944   3.936
24912WAT     H174978   8.657   3.905   3.986
24912WAT     H274979   8.590   3.925   3.839
24913WAT      O74980   6.274   0.927   2.087
24913WAT     H174981   6.339   0.872   2.140
24913WAT     H274982   6.301   0.927   1.991
24914WAT      O74983   2.789   4.204   3.042
24914WAT     H174984   2.732   4.128   3.073
24914WAT     H274985   2.852   4.231   3.115
24915WAT      O74986   5.820   5.727   8.909
24915WAT     H174987   5.774   5.686   8.988
24915WAT     H274988   5.754   5.778   8.854
24916WAT      O74989   7.564   9.229   6.362
24916WAT     H174990   7.590   9.201   6.269
24916WAT     H274991   7.621   9.181   6.428
24917WAT      O74992   5.304   3.185   8.502
24917WAT     H174993   5.332   3.091   8.479
24917WAT     H274994   5.255   3.184   8.589
24918WAT      O74995   8.069   1.556   3.450
24918WAT     H174996   7.986   1.555   3.394
24918WAT     H274997   8.137   1.495   3.410
24919WAT      O74998   3.967   1.688   6.487
24919WAT     H174999   3.934   1.595   6.471
24919WAT     H275000   4.052   1.703   6.436
24920WAT      O75001   9.476   8.334   2.607
24920WAT     H175002   9.379   8.331   2.632
24920WAT     H275003   9.502   8.428   2.585
24921WAT      O75004   2.147   9.533   3.692
24921WAT     H175005   2.091   9.489   3.622
24921WAT     H275006   2.232   9.567   3.651
24922WAT      O75007   7.951   3.698   0.962
24922WAT     H175008   8.020   3.749   1.014
24922WAT     H275009   7.861   3.714   1.002
24923WAT      O75010   6.781   3.299   6.787
24923WAT     H175011   6.857   3.279   6.726
24923WAT     H275012   6.701   3.329   6.734
24924WAT      O75013   5.961   2.171   2.216
24924WAT     H175014   5.906   2.242   2.172
24924WAT     H275015   5.993   2.106   2.147
24925WAT      O75016   8.495   2.780   5.276
24925WAT     H175017   8.491   2.747   5.370
24925WAT     H275018   8.460   2.710   5.214
24926WAT      O75019   7.788   4.902   3.432
24926WAT     H175020   7.698   4.944   3.449
24926WAT     H275021   7.843   4.904   3.515
24927WAT      O75022   0.604   9.353   5.928
24927WAT     H175023   0.644   9.379   5.840
24927WAT     H275024   0.667   9.293   5.977
24928WAT      O75025   5.693   6.226   9.437
24928WAT     H175026   5.714   6.240   9.340
24928WAT     H275027   5.690   6.128   9.457
24929WAT      O75028   9.868   2.641   9.798
24929WAT     H175029   9.841   2.710   9.731
24929WAT     H275030   9.880   2.684   9.887
24930WAT      O75031   1.952   1.977   3.275
24930WAT     H175032   1.988   2.060   3.318
24930WAT     H275033   1.872   1.946   3.325
24931WAT      O75034   3.234   5.003   4.807
24931WAT     H175035   3.240   5.097   4.772
24931WAT     H275036   3.323   4.958   4.796
24932WAT      O75037   7.328   5.141   5.771
24932WAT     H175038   7.417   5.144   5.817
24932WAT     H275039   7.337   5.182   5.680
24933WAT      O75040   2.432   8.319   4.800
24933WAT     H175041   2.366   8.253   4.764
24933WAT     H275042   2.389   8.409   4.809
24934WAT      O75043   4.265   8.327   5.923
24934WAT     H175044   4.209   8.379   5.988
24934WAT     H275045   4.222   8.239   5.905
24935WAT      O75046   4.078   9.249   5.878
24935WAT     H175047   4.093   9.155   5.907
24935WAT     H275048   4.016   9.294   5.942
24936WAT      O75049   4.255   0.593   8.971
24936WAT     H175050   4.263   0.631   9.063
24936WAT     H275051   4.209   0.659   8.912
24937WAT      O75052   2.212   7.134   9.687
24937WAT     H175053   2.129   7.079   9.700
24937WAT     H275054   2.291   7.083   9.722
24938WAT      O75055   4.905   7.851   6.613
24938WAT     H175056   4.916   7.781   6.683
24938WAT     H275057   4.808   7.874   6.604
24939WAT      O75058   6.698   3.395   0.436
24939WAT     H175059   6.740   3.454   0.504
24939WAT     H275060   6.599   3.413   0.432
24940WAT      O75061   9.745   8.410   6.919
24940WAT     H175062   9.814   8.482   6.925
24940WAT     H275063   9.757   8.347   6.996
24941WAT      O75064   7.910   0.474   4.651
24941WAT     H175065   7.856   0.557   4.645
24941WAT     H275066   7.955   0.470   4.739
24942WAT      O75067   5.961   6.014   6.814
24942WAT     H175068   5.913   6.101   6.831
24942WAT     H275069   5.918   5.942   6.868
24943WAT      O75070   6.542   3.394   4.390
24943WAT     H175071   6.473   3.364   4.324
24943WAT     H275072   6.616   3.327   4.394
24944WAT      O75073   8.568   5.438   6.325
24944WAT     H175074   8.577   5.359   6.264
24944WAT     H275075   8.624   5.513   6.291
24945WAT      O75076   1.960   4.976   2.762
24945WAT     H175077   2.020   5.009   2.690
24945WAT     H275078   1.896   5.048   2.788
24946WAT      O75079   7.262   1.438   3.793
24946WAT     H175080   7.228   1.372   3.859
24946WAT     H275081   7.343   1.401   3.747
24947WAT      O75082   0.374   8.541   1.412
24947WAT     H175083   0.308   8.486   1.361
24947WAT     H275084   0.329   8.584   1.490
24948WAT      O75085   1.451   3.949   5.475
24948WAT     H175086   1.376   3.910   5.528
24948WAT     H275087   1.518   3.991   5.536
24949WAT      O75088   5.896   7.986   9.115
24949WAT     H175089   5.843   8.066   9.145
24949WAT     H275090   5.977   7.976   9.172
24950WAT      O75091   0.670   2.587   2.072
24950WAT     H175092   0.579   2.626   2.056
24950WAT     H275093   0.671   2.493   2.041
24951WAT      O75094   7.966   0.076   9.307
24951WAT     H175095   7.907   0.051   9.230
24951WAT     H275096   7.912   0.124   9.376
24952WAT      O75097   5.081   4.151   1.979
24952WAT     H175098   5.176   4.122   1.972
24952WAT     H275099   5.062   4.180   2.073
24953WAT      O75100   6.120   7.730   3.786
24953WAT     H175101   6.039   7.680   3.815
24953WAT     H275102   6.097   7.793   3.712
24954WAT      O75103   3.516   9.007   9.040
24954WAT     H175104   3.454   9.060   8.982
24954WAT     H275105   3.501   8.909   9.024
24955WAT      O75106   6.617   4.169   8.412
24955WAT     H175107   6.597   4.186   8.509
24955WAT     H275108   6.716   4.163   8.399
24956WAT      O75109   2.774   8.642   7.414
24956WAT     H175110   2.755   8.607   7.322
24956WAT     H275111   2.696   8.623   7.474
24957WAT      O75112   0.320   3.186   1.520
24957WAT     H175113   0.335   3.158   1.426
24957WAT     H275114   0.318   3.105   1.579
24958WAT      O75115   3.203   4.098   2.665
24958WAT     H175116   3.258   4.172   2.627
24958WAT     H275117   3.240   4.071   2.753
24959WAT      O75118   1.327   4.890   7.754
24959WAT     H175119   1.246   4.944   7.775
24959WAT     H275120   1.299   4.803   7.714
24960WAT      O75121   0.226   9.348   5.524
24960WAT     H175122   0.137   9.355   5.478
24960WAT     H275123   0.213   9.313   5.617
24961WAT      O75124   3.961   8.683   7.539
24961WAT     H175125   3.896   8.755   7.564
24961WAT     H275126   4.051   8.704   7.577
24962WAT      O75127   4.400   3.570   1.601
24962WAT     H175128   4.366   3.494   1.657
24962WAT     H275129   4.426   3.535   1.511
24963WAT      O75130   2.974   1.933   0.977
24963WAT     H175131   2.918   1.873   1.034
24963WAT     H275132   2.921   2.014   0.953
24964WAT      O75133   5.317   4.379   0.304
24964WAT     H175134   5.315   4.338   0.213
24964WAT     H275135   5.241   4.343   0.358
24965WAT      O75136   1.434   2.395   0.627
24965WAT     H175137   1.479   2.394   0.538
24965WAT     H275138   1.336   2.381   0.615
24966WAT      O75139   7.087   1.331   2.448
24966WAT     H175140   7.120   1.417   2.486
24966WAT     H275141   7.164   1.273   2.425
24967WAT      O75142   3.024   8.496   5.437
24967WAT     H175143   2.971   8.500   5.522
24967WAT     H275144   3.121   8.503   5.458
24968WAT      O75145   7.582   8.363   2.245
24968WAT     H175146   7.609   8.394   2.154
24968WAT     H275147   7.488   8.389   2.263
24969WAT      O75148   5.306   2.681   5.281
24969WAT     H175149   5.282   2.774   5.255
24969WAT     H275150   5.249   2.616   5.230
24970WAT      O75151   4.227   5.511   8.257
24970WAT     H175152   4.226   5.424   8.307
24970WAT     H275153   4.306   5.565   8.287
24971WAT      O75154   8.530   7.946   4.744
24971WAT     H175155   8.613   7.914   4.791
24971WAT     H275156   8.515   7.891   4.662
24972WAT      O75157   5.139   4.321   8.276
24972WAT     H175158   5.214   4.297   8.215
24972WAT     H275159   5.111   4.415   8.259
24973WAT      O75160   6.688   5.819   2.094
24973WAT     H175161   6.601   5.789   2.133
24973WAT     H275162   6.737   5.740   2.057
24974WAT      O75163   7.560   1.815   2.606
24974WAT     H175164   7.491   1.769   2.662
24974WAT     H275165   7.650   1.803   2.647
24975WAT      O75166   7.272   9.388   8.548
24975WAT     H175167   7.323   9.370   8.463
24975WAT     H275168   7.188   9.333   8.548
24976WAT      O75169   5.243   3.310   9.315
24976WAT     H175170   5.261   3.265   9.228
24976WAT     H275171   5.178   3.255   9.368
24977WAT      O75172   5.081   8.980   5.991
24977WAT     H175173   5.050   8.944   5.903
24977WAT     H275174   5.152   9.049   5.976
24978WAT      O75175   7.191   8.859   6.054
24978WAT     H175176   7.169   8.764   6.032
24978WAT     H275177   7.262   8.892   5.992
24979WAT      O75178   4.339   6.363   2.580
24979WAT     H175179   4.297   6.454   2.587
24979WAT     H275180   4.299   6.314   2.503
24980WAT      O75181   8.952   3.111   3.226
24980WAT     H175182   8.891   3.119   3.304
24980WAT     H275183   8.987   3.018   3.220
24981WAT      O75184   7.310   4.441   7.036
24981WAT     H175185   7.335   4.520   7.091
24981WAT     H275186   7.317   4.464   6.939
24982WAT      O75187   0.461   4.187   9.503
24982WAT     H175188   0.491   4.213   9.595
24982WAT     H275189   0.530   4.129   9.460
24983WAT      O75190   8.755   3.147   3.408
24983WAT     H175191   8.820   3.144   3.484
24983WAT     H275192   8.666   3.113   3.438
24984WAT      O75193   8.873   2.653   3.593
24984WAT     H175194   8.948   2.662   3.658
24984WAT     H275195   8.907   2.670   3.500
24985WAT      O75196   5.727   4.595   9.525
24985WAT     H175197   5.687   4.607   9.434
24985WAT     H275198   5.827   4.595   9.518
24986WAT      O75199   3.916   7.235   3.041
24986WAT     H175200   3.836   7.185   3.074
24986WAT     H275201   3.900   7.265   2.947
24987WAT      O75202   6.923   1.388   9.295
24987WAT     H175203   6.878   1.322   9.356
24987WAT     H275204   7.016   1.406   9.327
24988WAT      O75205   3.234   0.018   1.842
24988WAT     H175206   3.150  -0.001   1.792
24988WAT     H275207   3.241  -0.043   1.920
24989WAT      O75208   4.022   6.152   4.424
24989WAT     H175209   4.109   6.178   4.382
24989WAT     H275210   4.026   6.057   4.454
24990WAT      O75211   0.014   7.537   8.726
24990WAT     H175212   0.101   7.560   8.683
24990WAT     H275213  -0.027   7.619   8.765
24991WAT      O75214   8.949   1.056   3.654
24991WAT     H175215   9.033   1.088   3.610
24991WAT     H275216   8.909   0.983   3.599
24992WAT      O75217   6.149   0.056   1.421
24992WAT     H175218   6.235   0.058   1.473
24992WAT     H275219   6.118   0.149   1.405
24993WAT      O75220   0.326   6.155   0.563
24993WAT     H175221   0.288   6.066   0.589
24993WAT     H275222   0.265   6.199   0.498
24994WAT      O75223   0.447   2.721   2.030
24994WAT     H175224   0.501   2.805   2.028
24994WAT     H275225   0.392   2.719   2.113
24995WAT      O75226   3.388   2.868   0.979
24995WAT     H175227   3.458   2.801   1.005
24995WAT     H275228   3.406   2.901   0.887
24996WAT      O75229   5.912   1.297   6.258
24996WAT     H175230   5.982   1.248   6.206
24996WAT     H275231   5.952   1.380   6.297
24997WAT      O75232   8.123   9.578   0.544
24997WAT     H175233   8.214   9.574   0.502
24997WAT     H275234   8.132   9.585   0.643
24998WAT      O75235   4.281   0.218   0.183
24998WAT     H175236   4.324   0.233   0.094
24998WAT     H275237   4.287   0.122   0.207
24999WAT      O75238   3.942   0.926   2.692
24999WAT     H175239   3.929   1.023   2.670
24999WAT     H275240   3.879   0.900   2.765
25000WAT      O75241   6.384   0.201   0.022
25000WAT     H175242   6.406   0.248  -0.063
25000WAT     H275243   6.330   0.120   0.003
25001WAT      O75244   5.697   3.881   4.233
25001WAT     H175245   5.614   3.848   4.276
25001WAT     H275246   5.764   3.907   4.303
25002WAT      O75247   2.640   2.540   7.604
25002WAT     H175248   2.714   2.571   7.663
25002WAT     H275249   2.589   2.619   7.570
25003WAT      O75250   5.969   0.020   7.005
25003WAT     H175251   5.888  -0.033   6.979
25003WAT     H275252   6.029  -0.036   7.061
25004WAT      O75253   4.640   0.151   6.420
25004WAT     H175254   4.574   0.219   6.452
25004WAT     H275255   4.620   0.063   6.462
25005WAT      O75256   6.505   6.784   4.670
25005WAT     H175257   6.488   6.697   4.716
25005WAT     H275258   6.450   6.788   4.586
25006WAT      O75259   4.475   3.244   3.182
25006WAT     H175260   4.412   3.263   3.258
25006WAT     H275261   4.464   3.315   3.112
25007WAT      O75262   4.478   3.548   6.442
25007WAT     H175263   4.539   3.626   6.462
25007WAT     H275264   4.384   3.580   6.437
25008WAT      O75265   8.030   4.710   3.071
25008WAT     H175266   8.103   4.678   3.131
25008WAT     H275267   7.972   4.775   3.121
25009WAT      O75268   5.796   8.745   1.991
25009WAT     H175269   5.729   8.695   2.045
25009WAT     H275270   5.887   8.704   2.003
25010WAT      O75271   7.670   3.425   1.385
25010WAT     H175272   7.722   3.412   1.301
25010WAT     H275273   7.620   3.512   1.380
25011WAT      O75274   6.128   2.663   6.007
25011WAT     H175275   6.219   2.622   6.006
25011WAT     H275276   6.081   2.640   5.922
25012WAT      O75277   6.194   8.232   5.094
25012WAT     H175278   6.230   8.214   5.185
25012WAT     H275279   6.198   8.330   5.075
25013WAT      O75280   0.834   6.197   7.749
25013WAT     H175281   0.770   6.194   7.826
25013WAT     H275282   0.860   6.104   7.724
25014WAT      O75283   2.039   1.566   1.407
25014WAT     H175284   2.021   1.637   1.476
25014WAT     H275285   2.106   1.501   1.443
25015WAT      O75286   3.407   1.609   6.619
25015WAT     H175287   3.409   1.601   6.719
25015WAT     H275288   3.490   1.570   6.580
25016WAT      O75289   4.346   5.273   2.420
25016WAT     H175290   4.388   5.193   2.465
25016WAT     H275291   4.247   5.268   2.429
25017WAT      O75292   7.370   9.508   7.704
25017WAT     H175293   7.359   9.588   7.646
25017WAT     H275294   7.369   9.536   7.800
25018WAT      O75295   8.613   0.570   5.025
25018WAT     H175296   8.627   0.498   5.093
25018WAT     H275297   8.672   0.648   5.048
25019WAT      O75298   7.477   3.606   8.427
25019WAT     H175299   7.423   3.524   8.448
25019WAT     H275300   7.569   3.595   8.465
25020WAT      O75301   9.153   6.694   4.593
25020WAT     H175302   9.076   6.673   4.653
25020WAT     H275303   9.235   6.710   4.648
25021WAT      O75304   0.320   5.105   7.581
25021WAT     H175305   0.238   5.147   7.543
25021WAT     H275306   0.297   5.054   7.663
25022WAT      O75307   6.987   0.509   3.037
25022WAT     H175308   7.024   0.483   2.948
25022WAT     H275309   6.985   0.430   3.097
25023WAT      O75310   5.371   8.888   8.736
25023WAT     H175311   5.374   8.864   8.639
25023WAT     H275312   5.294   8.841   8.779
25024WAT      O75313   4.861   2.503   1.907
25024WAT     H175314   4.860   2.422   1.849
25024WAT     H275315   4.794   2.570   1.873
25025WAT      O75316   5.110   5.076   4.216
25025WAT     H175317   5.143   5.170   4.214
25025WAT     H275318   5.161   5.021   4.149
25026WAT      O75319   7.771   0.678   9.006
25026WAT     H175320   7.758   0.656   8.909
25026WAT     H275321   7.765   0.778   9.018
25027WAT      O75322   4.160   6.889   3.529
25027WAT     H175323   4.078   6.893   3.472
25027WAT     H275324   4.177   6.795   3.558
25028WAT      O75325   2.013   8.317   4.775
25028WAT     H175326   2.089   8.298   4.837
25028WAT     H275327   1.941   8.250   4.788
25029WAT      O75328   7.299   2.428   5.879
25029WAT     H175329   7.205   2.397   5.862
25029WAT     H275330   7.301   2.488   5.958
25030WAT      O75331   1.600   3.330   6.267
25030WAT     H175332   1.656   3.275   6.205
25030WAT     H275333   1.576   3.275   6.347
25031WAT      O75334   6.986   7.024   3.388
25031WAT     H175335   7.033   7.045   3.474
25031WAT     H275336   7.029   6.945   3.345
25032WAT      O75337   6.304   0.560   0.630
25032WAT     H175338   6.393   0.541   0.673
25032WAT     H275339   6.234   0.567   0.700
25033WAT      O75340   4.646   8.959   4.796
25033WAT     H175341   4.658   8.876   4.850
25033WAT     H275342   4.587   9.023   4.845
25034WAT      O75343   5.661   7.853   5.337
25034WAT     H175344   5.726   7.928   5.346
25034WAT     H275345   5.569   7.891   5.326
25035WAT      O75346   5.117   5.831   3.616
25035WAT     H175347   5.208   5.817   3.575
25035WAT     H275348   5.127   5.842   3.715
25036WAT      O75349   9.810   7.768   6.892
25036WAT     H175350   9.821   7.737   6.798
25036WAT     H275351   9.738   7.836   6.897
25037WAT      O75352   5.823   9.137   4.929
25037WAT     H175353   5.827   9.038   4.918
25037WAT     H275354   5.785   9.160   5.018
25038WAT      O75355   4.640   1.034   8.034
25038WAT     H175356   4.657   1.064   7.940
25038WAT     H275357   4.693   1.090   8.098
25039WAT      O75358   6.222   9.798   6.125
25039WAT     H175359   6.190   9.893   6.133
25039WAT     H275360   6.174   9.753   6.050
25040WAT      O75361   0.084   8.870   7.150
25040WAT     H175362  -0.005   8.880   7.106
25040WAT     H275363   0.085   8.789   7.208
25041WAT      O75364   0.539   2.125   3.887
25041WAT     H175365   0.442   2.133   3.865
25041WAT     H275366   0.567   2.202   3.945
25042WAT      O75367   9.241   9.190   9.048
25042WAT     H175368   9.157   9.148   9.014
25042WAT     H275369   9.253   9.165   9.144
25043WAT      O75370   4.487   9.046   9.618
25043WAT     H175371   4.401   9.083   9.581
25043WAT     H275372   4.488   8.947   9.606
25044WAT      O75373   9.203   5.343   3.605
25044WAT     H175374   9.257   5.261   3.627
25044WAT     H275375   9.266   5.418   3.582
25045WAT      O75376   6.346   2.364   0.323
25045WAT     H175377   6.349   2.375   0.422
25045WAT     H275378   6.429   2.403   0.283
25046WAT      O75379   8.831   1.860   8.375
25046WAT     H175380   8.902   1.926   8.349
25046WAT     H275381   8.858   1.814   8.460
25047WAT      O75382   5.988   8.030   4.226
25047WAT     H175383   5.969   7.952   4.286
25047WAT     H275384   6.012   8.109   4.281
25048WAT      O75385   0.137   6.704   3.305
25048WAT     H175386   0.089   6.782   3.266
25048WAT     H275387   0.080   6.623   3.299
25049WAT      O75388   3.248   8.670   9.355
25049WAT     H175389   3.200   8.720   9.282
25049WAT     H275390   3.315   8.608   9.315
25050WAT      O75391   7.821   2.359   9.655
25050WAT     H175392   7.906   2.399   9.621
25050WAT     H275393   7.744   2.400   9.608
25051WAT      O75394   6.138   6.201   1.415
25051WAT     H175395   6.147   6.114   1.463
25051WAT     H275396   6.130   6.276   1.481
25052WAT      O75397   9.299   0.033   8.461
25052WAT     H175398   9.275  -0.023   8.382
25052WAT     H275399   9.394   0.014   8.487
25053WAT      O75400   3.475   1.657   9.227
25053WAT     H175401   3.398   1.698   9.276
25053WAT     H275402   3.519   1.727   9.170
25054WAT      O75403   1.177   0.133   7.351
25054WAT     H175404   1.152   0.193   7.275
25054WAT     H275405   1.108   0.062   7.362
25055WAT      O75406   1.967   0.541   0.277
25055WAT     H175407   1.922   0.624   0.310
25055WAT     H275408   1.900   0.467   0.268
25056WAT      O75409   6.134   4.230   1.247
25056WAT     H175410   6.222   4.186   1.228
25056WAT     H275411   6.114   4.297   1.175
25057WAT      O75412   4.312   9.485   4.173
25057WAT     H175413   4.361   9.405   4.207
25057WAT     H275414   4.225   9.456   4.133
25058WAT      O75415   0.704   2.583   9.151
25058WAT     H175416   0.706   2.545   9.244
25058WAT     H275417   0.770   2.657   9.144
25059WAT      O75418   7.095   8.330   5.695
25059WAT     H175419   7.130   8.424   5.696
25059WAT     H275420   6.998   8.331   5.717
25060WAT      O75421   7.381   4.370   4.629
25060WAT     H175422   7.358   4.354   4.533
25060WAT     H275423   7.440   4.296   4.662
25061WAT      O75424   8.927   1.695   8.599
25061WAT     H175425   8.879   1.674   8.684
25061WAT     H275426   9.012   1.744   8.619
25062WAT      O75427   8.432   0.973   8.104
25062WAT     H175428   8.485   1.043   8.056
25062WAT     H275429   8.439   0.886   8.054
25063WAT      O75430   1.396   4.987   6.668
25063WAT     H175431   1.407   5.066   6.608
25063WAT     H275432   1.419   4.904   6.618
25064WAT      O75433   2.828   2.201   6.536
25064WAT     H175434   2.912   2.162   6.573
25064WAT     H275435   2.846   2.291   6.499
25065WAT      O75436   4.805   5.794   6.973
25065WAT     H175437   4.749   5.714   6.948
25065WAT     H275438   4.896   5.785   6.931
25066WAT      O75439   2.588   3.583   5.195
25066WAT     H175440   2.637   3.669   5.207
25066WAT     H275441   2.501   3.587   5.243
25067WAT      O75442   5.285   8.906   8.465
25067WAT     H175443   5.344   8.866   8.395
25067WAT     H275444   5.210   8.956   8.421
25068WAT      O75445   4.631   5.313   0.518
25068WAT     H175446   4.612   5.219   0.489
25068WAT     H275447   4.729   5.326   0.527
25069WAT      O75448   0.862   9.712   7.834
25069WAT     H175449   0.949   9.723   7.786
25069WAT     H275450   0.832   9.617   7.827
25070WAT      O75451   9.856   7.809   2.599
25070WAT     H175452   9.908   7.747   2.540
25070WAT     H275453   9.803   7.872   2.542
25071WAT      O75454   1.171   6.362   8.434
25071WAT     H175455   1.226   6.290   8.475
25071WAT     H275456   1.109   6.323   8.367
25072WAT      O75457   6.591   0.450   2.608
25072WAT     H175458   6.678   0.499   2.618
25072WAT     H275459   6.572   0.399   2.693
25073WAT      O75460   4.434   9.358   3.035
25073WAT     H175461   4.453   9.299   2.956
25073WAT     H275462   4.436   9.454   3.006
25074WAT      O75463   2.152   1.277   3.353
25074WAT     H175464   2.141   1.355   3.415
25074WAT     H275465   2.130   1.192   3.402
25075WAT      O75466   9.042   9.789   3.011
25075WAT     H175467   8.956   9.753   2.974
25075WAT     H275468   9.051   9.886   2.985
25076WAT      O75469   9.588   4.182   3.925
25076WAT     H175470   9.578   4.242   3.846
25076WAT     H275471   9.553   4.091   3.902
25077WAT      O75472   4.616   4.926   2.663
25077WAT     H175473   4.668   5.007   2.633
25077WAT     H275474   4.575   4.944   2.752
25078WAT      O75475   3.650   0.551   0.124
25078WAT     H175476   3.723   0.542   0.056
25078WAT     H275477   3.690   0.568   0.214
25079WAT      O75478   5.859   2.801   9.235
25079WAT     H175479   5.956   2.813   9.214
25079WAT     H275480   5.815   2.747   9.164
25080WAT      O75481   9.125   0.593   6.761
25080WAT     H175482   9.188   0.637   6.696
25080WAT     H275483   9.151   0.619   6.854
25081WAT      O75484   9.877   3.369   6.753
25081WAT     H175485   9.959   3.330   6.711
25081WAT     H275486   9.901   3.452   6.803
25082WAT      O75487   6.245   7.183   9.121
25082WAT     H175488   6.244   7.101   9.177
25082WAT     H275489   6.184   7.252   9.161
25083WAT      O75490   0.307   1.385   4.320
25083WAT     H175491   0.230   1.443   4.292
25083WAT     H275492   0.320   1.312   4.253
25084WAT      O75493   8.534   5.092   1.645
25084WAT     H175494   8.596   5.014   1.659
25084WAT     H275495   8.442   5.067   1.675
25085WAT      O75496   9.677   5.346   7.369
25085WAT     H175497   9.609   5.411   7.402
25085WAT     H275498   9.648   5.309   7.281
25086WAT      O75499   1.887   6.286   3.052
25086WAT     H175500   1.872   6.245   2.962
25086WAT     H275501   1.943   6.368   3.042
25087WAT      O75502   3.512   5.069   2.238
25087WAT     H175503   3.444   5.122   2.186
25087WAT     H275504   3.558   5.006   2.177
25088WAT      O75505   6.405   5.593   9.868
25088WAT     H175506   6.396   5.687   9.899
25088WAT     H275507   6.473   5.546   9.924
25089WAT      O75508   7.162   3.514   7.567
25089WAT     H175509   7.172   3.420   7.601
25089WAT     H275510   7.100   3.514   7.489
25090WAT      O75511   9.520   7.933   3.011
25090WAT     H175512   9.505   7.835   3.002
25090WAT     H275513   9.573   7.966   2.933
25091WAT      O75514   9.333   6.452   5.759
25091WAT     H175515   9.237   6.437   5.785
25091WAT     H275516   9.387   6.471   5.841
25092WAT      O75517   1.477   9.583   3.947
25092WAT     H175518   1.525   9.519   3.887
25092WAT     H275519   1.536   9.661   3.967
25093WAT      O75520   6.214   9.357   4.310
25093WAT     H175521   6.253   9.289   4.248
25093WAT     H275522   6.275   9.369   4.389
25094WAT      O75523   0.980   6.914   8.143
25094WAT     H175524   0.927   6.954   8.218
25094WAT     H275525   0.942   6.942   8.056
25095WAT      O75526   3.421   8.941   3.549
25095WAT     H175527   3.463   8.853   3.572
25095WAT     H275528   3.325   8.940   3.577
25096WAT      O75529   1.668   7.887   8.766
25096WAT     H175530   1.622   7.807   8.728
25096WAT     H275531   1.599   7.948   8.807
25097WAT      O75532   8.927   9.463   4.600
25097WAT     H175533   8.982   9.444   4.518
25097WAT     H275534   8.873   9.382   4.623
25098WAT      O75535   8.848   2.627   8.374
25098WAT     H175536   8.912   2.562   8.414
25098WAT     H275537   8.758   2.614   8.416
25099WAT      O75538   5.437   6.722   0.892
25099WAT     H175539   5.453   6.649   0.958
25099WAT     H275540   5.423   6.808   0.941
25100WAT      O75541   6.608   8.340   5.595
25100WAT     H175542   6.541   8.278   5.635
25100WAT     H275543   6.561   8.407   5.536
25101WAT      O75544   7.276   0.383   4.578
25101WAT     H175545   7.260   0.418   4.486
25101WAT     H275546   7.194   0.398   4.634
25102WAT      O75547   5.015   1.619   2.973
25102WAT     H175548   5.009   1.534   3.025
25102WAT     H275549   4.988   1.602   2.878
25103WAT      O75550   0.940   2.434   8.288
25103WAT     H175551   0.841   2.422   8.298
25103WAT     H275552   0.972   2.378   8.211
25104WAT      O75553   2.386   1.429   8.953
25104WAT     H175554   2.371   1.380   8.867
25104WAT     H275555   2.484   1.440   8.969
25105WAT      O75556   8.402   0.065   6.522
25105WAT     H175557   8.422   0.141   6.584
25105WAT     H275558   8.306   0.068   6.496
25106WAT      O75559   3.632   8.300   5.953
25106WAT     H175560   3.655   8.375   5.891
25106WAT     H275561   3.632   8.214   5.903
25107WAT      O75562   8.603   7.067   3.126
25107WAT     H175563   8.686   7.045   3.179
25107WAT     H275564   8.524   7.068   3.187
25108WAT      O75565   4.699   7.704   8.229
25108WAT     H175566   4.760   7.784   8.223
25108WAT     H275567   4.662   7.685   8.138
25109WAT      O75568   3.309   8.705   9.621
25109WAT     H175569   3.284   8.715   9.525
25109WAT     H275570   3.381   8.771   9.644
25110WAT      O75571   9.062   1.615   2.672
25110WAT     H175572   9.125   1.588   2.600
25110WAT     H275573   9.003   1.689   2.639
25111WAT      O75574   8.754   5.054   9.279
25111WAT     H175575   8.750   5.102   9.192
25111WAT     H275576   8.844   5.011   9.290
25112WAT      O75577   8.456   7.766   5.847
25112WAT     H175578   8.481   7.693   5.782
25112WAT     H275579   8.374   7.813   5.815
25113WAT      O75580   3.863   5.520   2.249
25113WAT     H175581   3.915   5.606   2.252
25113WAT     H275582   3.829   5.504   2.157
25114WAT      O75583   9.182   3.405   9.146
25114WAT     H175584   9.224   3.491   9.174
25114WAT     H275585   9.153   3.354   9.227
25115WAT      O75586   3.185   1.207   9.822
25115WAT     H175587   3.228   1.295   9.800
25115WAT     H275588   3.254   1.135   9.824
25116WAT      O75589   7.301   7.398   4.772
25116WAT     H175590   7.333   7.347   4.852
25116WAT     H275591   7.377   7.413   4.709
25117WAT      O75592   5.452   8.825   8.252
25117WAT     H175593   5.443   8.780   8.163
25117WAT     H275594   5.480   8.920   8.240
25118WAT      O75595   3.970   0.974   3.497
25118WAT     H175596   4.064   0.948   3.477
25118WAT     H275597   3.918   0.978   3.411
25119WAT      O75598   1.313   4.857   1.120
25119WAT     H175599   1.257   4.781   1.086
25119WAT     H275600   1.395   4.865   1.063
25120WAT      O75601   6.023   9.704   0.642
25120WAT     H175602   6.033   9.744   0.733
25120WAT     H275603   5.945   9.746   0.595
25121WAT      O75604   4.091   2.563   1.383
25121WAT     H175605   3.993   2.555   1.398
25121WAT     H275606   4.122   2.655   1.405
25122WAT      O75607   4.818   0.097   3.952
25122WAT     H175608   4.756   0.159   3.904
25122WAT     H275609   4.906   0.143   3.966
25123WAT      O75610   9.280   6.001   3.264
25123WAT     H175611   9.207   5.965   3.206
25123WAT     H275612   9.338   5.925   3.294
25124WAT      O75613   6.747   1.472   7.145
25124WAT     H175614   6.834   1.439   7.109
25124WAT     H275615   6.763   1.554   7.200
25125WAT      O75616   3.146   5.123   7.395
25125WAT     H175617   3.176   5.215   7.370
25125WAT     H275618   3.152   5.112   7.494
25126WAT      O75619   3.947   1.264   0.527
25126WAT     H175620   3.880   1.319   0.577
25126WAT     H275621   3.905   1.228   0.444
25127WAT      O75622   6.405   1.214   4.536
25127WAT     H175623   6.392   1.295   4.480
25127WAT     H275624   6.426   1.241   4.630
25128WAT      O75625   1.423   1.127   1.456
25128WAT     H175626   1.517   1.093   1.458
25128WAT     H275627   1.388   1.123   1.363
25129WAT      O75628   5.137   7.677   2.614
25129WAT     H175629   5.166   7.582   2.612
25129WAT     H275630   5.079   7.696   2.535
25130WAT      O75631   8.584   9.012   1.592
25130WAT     H175632   8.574   8.994   1.494
25130WAT     H275633   8.673   8.979   1.623
25131WAT      O75634   8.892   4.552   7.468
25131WAT     H175635   8.921   4.468   7.513
25131WAT     H275636   8.890   4.627   7.534
25132WAT      O75637   6.909   3.744   1.129
25132WAT     H175638   6.876   3.683   1.202
25132WAT     H275639   6.961   3.691   1.062
25133WAT      O75640   0.399   7.284   4.966
25133WAT     H175641   0.419   7.218   4.893
25133WAT     H275642   0.391   7.376   4.927
25134WAT      O75643   8.164   4.512   5.540
25134WAT     H175644   8.117   4.489   5.626
25134WAT     H275645   8.111   4.478   5.463
25135WAT      O75646   4.815   8.519   5.526
25135WAT     H175647   4.810   8.427   5.487
25135WAT     H275648   4.744   8.577   5.485
25136WAT      O75649   6.862   7.887   7.616
25136WAT     H175650   6.849   7.829   7.697
25136WAT     H275651   6.960   7.903   7.602
25137WAT      O75652   0.477   7.378   5.236
25137WAT     H175653   0.459   7.350   5.142
25137WAT     H275654   0.451   7.474   5.247
25138WAT      O75655   5.571   6.889   7.128
25138WAT     H175656   5.585   6.916   7.033
25138WAT     H275657   5.517   6.804   7.132
25139WAT      O75658   2.889   8.806   0.048
25139WAT     H175659   2.961   8.876   0.052
25139WAT     H275660   2.821   8.831  -0.020
25140WAT      O75661   9.349   1.162   9.265
25140WAT     H175662   9.280   1.153   9.337
25140WAT     H275663   9.358   1.074   9.217
25141WAT      O75664   0.612   8.463   7.080
25141WAT     H175665   0.568   8.543   7.039
25141WAT     H275666   0.708   8.460   7.052
25142WAT      O75667   8.015   9.430   3.139
25142WAT     H175668   8.108   9.461   3.159
25142WAT     H275669   8.013   9.331   3.133
25143WAT      O75670   6.135   8.547   5.603
25143WAT     H175671   6.057   8.556   5.541
25143WAT     H275672   6.155   8.637   5.643
25144WAT      O75673   7.163   9.662   5.791
25144WAT     H175674   7.246   9.655   5.846
25144WAT     H275675   7.083   9.661   5.851
25145WAT      O75676   3.931   8.042   6.694
25145WAT     H175677   4.017   8.069   6.737
25145WAT     H275678   3.913   7.946   6.712
25146WAT      O75679   9.173   6.965   4.959
25146WAT     H175680   9.122   6.943   5.042
25146WAT     H275681   9.109   6.989   4.886
25147WAT      O75682   4.067   8.896   5.655
25147WAT     H175683   3.990   8.924   5.713
25147WAT     H275684   4.149   8.946   5.683
25148WAT      O75685   0.555   1.509   1.721
25148WAT     H175686   0.574   1.598   1.763
25148WAT     H275687   0.547   1.519   1.622
25149WAT      O75688   1.724   1.777   6.749
25149WAT     H175689   1.816   1.741   6.732
25149WAT     H275690   1.677   1.719   6.816
25150WAT      O75691   2.704   6.937   1.496
25150WAT     H175692   2.639   6.875   1.540
25150WAT     H275693   2.791   6.891   1.483
25151WAT      O75694   2.635   7.278   3.610
25151WAT     H175695   2.719   7.327   3.587
25151WAT     H275696   2.643   7.183   3.578
25152WAT      O75697   9.007   9.296   3.686
25152WAT     H175698   9.012   9.239   3.603
25152WAT     H275699   9.076   9.368   3.680
25153WAT      O75700   9.624   8.881   2.491
25153WAT     H175701   9.650   8.865   2.396
25153WAT     H275702   9.698   8.851   2.552
25154WAT      O75703   1.785   6.729   2.798
25154WAT     H175704   1.813   6.693   2.709
25154WAT     H275705   1.824   6.821   2.809
25155WAT      O75706   4.539   5.484   8.124
25155WAT     H175707   4.615   5.419   8.123
25155WAT     H275708   4.503   5.493   8.217
25156WAT      O75709   6.516   9.322   9.745
25156WAT     H175710   6.607   9.281   9.755
25156WAT     H275711   6.478   9.343   9.835
25157WAT      O75712   9.554   7.367   1.693
25157WAT     H175713   9.520   7.449   1.739
25157WAT     H275714   9.576   7.388   1.598
25158WAT      O75715   0.628   6.038   3.829
25158WAT     H175716   0.713   5.986   3.820
25158WAT     H275717   0.554   5.990   3.782
25159WAT      O75718   6.668   3.017   1.691
25159WAT     H175719   6.647   3.003   1.788
25159WAT     H275720   6.616   2.952   1.636
25160WAT      O75721   6.218   0.364   0.998
25160WAT     H175722   6.273   0.322   0.927
25160WAT     H275723   6.276   0.388   1.076
25161WAT      O75724   9.218   6.696   3.499
25161WAT     H175725   9.277   6.776   3.491
25161WAT     H275726   9.241   6.631   3.426
25162WAT      O75727   0.332   0.985   5.633
25162WAT     H175728   0.270   0.907   5.643
25162WAT     H275729   0.418   0.965   5.679
25163WAT      O75730   5.152   5.830   1.306
25163WAT     H175731   5.222   5.873   1.248
25163WAT     H275732   5.146   5.879   1.393
25164WAT      O75733   7.123   8.913   9.454
25164WAT     H175734   7.086   8.823   9.430
25164WAT     H275735   7.071   8.951   9.531
25165WAT      O75736   0.327   2.431   9.357
25165WAT     H175737   0.347   2.496   9.283
25165WAT     H275738   0.403   2.367   9.366
25166WAT      O75739   5.605   9.088   8.504
25166WAT     H175740   5.599   9.188   8.509
25166WAT     H275741   5.522   9.052   8.462
25167WAT      O75742   1.406   1.703   3.697
25167WAT     H175743   1.402   1.604   3.708
25167WAT     H275744   1.375   1.747   3.782
25168WAT      O75745   7.686   6.432   6.363
25168WAT     H175746   7.600   6.390   6.333
25168WAT     H275747   7.759   6.406   6.300
25169WAT      O75748   8.500   6.765   5.654
25169WAT     H175749   8.498   6.783   5.556
25169WAT     H275750   8.572   6.698   5.674
25170WAT      O75751   5.957   3.174   3.626
25170WAT     H175752   5.964   3.190   3.528
25170WAT     H275753   5.868   3.133   3.647
25171WAT      O75754   3.685   7.883   8.318
25171WAT     H175755   3.663   7.938   8.237
25171WAT     H275756   3.603   7.870   8.373
25172WAT      O75757   2.865   3.589   0.052
25172WAT     H175758   2.928   3.515   0.026
25172WAT     H275759   2.831   3.633  -0.031
25173WAT      O75760   7.288   6.040   4.156
25173WAT     H175761   7.291   6.000   4.064
25173WAT     H275762   7.265   6.137   4.150
25174WAT      O75763   3.635   6.601   9.767
25174WAT     H175764   3.571   6.671   9.735
25174WAT     H275765   3.599   6.556   9.848
25175WAT      O75766   2.186   4.468   7.953
25175WAT     H175767   2.152   4.510   8.037
25175WAT     H275768   2.259   4.403   7.975
25176WAT      O75769   7.301   5.485   7.440
25176WAT     H175770   7.242   5.420   7.488
25176WAT     H275771   7.257   5.513   7.355
25177WAT      O75772   8.439   7.923   6.600
25177WAT     H175773   8.433   7.830   6.637
25177WAT     H275774   8.350   7.967   6.606
25178WAT      O75775   6.419   0.069   7.627
25178WAT     H175776   6.418   0.032   7.534
25178WAT     H275777   6.325   0.093   7.654
25179WAT      O75778   7.997   2.551   3.113
25179WAT     H175779   8.033   2.608   3.186
25179WAT     H275780   8.035   2.581   3.025
25180WAT      O75781   7.671   8.834   8.599
25180WAT     H175782   7.716   8.747   8.619
25180WAT     H275783   7.589   8.817   8.545
25181WAT      O75784   9.432   0.477   6.453
25181WAT     H175785   9.455   0.431   6.539
25181WAT     H275786   9.332   0.481   6.444
25182WAT      O75787   7.839   2.876   8.107
25182WAT     H175788   7.888   2.851   8.023
25182WAT     H275789   7.903   2.874   8.184
25183WAT      O75790   9.055   9.647   0.079
25183WAT     H175791   9.123   9.620   0.148
25183WAT     H275792   9.053   9.747   0.072
25184WAT      O75793   0.391   5.000   2.684
25184WAT     H175794   0.387   5.097   2.662
25184WAT     H275795   0.299   4.962   2.687
25185WAT      O75796   5.073   9.654   9.244
25185WAT     H175797   5.017   9.585   9.290
25185WAT     H275798   5.088   9.731   9.305
25186WAT      O75799   6.590   5.930   8.099
25186WAT     H175800   6.659   5.901   8.033
25186WAT     H275801   6.500   5.897   8.070
25187WAT      O75802   0.122   2.900   3.558
25187WAT     H175803   0.123   2.803   3.583
25187WAT     H275804   0.195   2.948   3.608
25188WAT      O75805   9.231   8.154   6.650
25188WAT     H175806   9.263   8.246   6.675
25188WAT     H275807   9.176   8.159   6.567
25189WAT      O75808   9.713   6.787   7.540
25189WAT     H175809   9.616   6.810   7.537
25189WAT     H275810   9.767   6.865   7.508
25190WAT      O75811   2.071   1.079   6.413
25190WAT     H175812   2.033   1.102   6.324
25190WAT     H275813   2.008   1.017   6.461
25191WAT      O75814   3.216   6.103   6.914
25191WAT     H175815   3.267   6.028   6.956
25191WAT     H275816   3.224   6.185   6.970
25192WAT      O75817   4.953   6.229   8.978
25192WAT     H175818   5.024   6.179   9.027
25192WAT     H275819   4.982   6.323   8.964
25193WAT      O75820   5.611   3.262   4.153
25193WAT     H175821   5.671   3.231   4.079
25193WAT     H275822   5.625   3.204   4.234
25194WAT      O75823   2.957   6.713   8.924
25194WAT     H175824   2.881   6.729   8.861
25194WAT     H275825   3.043   6.716   8.874
25195WAT      O75826   7.232   1.231   9.641
25195WAT     H175827   7.265   1.157   9.699
25195WAT     H275828   7.276   1.317   9.668
25196WAT      O75829   2.201   4.338   7.598
25196WAT     H175830   2.210   4.250   7.643
25196WAT     H275831   2.216   4.327   7.499
25197WAT      O75832   3.165   5.759   1.339
25197WAT     H175833   3.085   5.721   1.292
25197WAT     H275834   3.206   5.688   1.397
25198WAT      O75835   2.124   5.972   6.141
25198WAT     H175836   2.047   5.933   6.089
25198WAT     H275837   2.099   5.976   6.238
25199WAT      O75838   7.821   6.910   2.247
25199WAT     H175839   7.850   6.816   2.231
25199WAT     H275840   7.723   6.912   2.269
25200WAT      O75841   9.023   2.654   9.002
25200WAT     H175842   8.995   2.650   8.906
25200WAT     H275843   8.979   2.732   9.047
25201WAT      O75844   7.137   4.667   0.259
25201WAT     H175845   7.080   4.704   0.332
25201WAT     H275846   7.173   4.742   0.203
25202WAT      O75847   1.907   4.034   0.840
25202WAT     H175848   1.890   4.108   0.905
25202WAT     H275849   1.858   4.052   0.755
25203WAT      O75850   3.826   3.882   7.865
25203WAT     H175851   3.824   3.783   7.884
25203WAT     H275852   3.872   3.929   7.940
25204WAT      O75853   1.475   9.278   8.485
25204WAT     H175854   1.487   9.338   8.406
25204WAT     H275855   1.410   9.319   8.549
25205WAT      O75856   6.845   4.931   2.173
25205WAT     H175857   6.940   4.904   2.156
25205WAT     H275858   6.835   5.029   2.160
25206WAT      O75859   4.765   8.137   3.567
25206WAT     H175860   4.668   8.113   3.561
25206WAT     H275861   4.820   8.055   3.550
25207WAT      O75862   9.505   1.384   3.479
25207WAT     H175863   9.587   1.333   3.452
25207WAT     H275864   9.488   1.457   3.413
25208WAT      O75865   0.009   3.669   4.682
25208WAT     H175866   0.001   3.574   4.652
25208WAT     H275867  -0.046   3.683   4.764
25209WAT      O75868   0.616   4.193   2.664
25209WAT     H175869   0.573   4.279   2.692
25209WAT     H275870   0.553   4.142   2.605
25210WAT      O75871   4.001   5.785   6.241
25210WAT     H175872   4.000   5.688   6.215
25210WAT     H275873   3.977   5.841   6.161
25211WAT      O75874   0.062   8.998   6.772
25211WAT     H175875   0.119   8.970   6.695
25211WAT     H275876   0.119   9.017   6.851
25212WAT      O75877   3.227   1.837   6.826
25212WAT     H175878   3.256   1.902   6.896
25212WAT     H275879   3.257   1.869   6.736
25213WAT      O75880   6.880   5.627   1.766
25213WAT     H175881   6.854   5.557   1.700
25213WAT     H275882   6.893   5.714   1.719
25214WAT      O75883   6.514   5.412   0.738
25214WAT     H175884   6.492   5.335   0.678
25214WAT     H275885   6.552   5.378   0.824
25215WAT      O75886   2.560   6.273   2.454
25215WAT     H175887   2.560   6.184   2.500
25215WAT     H275888   2.618   6.267   2.372
25216WAT      O75889   5.789   7.614   3.498
25216WAT     H175890   5.845   7.573   3.426
25216WAT     H275891   5.789   7.554   3.579
25217WAT      O75892   7.104   8.747   3.589
25217WAT     H175893   7.106   8.733   3.688
25217WAT     H275894   7.042   8.681   3.547
25218WAT      O75895   1.638   4.584   0.972
25218WAT     H175896   1.628   4.551   1.065
25218WAT     H275897   1.712   4.534   0.926
25219WAT      O75898   6.715   3.584   9.664
25219WAT     H175899   6.792   3.528   9.694
25219WAT     H275900   6.748   3.667   9.621
25220WAT      O75901   6.831   0.823   5.250
25220WAT     H175902   6.897   0.878   5.301
25220WAT     H275903   6.748   0.812   5.304
25221WAT      O75904   2.763   5.590   8.533
25221WAT     H175905   2.705   5.632   8.463
25221WAT     H275906   2.796   5.501   8.500
25222WAT      O75907   4.780   5.305   2.774
25222WAT     H175908   4.689   5.342   2.791
25222WAT     H275909   4.804   5.241   2.846
25223WAT      O75910   1.931   2.170   8.900
25223WAT     H175911   1.972   2.252   8.940
25223WAT     H275912   1.978   2.146   8.816
25224WAT      O75913   7.683   8.639   0.626
25224WAT     H175914   7.782   8.645   0.640
25224WAT     H275915   7.657   8.690   0.544
25225WAT      O75916   2.768   9.303   9.701
25225WAT     H175917   2.825   9.261   9.630
25225WAT     H275918   2.826   9.345   9.771
25226WAT      O75919   7.080   4.852   3.162
25226WAT     H175920   7.129   4.917   3.221
25226WAT     H275921   7.133   4.768   3.155
25227WAT      O75922   2.082   3.499   8.867
25227WAT     H175923   2.069   3.509   8.768
25227WAT     H275924   2.006   3.448   8.906
25228WAT      O75925   8.923   7.570   5.333
25228WAT     H175926   8.887   7.521   5.254
25228WAT     H275927   9.023   7.579   5.324
25229WAT      O75928   9.409   2.368   3.028
25229WAT     H175929   9.405   2.463   3.059
25229WAT     H275930   9.492   2.354   2.975
25230WAT      O75931   0.171   2.429   8.335
25230WAT     H175932   0.129   2.517   8.359
25230WAT     H275933   0.099   2.359   8.328
25231WAT      O75934   9.720   6.092   2.598
25231WAT     H175935   9.732   6.031   2.519
25231WAT     H275936   9.622   6.106   2.615
25232WAT      O75937   3.064   5.355   4.891
25232WAT     H175938   3.161   5.368   4.914
25232WAT     H275939   3.024   5.443   4.868
25233WAT      O75940   2.873   2.698   1.070
25233WAT     H175941   2.793   2.741   1.111
25233WAT     H275942   2.898   2.747   0.986
25234WAT      O75943   1.444   5.042   3.177
25234WAT     H175944   1.391   5.113   3.132
25234WAT     H275945   1.501   4.994   3.109
25235WAT      O75946   2.195   2.326   5.712
25235WAT     H175947   2.229   2.326   5.618
25235WAT     H275948   2.218   2.239   5.756
25236WAT      O75949   6.422   0.341   5.139
25236WAT     H175950   6.422   0.271   5.211
25236WAT     H275951   6.410   0.431   5.181
25237WAT      O75952   8.991   7.975   1.541
25237WAT     H175953   9.087   7.993   1.561
25237WAT     H275954   8.959   8.037   1.470
25238WAT      O75955   8.755   5.543   3.561
25238WAT     H175956   8.832   5.487   3.592
25238WAT     H275957   8.751   5.627   3.614
25239WAT      O75958   7.458   1.960   3.289
25239WAT     H175959   7.532   1.998   3.344
25239WAT     H275960   7.377   1.949   3.347
25240WAT      O75961   1.812   7.387   1.008
25240WAT     H175962   1.811   7.486   1.020
25240WAT     H275963   1.904   7.357   0.984
25241WAT      O75964   2.356   3.626   3.871
25241WAT     H175965   2.294   3.563   3.825
25241WAT     H275966   2.349   3.716   3.829
25242WAT      O75967   8.711   8.459   7.845
25242WAT     H175968   8.756   8.386   7.897
25242WAT     H275969   8.780   8.509   7.792
25243WAT      O75970   2.547   7.684   3.278
25243WAT     H175971   2.457   7.642   3.280
25243WAT     H275972   2.616   7.614   3.261
25244WAT      O75973   0.852   1.481   1.358
25244WAT     H175974   0.948   1.495   1.381
25244WAT     H275975   0.795   1.541   1.414
25245WAT      O75976   7.594   7.804   0.912
25245WAT     H175977   7.669   7.747   0.945
25245WAT     H275978   7.583   7.882   0.974
25246WAT      O75979   6.332   5.348   5.089
25246WAT     H175980   6.372   5.283   5.153
25246WAT     H275981   6.401   5.416   5.063
25247WAT      O75982   7.320   4.249   6.617
25247WAT     H175983   7.405   4.217   6.576
25247WAT     H275984   7.276   4.174   6.666
25248WAT      O75985   8.179   4.232   1.040
25248WAT     H175986   8.211   4.285   1.119
25248WAT     H275987   8.094   4.185   1.064
25249WAT      O75988   1.694   2.745   3.684
25249WAT     H175989   1.668   2.754   3.780
25249WAT     H275990   1.703   2.648   3.660
25250WAT      O75991   3.726   3.513   5.638
25250WAT     H175992   3.811   3.555   5.608
25250WAT     H275993   3.738   3.475   5.730
25251WAT      O75994   8.198   2.905   6.347
25251WAT     H175995   8.292   2.872   6.338
25251WAT     H275996   8.187   2.989   6.295
25252WAT      O75997   1.755   3.610   3.809
25252WAT     H175998   1.716   3.612   3.901
25252WAT     H275999   1.814   3.690   3.795
25253WAT      O76000   6.572   9.749   1.876
25253WAT     H176001   6.639   9.704   1.936
25253WAT     H276002   6.536   9.682   1.811
25254WAT      O76003   2.359   2.754   0.282
25254WAT     H176004   2.316   2.841   0.258
25254WAT     H276005   2.439   2.771   0.340
25255WAT      O76006   0.835   5.607   6.270
25255WAT     H176007   0.906   5.626   6.203
25255WAT     H276008   0.779   5.530   6.238
25256WAT      O76009   8.785   1.303   3.019
25256WAT     H176010   8.695   1.278   2.985
25256WAT     H276011   8.832   1.360   2.951
25257WAT      O76012   6.826   2.573   1.409
25257WAT     H176013   6.750   2.509   1.416
25257WAT     H276014   6.806   2.655   1.464
25258WAT      O76015   7.025   8.462   0.376
25258WAT     H176016   6.955   8.476   0.306
25258WAT     H276017   7.111   8.435   0.333
25259WAT      O76018   7.077   0.513   1.554
25259WAT     H176019   7.030   0.589   1.599
25259WAT     H276020   7.120   0.545   1.470
25260WAT      O76021   6.696   1.685   8.684
25260WAT     H176022   6.613   1.732   8.654
25260WAT     H276023   6.672   1.597   8.724
25261WAT      O76024   6.740   8.637   3.687
25261WAT     H176025   6.802   8.575   3.639
25261WAT     H276026   6.788   8.722   3.707
25262WAT      O76027   2.456   1.746   9.732
25262WAT     H176028   2.477   1.678   9.803
25262WAT     H276029   2.541   1.786   9.698
25263WAT      O76030   6.629   0.883   4.565
25263WAT     H176031   6.704   0.870   4.500
25263WAT     H276032   6.635   0.975   4.605
25264WAT      O76033   5.128   2.446   0.757
25264WAT     H176034   5.044   2.492   0.729
25264WAT     H276035   5.184   2.428   0.676
25265WAT      O76036   9.137   5.337   9.709
25265WAT     H176037   9.103   5.431   9.720
25265WAT     H276038   9.063   5.278   9.676
25266WAT      O76039   6.627   1.305   2.379
25266WAT     H176040   6.699   1.353   2.429
25266WAT     H276041   6.581   1.240   2.440
25267WAT      O76042   7.884   5.857   9.828
25267WAT     H176043   7.897   5.819   9.919
25267WAT     H276044   7.788   5.847   9.801
25268WAT      O76045   2.044   2.720   3.354
25268WAT     H176046   2.138   2.693   3.336
25268WAT     H276047   2.021   2.799   3.296
25269WAT      O76048   5.209   8.281   0.193
25269WAT     H176049   5.132   8.320   0.143
25269WAT     H276050   5.194   8.182   0.205
25270WAT      O76051   9.708   6.163   5.098
25270WAT     H176052   9.620   6.170   5.051
25270WAT     H276053   9.781   6.181   5.032
25271WAT      O76054   9.184   4.525   6.821
25271WAT     H176055   9.204   4.481   6.733
25271WAT     H276056   9.100   4.579   6.812
25272WAT      O76057   4.037   6.828   2.663
25272WAT     H176058   3.968   6.766   2.701
25272WAT     H276059   4.117   6.776   2.635
25273WAT      O76060   7.451   9.219   4.040
25273WAT     H176061   7.477   9.123   4.037
25273WAT     H276062   7.530   9.275   4.015
25274WAT      O76063   4.934   6.193   6.723
25274WAT     H176064   4.889   6.266   6.774
25274WAT     H276065   4.875   6.162   6.649
25275WAT      O76066   6.375   1.247   1.749
25275WAT     H176067   6.426   1.330   1.727
25275WAT     H276068   6.438   1.169   1.750
25276WAT      O76069   3.897   7.845   2.697
25276WAT     H176070   3.849   7.907   2.635
25276WAT     H276071   3.950   7.778   2.645
25277WAT      O76072   0.289   8.472   1.830
25277WAT     H176073   0.244   8.384   1.820
25277WAT     H276074   0.265   8.512   1.919
25278WAT      O76075   5.478   9.619   2.173
25278WAT     H176076   5.392   9.576   2.146
25278WAT     H276077   5.497   9.696   2.113
25279WAT      O76078   6.817   2.888   5.766
25279WAT     H176079   6.878   2.833   5.708
25279WAT     H276080   6.787   2.969   5.716
25280WAT      O76081   6.370   5.388   8.809
25280WAT     H176082   6.312   5.451   8.861
25280WAT     H276083   6.415   5.438   8.735
25281WAT      O76084   8.624   2.192   5.671
25281WAT     H176085   8.697   2.233   5.617
25281WAT     H276086   8.540   2.245   5.660
25282WAT      O76087   5.540   2.867   2.972
25282WAT     H176088   5.486   2.949   2.995
25282WAT     H276089   5.520   2.839   2.879
25283WAT      O76090   3.160   7.028   8.691
25283WAT     H176091   3.124   7.055   8.602
25283WAT     H276092   3.085   6.991   8.747
25284WAT      O76093   0.050   6.753   2.710
25284WAT     H176094  -0.030   6.733   2.766
25284WAT     H276095   0.118   6.681   2.721
25285WAT      O76096   6.531   7.019   5.684
25285WAT     H176097   6.605   7.011   5.616
25285WAT     H276098   6.553   6.964   5.764
25286WAT      O76099   2.864   9.015   4.635
25286WAT     H176100   2.843   9.029   4.538
25286WAT     H276101   2.879   8.918   4.652
25287WAT      O76102   0.759   1.275   9.148
25287WAT     H176103   0.778   1.348   9.082
25287WAT     H276104   0.660   1.268   9.162
25288WAT      O76105   4.217   6.480   1.219
25288WAT     H176106   4.271   6.401   1.249
25288WAT     H276107   4.127   6.450   1.188
25289WAT      O76108   1.928   7.115   8.120
25289WAT     H176109   1.904   7.134   8.215
25289WAT     H276110   1.890   7.027   8.092
25290WAT      O76111   3.237   3.899   6.311
25290WAT     H176112   3.179   3.822   6.286
25290WAT     H276113   3.333   3.873   6.304
25291WAT      O76114   1.552   4.418   6.002
25291WAT     H176115   1.614   4.343   6.026
25291WAT     H276116   1.551   4.430   5.903
25292WAT      O76117   1.193   0.469   7.534
25292WAT     H176118   1.149   0.551   7.497
25292WAT     H276119   1.283   0.457   7.492
25293WAT      O76120   8.858   5.660   1.723
25293WAT     H176121   8.919   5.704   1.789
25293WAT     H276122   8.887   5.683   1.630
25294WAT      O76123   0.594   8.340   3.260
25294WAT     H176124   0.579   8.350   3.358
25294WAT     H276125   0.687   8.308   3.243
25295WAT      O76126   8.961   2.951   1.929
25295WAT     H176127   8.973   3.028   1.991
25295WAT     H276128   8.863   2.935   1.914
25296WAT      O76129   1.722   4.005   3.219
25296WAT     H176130   1.776   3.925   3.244
25296WAT     H276131   1.636   4.005   3.270
25297WAT      O76132   2.882   4.835   6.362
25297WAT     H176133   2.903   4.829   6.459
25297WAT     H276134   2.884   4.931   6.333
25298WAT      O76135   5.926   9.123   0.001
25298WAT     H176136   5.862   9.182   0.050
25298WAT     H276137   6.020   9.151   0.022
25299WAT      O76138   1.186   7.235   2.032
25299WAT     H176139   1.214   7.256   2.126
25299WAT     H276140   1.093   7.270   2.017
25300WAT      O76141   9.253   2.135   1.645
25300WAT     H176142   9.294   2.072   1.712
25300WAT     H276143   9.157   2.150   1.668
25301WAT      O76144   1.031   3.815   4.213
25301WAT     H176145   1.079   3.754   4.277
25301WAT     H276146   1.013   3.902   4.258
25302WAT      O76147   2.006   0.675   9.024
25302WAT     H176148   1.964   0.670   9.115
25302WAT     H276149   1.934   0.684   8.955
25303WAT      O76150   0.018   3.886   0.917
25303WAT     H176151   0.095   3.949   0.904
25303WAT     H276152  -0.065   3.927   0.878
25304WAT      O76153   5.514   9.624   7.315
25304WAT     H176154   5.455   9.580   7.382
25304WAT     H276155   5.609   9.602   7.334
25305WAT      O76156   2.909   0.029   2.339
25305WAT     H176157   2.899   0.093   2.415
25305WAT     H276158   2.879  -0.062   2.368
25306WAT      O76159   0.464   3.288   1.746
25306WAT     H176160   0.453   3.264   1.650
25306WAT     H276161   0.378   3.269   1.795
25307WAT      O76162   7.478   5.620   2.026
25307WAT     H176163   7.554   5.648   2.085
25307WAT     H276164   7.394   5.617   2.079
25308WAT      O76165   0.831   6.205   5.138
25308WAT     H176166   0.807   6.302   5.134
25308WAT     H276167   0.784   6.157   5.064
25309WAT      O76168   2.305   8.229   9.361
25309WAT     H176169   2.280   8.303   9.299
25309WAT     H276170   2.396   8.245   9.398
25310WAT      O76171   0.031   5.015   2.911
25310WAT     H176172   0.022   4.934   2.853
25310WAT     H276173   0.044   5.096   2.853
25311WAT      O76174   4.126   9.840   0.470
25311WAT     H176175   4.146   9.925   0.518
25311WAT     H276176   4.106   9.768   0.536
25312WAT      O76177   4.343   0.181   6.359
25312WAT     H176178   4.370   0.087   6.338
25312WAT     H276179   4.420   0.242   6.344
25313WAT      O76180   6.784   9.760   3.443
25313WAT     H176181   6.809   9.817   3.521
25313WAT     H276182   6.860   9.699   3.420
25314WAT      O76183   5.013   2.321   3.507
25314WAT     H176184   4.966   2.377   3.439
25314WAT     H276185   4.985   2.226   3.498
25315WAT      O76186   3.740   0.896   7.181
25315WAT     H176187   3.724   0.993   7.202
25315WAT     H276188   3.703   0.874   7.091
25316WAT      O76189   1.334   8.169   2.605
25316WAT     H176190   1.270   8.159   2.528
25316WAT     H276191   1.315   8.254   2.653
25317WAT      O76192   6.976   6.015   9.446
25317WAT     H176193   6.969   6.105   9.488
25317WAT     H276194   6.999   5.947   9.515
25318WAT      O76195   5.130   6.899   4.546
25318WAT     H176196   5.088   6.986   4.519
25318WAT     H276197   5.061   6.827   4.547
25319WAT      O76198   5.754   8.893   7.152
25319WAT     H176199   5.676   8.923   7.097
25319WAT     H276200   5.814   8.837   7.096
25320WAT      O76201   2.503   7.712   9.413
25320WAT     H176202   2.421   7.686   9.362
25320WAT     H276203   2.476   7.754   9.500
25321WAT      O76204   1.999   7.907   7.570
25321WAT     H176205   2.042   7.834   7.623
25321WAT     H276206   1.923   7.869   7.516
25322WAT      O76207   7.486   9.715   4.631
25322WAT     H176208   7.458   9.623   4.659
25322WAT     H276209   7.585   9.717   4.617
25323WAT      O76210   7.997   0.112   0.767
25323WAT     H176211   8.087   0.098   0.809
25323WAT     H276212   7.927   0.066   0.822
25324WAT      O76213   1.013   4.361   8.426
25324WAT     H176214   1.015   4.291   8.356
25324WAT     H276215   0.921   4.398   8.435
25325WAT      O76216   7.778   7.898   4.402
25325WAT     H176217   7.793   7.959   4.324
25325WAT     H276218   7.684   7.864   4.400
25326WAT      O76219   0.644   8.578   1.210
25326WAT     H176220   0.658   8.646   1.138
25326WAT     H276221   0.636   8.487   1.169
25327WAT      O76222   9.576   2.262   6.599
25327WAT     H176223   9.597   2.286   6.694
25327WAT     H276224   9.609   2.335   6.539
25328WAT      O76225   8.932   5.096   2.375
25328WAT     H176226   8.866   5.132   2.440
25328WAT     H276227   8.919   5.139   2.286
25329WAT      O76228   4.646   4.313   8.786
25329WAT     H176229   4.608   4.339   8.698
25329WAT     H276230   4.703   4.387   8.822
25330WAT      O76231   4.424   3.919   3.610
25330WAT     H176232   4.333   3.947   3.640
25330WAT     H276233   4.481   3.899   3.690
25331WAT      O76234   0.154   6.385   1.913
25331WAT     H176235   0.097   6.466   1.922
25331WAT     H276236   0.114   6.324   1.845
25332WAT      O76237   9.417   6.230   3.845
25332WAT     H176238   9.408   6.164   3.770
25332WAT     H276239   9.357   6.308   3.828
25333WAT      O76240   3.822   8.350   2.801
25333WAT     H176241   3.751   8.280   2.815
25333WAT     H276242   3.789   8.437   2.837
25334WAT      O76243   6.395   9.355   6.791
25334WAT     H176244   6.463   9.427   6.773
25334WAT     H276245   6.412   9.278   6.730
25335WAT      O76246   4.244   6.907   4.920
25335WAT     H176247   4.228   6.826   4.976
25335WAT     H276248   4.185   6.906   4.840
25336WAT      O76249   5.022   9.460   3.621
25336WAT     H176250   4.963   9.538   3.643
25336WAT     H276251   5.058   9.471   3.529
25337WAT      O76252   3.024   3.347   5.612
25337WAT     H176253   3.040   3.373   5.707
25337WAT     H276254   2.929   3.366   5.588
25338WAT      O76255   3.857   2.637   0.584
25338WAT     H176256   3.800   2.586   0.520
25338WAT     H276257   3.935   2.676   0.534
25339WAT      O76258   8.133   2.573   1.071
25339WAT     H176259   8.105   2.489   1.024
25339WAT     H276260   8.139   2.555   1.169
25340WAT      O76261   4.921   1.139   6.680
25340WAT     H176262   4.909   1.165   6.776
25340WAT     H276263   4.841   1.090   6.648
25341WAT      O76264   3.095   8.333   1.438
25341WAT     H176265   3.080   8.363   1.344
25341WAT     H276266   3.015   8.354   1.493
25342WAT      O76267   7.457   5.697   0.820
25342WAT     H176268   7.464   5.788   0.859
25342WAT     H276269   7.362   5.668   0.819
25343WAT      O76270   2.349   5.361   2.228
25343WAT     H176271   2.307   5.278   2.191
25343WAT     H276272   2.436   5.377   2.183
25344WAT      O76273   9.291   9.459   2.021
25344WAT     H176274   9.310   9.388   2.088
25344WAT     H276275   9.342   9.542   2.043
25345WAT      O76276   4.063   2.507   2.507
25345WAT     H176277   4.049   2.516   2.409
25345WAT     H276278   4.081   2.597   2.546
25346WAT      O76279   1.020   6.020   3.517
25346WAT     H176280   1.062   6.048   3.431
25346WAT     H276281   1.075   5.947   3.559
25347WAT      O76282   1.588   9.079   3.879
25347WAT     H176283   1.574   9.167   3.833
25347WAT     H276284   1.556   9.085   3.974
25348WAT      O76285   8.992   4.920   3.145
25348WAT     H176286   9.006   4.832   3.098
25348WAT     H276287   9.078   4.971   3.146
25349WAT      O76288   7.190   6.218   0.862
25349WAT     H176289   7.148   6.281   0.927
25349WAT     H276290   7.278   6.254   0.832
25350WAT      O76291   2.596   6.632   7.805
25350WAT     H176292   2.633   6.582   7.884
25350WAT     H276293   2.670   6.679   7.758
25351WAT      O76294   8.765   4.525   3.585
25351WAT     H176295   8.770   4.426   3.600
25351WAT     H276296   8.700   4.544   3.511
25352WAT      O76297   0.323   7.761   1.607
25352WAT     H176298   0.422   7.758   1.620
25352WAT     H276299   0.299   7.835   1.544
25353WAT      O76300   0.854   2.770   2.844
25353WAT     H176301   0.857   2.849   2.782
25353WAT     H276302   0.946   2.753   2.879
25354WAT      O76303   1.533   9.603   1.902
25354WAT     H176304   1.547   9.597   1.803
25354WAT     H276305   1.602   9.547   1.949
25355WAT      O76306   5.021   4.072   3.565
25355WAT     H176307   5.049   4.163   3.534
25355WAT     H276308   4.948   4.038   3.506
25356WAT      O76309   5.804   7.774   1.716
25356WAT     H176310   5.797   7.765   1.617
25356WAT     H276311   5.878   7.837   1.739
25357WAT      O76312   2.427   6.744   0.752
25357WAT     H176313   2.353   6.712   0.692
25357WAT     H276314   2.456   6.835   0.723
25358WAT      O76315   7.646   5.419   2.829
25358WAT     H176316   7.661   5.345   2.895
25358WAT     H276317   7.671   5.386   2.737
25359WAT      O76318   7.097   3.092   1.267
25359WAT     H176319   7.088   3.145   1.351
25359WAT     H276320   7.009   3.050   1.245
25360WAT      O76321   6.522   7.728   8.233
25360WAT     H176322   6.586   7.781   8.178
25360WAT     H276323   6.572   7.671   8.297
25361WAT      O76324   1.717   2.553   8.621
25361WAT     H176325   1.666   2.469   8.601
25361WAT     H276326   1.677   2.597   8.701
25362WAT      O76327   9.722   0.682   5.242
25362WAT     H176328   9.760   0.753   5.181
25362WAT     H276329   9.680   0.726   5.321
25363WAT      O76330   9.317   4.496   5.735
25363WAT     H176331   9.285   4.453   5.650
25363WAT     H276332   9.400   4.449   5.766
25364WAT      O76333   6.461   7.928   0.124
25364WAT     H176334   6.420   7.957   0.037
25364WAT     H276335   6.415   7.975   0.199
25365WAT      O76336   1.947   0.390   9.416
25365WAT     H176337   1.927   0.488   9.422
25365WAT     H276338   2.022   0.368   9.477
25366WAT      O76339   3.769   2.486   1.865
25366WAT     H176340   3.759   2.458   1.960
25366WAT     H276341   3.686   2.464   1.814
25367WAT      O76342   7.107   7.181   5.941
25367WAT     H176343   7.140   7.221   6.026
25367WAT     H276344   7.106   7.250   5.869
25368WAT      O76345   8.761   4.061   0.246
25368WAT     H176346   8.729   3.991   0.183
25368WAT     H276347   8.684   4.118   0.275
25369WAT      O76348   4.382   1.433   5.944
25369WAT     H176349   4.406   1.481   6.029
25369WAT     H276350   4.459   1.376   5.915
25370WAT      O76351   2.511   5.767   5.728
25370WAT     H176352   2.438   5.810   5.676
25370WAT     H276353   2.570   5.838   5.768
25371WAT      O76354   0.239   0.660   7.604
25371WAT     H176355   0.264   0.707   7.689
25371WAT     H276356   0.310   0.594   7.580
25372WAT      O76357   6.592   4.805   5.796
25372WAT     H176358   6.652   4.841   5.725
25372WAT     H276359   6.539   4.879   5.837
25373WAT      O76360   2.997   6.565   3.491
25373WAT     H176361   2.971   6.484   3.542
25373WAT     H276362   2.956   6.646   3.533
25374WAT      O76363   9.360   1.806   8.363
25374WAT     H176364   9.440   1.763   8.406
25374WAT     H276365   9.289   1.737   8.350
25375WAT      O76366   6.736   4.552   7.982
25375WAT     H176367   6.829   4.573   7.952
25375WAT     H276368   6.694   4.488   7.917
25376WAT      O76369   0.171   8.936   9.810
25376WAT     H176370   0.257   8.957   9.762
25376WAT     H276371   0.189   8.868   9.881
25377WAT      O76372   8.603   9.069   3.342
25377WAT     H176373   8.641   8.985   3.301
25377WAT     H276374   8.668   9.144   3.330
25378WAT      O76375   0.198   0.291   1.889
25378WAT     H176376   0.130   0.361   1.867
25378WAT     H276377   0.178   0.207   1.838
25379WAT      O76378   2.887   8.073   2.050
25379WAT     H176379   2.982   8.045   2.057
25379WAT     H276380   2.840   8.054   2.136
25380WAT      O76381   2.484   1.931   9.320
25380WAT     H176382   2.496   1.900   9.226
25380WAT     H276383   2.450   1.856   9.377
25381WAT      O76384   7.207   5.543   7.190
25381WAT     H176385   7.136   5.501   7.133
25381WAT     H276386   7.204   5.642   7.180
25382WAT      O76387   4.195   3.258   8.992
25382WAT     H176388   4.155   3.340   9.033
25382WAT     H276389   4.160   3.177   9.040
25383WAT      O76390   1.281   0.025   5.450
25383WAT     H176391   1.182   0.035   5.458
25383WAT     H276392   1.321   0.023   5.542
25384WAT      O76393   0.946   2.879   3.322
25384WAT     H176394   0.918   2.785   3.302
25384WAT     H276395   0.867   2.931   3.354
25385WAT      O76396   8.230   1.551   7.278
25385WAT     H176397   8.221   1.620   7.351
25385WAT     H276398   8.215   1.595   7.189
25386WAT      O76399   1.069   1.605   9.027
25386WAT     H176400   1.000   1.640   8.964
25386WAT     H276401   1.149   1.574   8.976
25387WAT      O76402   1.663   3.384   5.926
25387WAT     H176403   1.701   3.468   5.965
25387WAT     H276404   1.708   3.365   5.839
25388WAT      O76405   6.039   3.500   5.847
25388WAT     H176406   5.956   3.472   5.896
25388WAT     H276407   6.113   3.437   5.870
25389WAT      O76408   7.853   5.758   5.969
25389WAT     H176409   7.857   5.834   6.034
25389WAT     H276410   7.856   5.671   6.019
25390WAT      O76411   8.856   1.588   0.618
25390WAT     H176412   8.905   1.616   0.536
25390WAT     H276413   8.770   1.543   0.593
25391WAT      O76414   4.938   6.413   7.112
25391WAT     H176415   4.842   6.404   7.087
25391WAT     H276416   4.982   6.478   7.049
25392WAT      O76417   4.772   6.854   9.734
25392WAT     H176418   4.793   6.901   9.819
25392WAT     H276419   4.744   6.921   9.665
25393WAT      O76420   1.328   7.690   2.596
25393WAT     H176421   1.392   7.766   2.602
25393WAT     H276422   1.259   7.698   2.669
25394WAT      O76423   0.402   4.516   5.780
25394WAT     H176424   0.310   4.505   5.741
25394WAT     H276425   0.398   4.504   5.879
25395WAT      O76426   9.176   6.363   3.580
25395WAT     H176427   9.119   6.404   3.509
25395WAT     H276428   9.237   6.295   3.538
25396WAT      O76429   0.668   8.139   2.833
25396WAT     H176430   0.633   8.048   2.810
25396WAT     H276431   0.641   8.163   2.926
25397WAT      O76432   5.554   6.476   6.248
25397WAT     H176433   5.467   6.524   6.237
25397WAT     H276434   5.570   6.416   6.169
25398WAT      O76435   6.702   4.870   6.611
25398WAT     H176436   6.687   4.854   6.708
25398WAT     H276437   6.622   4.914   6.571
25399WAT      O76438   9.407   0.864   0.453
25399WAT     H176439   9.329   0.855   0.515
25399WAT     H276440   9.457   0.778   0.449
25400WAT      O76441   6.593   4.434   1.303
25400WAT     H176442   6.600   4.527   1.340
25400WAT     H276443   6.685   4.395   1.294
25401WAT      O76444   3.915   1.058   2.129
25401WAT     H176445   3.994   1.002   2.105
25401WAT     H276446   3.831   1.004   2.120
25402WAT      O76447   3.420   2.461   0.999
25402WAT     H176448   3.458   2.375   1.031
25402WAT     H276449   3.459   2.536   1.053
25403WAT      O76450   4.649   7.644   2.383
25403WAT     H176451   4.681   7.714   2.447
25403WAT     H276452   4.631   7.687   2.294
25404WAT      O76453   5.739   2.858   2.065
25404WAT     H176454   5.771   2.787   2.003
25404WAT     H276455   5.760   2.948   2.027
25405WAT      O76456   0.755   6.057   9.190
25405WAT     H176457   0.754   5.969   9.142
25405WAT     H276458   0.751   6.042   9.289
25406WAT      O76459   3.715   9.762   2.966
25406WAT     H176460   3.807   9.732   2.993
25406WAT     H276461   3.708   9.762   2.867
25407WAT      O76462   6.658   8.535   7.582
25407WAT     H176463   6.606   8.552   7.666
25407WAT     H276464   6.732   8.602   7.575
25408WAT      O76465   1.465   3.364   3.548
25408WAT     H176466   1.411   3.358   3.464
25408WAT     H276467   1.417   3.419   3.616
25409WAT      O76468   7.577   8.627   2.871
25409WAT     H176469   7.552   8.723   2.857
25409WAT     H276470   7.643   8.599   2.801
25410WAT      O76471   1.273   8.392   2.740
25410WAT     H176472   1.310   8.416   2.830
25410WAT     H276473   1.304   8.458   2.672
25411WAT      O76474   9.752   7.065   5.565
25411WAT     H176475   9.738   7.128   5.640
25411WAT     H276476   9.666   7.052   5.515
25412WAT      O76477   1.594   1.306   7.896
25412WAT     H176478   1.615   1.218   7.938
25412WAT     H276479   1.535   1.292   7.816
25413WAT      O76480   6.349   3.316   2.800
25413WAT     H176481   6.373   3.349   2.891
25413WAT     H276482   6.339   3.393   2.738
25414WAT      O76483   3.867   4.523   7.980
25414WAT     H176484   3.782   4.524   7.928
25414WAT     H276485   3.932   4.587   7.939
25415WAT      O76486   9.190   2.591   1.445
25415WAT     H176487   9.131   2.662   1.484
25415WAT     H276488   9.198   2.605   1.347
25416WAT      O76489   3.030   1.452   8.758
25416WAT     H176490   2.933   1.455   8.734
25416WAT     H276491   3.073   1.539   8.734
25417WAT      O76492   2.932   4.160   3.616
25417WAT     H176493   2.846   4.122   3.650
25417WAT     H276494   3.000   4.087   3.611
25418WAT      O76495   0.495   7.031   3.580
25418WAT     H176496   0.426   7.036   3.508
25418WAT     H276497   0.564   6.963   3.555
25419WAT      O76498   3.990   6.127   5.711
25419WAT     H176499   4.022   6.146   5.618
25419WAT     H276500   3.963   6.031   5.718
25420WAT      O76501   5.982   7.446   1.073
25420WAT     H176502   6.011   7.498   1.153
25420WAT     H276503   6.028   7.357   1.073
25421WAT      O76504   7.828   8.954   2.910
25421WAT     H176505   7.873   9.011   2.841
25421WAT     H276506   7.889   8.943   2.989
25422WAT      O76507   2.916   0.759   7.615
25422WAT     H176508   2.819   0.770   7.636
25422WAT     H276509   2.932   0.781   7.519
25423WAT      O76510   1.329   4.844   8.519
25423WAT     H176511   1.255   4.777   8.532
25423WAT     H276512   1.403   4.825   8.584
25424WAT      O76513   6.904   5.031   3.043
25424WAT     H176514   6.973   4.977   3.091
25424WAT     H276515   6.949   5.094   2.980
25425WAT      O76516   9.429   1.007   2.845
25425WAT     H176517   9.444   0.911   2.869
25425WAT     H276518   9.488   1.032   2.768
25426WAT      O76519   7.826   7.697   6.092
25426WAT     H176520   7.774   7.630   6.039
25426WAT     H276521   7.817   7.677   6.189
25427WAT      O76522   6.463   7.603   3.356
25427WAT     H176523   6.390   7.622   3.422
25427WAT     H276524   6.492   7.507   3.366
25428WAT      O76525   7.808   2.452   1.806
25428WAT     H176526   7.790   2.384   1.734
25428WAT     H276527   7.783   2.414   1.895
25429WAT      O76528   2.100   6.962   4.162
25429WAT     H176529   2.038   6.947   4.085
25429WAT     H276530   2.078   7.049   4.206
25430WAT      O76531   2.875   8.876   3.447
25430WAT     H176532   2.885   8.955   3.386
25430WAT     H276533   2.965   8.840   3.472
25431WAT      O76534   3.024   7.257   1.194
25431WAT     H176535   2.941   7.234   1.142
25431WAT     H276536   3.055   7.176   1.244
25432WAT      O76537   8.496   8.534   5.708
25432WAT     H176538   8.428   8.538   5.780
25432WAT     H276539   8.486   8.448   5.657
25433WAT      O76540   3.093   7.581   7.140
25433WAT     H176541   3.017   7.639   7.170
25433WAT     H276542   3.156   7.565   7.216
25434WAT      O76543   0.832   7.099   0.886
25434WAT     H176544   0.898   7.103   0.961
25434WAT     H276545   0.740   7.086   0.924
25435WAT      O76546   2.243   4.826   0.765
25435WAT     H176547   2.149   4.846   0.737
25435WAT     H276548   2.297   4.910   0.764
25436WAT      O76549   8.108   1.249   5.326
25436WAT     H176550   8.176   1.262   5.399
25436WAT     H276551   8.061   1.336   5.308
25437WAT      O76552   1.444   2.771   2.839
25437WAT     H176553   1.420   2.786   2.743
25437WAT     H276554   1.500   2.847   2.872
25438WAT      O76555   1.666   0.355   2.031
25438WAT     H176556   1.636   0.398   2.117
25438WAT     H276557   1.617   0.269   2.018
25439WAT      O76558   2.275   5.259   4.894
25439WAT     H176559   2.258   5.256   4.795
25439WAT     H276560   2.230   5.182   4.938
25440WAT      O76561   5.358   9.573   4.571
25440WAT     H176562   5.399   9.518   4.644
25440WAT     H276563   5.428   9.628   4.527
25441WAT      O76564   0.902   6.413   0.838
25441WAT     H176565   0.911   6.416   0.738
25441WAT     H276566   0.977   6.359   0.876
25442WAT      O76567   0.625   8.182   6.386
25442WAT     H176568   0.675   8.215   6.466
25442WAT     H276569   0.548   8.244   6.368
25443WAT      O76570   8.494   5.694   4.862
25443WAT     H176571   8.566   5.634   4.826
25443WAT     H276572   8.404   5.659   4.835
25444WAT      O76573   1.676   2.142   0.346
25444WAT     H176574   1.585   2.114   0.316
25444WAT     H276575   1.745   2.085   0.302
25445WAT      O76576   6.534   0.684   0.199
25445WAT     H176577   6.462   0.737   0.243
25445WAT     H276578   6.503   0.590   0.187
25446WAT      O76579   3.529   1.396   4.976
25446WAT     H176580   3.488   1.461   4.912
25446WAT     H276581   3.491   1.411   5.068
25447WAT      O76582   7.915   7.022   1.243
25447WAT     H176583   7.851   6.967   1.297
25447WAT     H276584   7.931   6.978   1.155
25448WAT      O76585   1.993   4.317   4.162
25448WAT     H176586   1.904   4.316   4.116
25448WAT     H276587   2.015   4.225   4.194
25449WAT      O76588   5.087   6.867   2.169
25449WAT     H176589   5.005   6.893   2.119
25449WAT     H276590   5.061   6.826   2.256
25450WAT      O76591   1.603   8.133   4.659
25450WAT     H176592   1.587   8.118   4.562
25450WAT     H276593   1.534   8.196   4.695
25451WAT      O76594   7.225   5.333   9.646
25451WAT     H176595   7.305   5.380   9.683
25451WAT     H276596   7.251   5.282   9.564
25452WAT      O76597   5.854   1.382   9.020
25452WAT     H176598   5.919   1.451   9.052
25452WAT     H276599   5.903   1.297   9.000
25453WAT      O76600   0.817   8.465   0.370
25453WAT     H176601   0.867   8.531   0.313
25453WAT     H276602   0.747   8.421   0.315
25454WAT      O76603   6.186   3.180   0.912
25454WAT     H176604   6.207   3.083   0.924
25454WAT     H276605   6.271   3.231   0.898
25455WAT      O76606   3.157   1.979   1.728
25455WAT     H176607   3.214   1.993   1.648
25455WAT     H276608   3.089   1.909   1.709
25456WAT      O76609   2.487   4.129   4.499
25456WAT     H176610   2.525   4.037   4.506
25456WAT     H276611   2.418   4.132   4.427
25457WAT      O76612   5.683   7.878   0.349
25457WAT     H176613   5.776   7.900   0.374
25457WAT     H276614   5.625   7.877   0.430
25458WAT      O76615   6.820   4.459   6.534
25458WAT     H176616   6.807   4.555   6.512
25458WAT     H276617   6.739   4.423   6.580
25459WAT      O76618   6.152   2.211   0.673
25459WAT     H176619   6.104   2.240   0.756
25459WAT     H276620   6.156   2.111   0.671
25460WAT      O76621   3.519   5.884   4.748
25460WAT     H176622   3.504   5.973   4.705
25460WAT     H276623   3.430   5.843   4.769
25461WAT      O76624   5.944   9.692   5.622
25461WAT     H176625   5.987   9.647   5.699
25461WAT     H276626   5.992   9.779   5.603
25462WAT      O76627   4.761   8.791   7.709
25462WAT     H176628   4.794   8.747   7.625
25462WAT     H276629   4.769   8.891   7.700
25463WAT      O76630   0.660   0.662   8.794
25463WAT     H176631   0.747   0.694   8.832
25463WAT     H276632   0.676   0.592   8.725
25464WAT      O76633   9.194   3.769   0.044
25464WAT     H176634   9.138   3.850   0.028
25464WAT     H276635   9.268   3.766  -0.022
25465WAT      O76636   0.416   4.834   0.270
25465WAT     H176637   0.419   4.863   0.366
25465WAT     H276638   0.398   4.735   0.266
25466WAT      O76639   5.203   6.828   0.787
25466WAT     H176640   5.288   6.786   0.817
25466WAT     H276641   5.193   6.917   0.832
25467WAT      O76642   4.483   0.125   0.794
25467WAT     H176643   4.516   0.176   0.714
25467WAT     H276644   4.552   0.129   0.866
25468WAT      O76645   7.499   6.069   7.557
25468WAT     H176646   7.433   6.141   7.579
25468WAT     H276647   7.454   5.980   7.557
25469WAT      O76648   9.364   6.643   6.673
25469WAT     H176649   9.342   6.549   6.698
25469WAT     H276650   9.416   6.686   6.748
25470WAT      O76651   2.097   4.910   5.410
25470WAT     H176652   2.059   4.953   5.491
25470WAT     H276653   2.123   4.980   5.344
25471WAT      O76654   4.822   8.924   1.707
25471WAT     H176655   4.868   8.907   1.794
25471WAT     H276656   4.771   8.842   1.679
25472WAT      O76657   6.860   1.781   0.208
25472WAT     H176658   6.813   1.769   0.295
25472WAT     H276659   6.912   1.698   0.187
25473WAT      O76660   8.582   1.341   5.869
25473WAT     H176661   8.516   1.374   5.801
25473WAT     H276662   8.534   1.317   5.953
25474WAT      O76663   7.309   0.449   7.633
25474WAT     H176664   7.370   0.441   7.711
25474WAT     H276665   7.317   0.368   7.575
25475WAT      O76666   7.893   0.893   5.560
25475WAT     H176667   7.967   0.853   5.613
25475WAT     H276668   7.817   0.829   5.555
25476WAT      O76669   9.410   6.378   1.655
25476WAT     H176670   9.360   6.441   1.596
25476WAT     H276671   9.429   6.293   1.605
25477WAT      O76672   7.134   6.871   9.240
25477WAT     H176673   7.132   6.773   9.256
25477WAT     H276674   7.212   6.912   9.287
25478WAT      O76675   0.025   9.245   4.006
25478WAT     H176676   0.077   9.306   4.067
25478WAT     H276677  -0.072   9.262   4.018
25479WAT      O76678   6.297   2.259   9.819
25479WAT     H176679   6.250   2.233   9.904
25479WAT     H276680   6.298   2.358   9.811
25480WAT      O76681   5.167   3.776   7.681
25480WAT     H176682   5.252   3.725   7.691
25480WAT     H276683   5.179   3.848   7.612
25481WAT      O76684   9.286   3.109   3.924
25481WAT     H176685   9.347   3.131   4.000
25481WAT     H276686   9.267   3.192   3.872
25482WAT      O76687   5.111   0.789   5.118
25482WAT     H176688   5.057   0.726   5.063
25482WAT     H276689   5.057   0.872   5.136
25483WAT      O76690   8.104   9.816   6.279
25483WAT     H176691   8.131   9.762   6.359
25483WAT     H276692   8.011   9.790   6.252
25484WAT      O76693   3.630   3.046   5.812
25484WAT     H176694   3.533   3.056   5.832
25484WAT     H276695   3.665   2.962   5.854
25485WAT      O76696   5.829   3.638   7.853
25485WAT     H176697   5.840   3.549   7.809
25485WAT     H276698   5.791   3.703   7.788
25486WAT      O76699   0.622   9.360   1.619
25486WAT     H176700   0.579   9.314   1.697
25486WAT     H276701   0.582   9.324   1.534
25487WAT      O76702   9.118   8.569   3.469
25487WAT     H176703   9.215   8.547   3.477
25487WAT     H276704   9.064   8.491   3.501
25488WAT      O76705   1.203   6.755   1.211
25488WAT     H176706   1.140   6.750   1.134
25488WAT     H276707   1.297   6.747   1.178
25489WAT      O76708   6.659   4.647   1.462
25489WAT     H176709   6.732   4.650   1.392
25489WAT     H276710   6.635   4.740   1.489
25490WAT      O76711   2.345   9.335   8.653
25490WAT     H176712   2.432   9.296   8.683
25490WAT     H276713   2.272   9.306   8.715
25491WAT      O76714   3.522   2.917   7.417
25491WAT     H176715   3.574   2.965   7.488
25491WAT     H276716   3.584   2.863   7.360
25492WAT      O76717   4.115   8.375   7.553
25492WAT     H176718   4.192   8.353   7.493
25492WAT     H276719   4.117   8.472   7.575
25493WAT      O76720   9.332   0.216   2.564
25493WAT     H176721   9.243   0.186   2.600
25493WAT     H276722   9.398   0.222   2.639
25494WAT      O76723   3.830   8.105   0.153
25494WAT     H176724   3.825   8.193   0.105
25494WAT     H276725   3.787   8.034   0.097
25495WAT      O76726   4.530   8.700   6.143
25495WAT     H176727   4.472   8.770   6.185
25495WAT     H276728   4.570   8.642   6.214
25496WAT      O76729   5.267   2.589   1.132
25496WAT     H176730   5.171   2.574   1.153
25496WAT     H276731   5.323   2.524   1.184
25497WAT      O76732   1.806   7.657   9.840
25497WAT     H176733   1.770   7.695   9.925
25497WAT     H276734   1.803   7.557   9.846
25498WAT      O76735   9.863   3.209   2.007
25498WAT     H176736   9.831   3.208   1.912
25498WAT     H276737   9.789   3.180   2.068
25499WAT      O76738   8.582   2.063   9.406
25499WAT     H176739   8.565   1.993   9.337
25499WAT     H276740   8.680   2.071   9.423
25500WAT      O76741   2.927   6.404   5.192
25500WAT     H176742   2.937   6.312   5.153
25500WAT     H276743   2.854   6.403   5.260
25501WAT      O76744   4.293   9.805   5.619
25501WAT     H176745   4.270   9.725   5.676
25501WAT     H276746   4.365   9.780   5.555
25502WAT      O76747   7.957   8.673   8.463
25502WAT     H176748   8.008   8.757   8.479
25502WAT     H276749   7.908   8.647   8.546
25503WAT      O76750   7.140   3.267   1.510
25503WAT     H176751   7.111   3.234   1.599
25503WAT     H276752   7.240   3.271   1.507
25504WAT      O76753   7.609   4.133   8.786
25504WAT     H176754   7.542   4.184   8.839
25504WAT     H276755   7.607   4.164   8.691
25505WAT      O76756   3.730   3.652   2.533
25505WAT     H176757   3.655   3.643   2.598
25505WAT     H276758   3.792   3.724   2.564
25506WAT      O76759   0.047   3.382   0.911
25506WAT     H176760  -0.052   3.376   0.896
25506WAT     H276761   0.079   3.472   0.883
25507WAT      O76762   5.552   6.796   4.533
25507WAT     H176763   5.652   6.805   4.535
25507WAT     H276764   5.515   6.827   4.621
25508WAT      O76765   0.525   6.386   4.196
25508WAT     H176766   0.570   6.384   4.107
25508WAT     H276767   0.456   6.458   4.197
25509WAT      O76768   1.150   5.731   3.024
25509WAT     H176769   1.156   5.796   2.948
25509WAT     H276770   1.152   5.638   2.989
25510WAT      O76771   0.546   0.951   6.583
25510WAT     H176772   0.545   0.876   6.649
25510WAT     H276773   0.578   0.917   6.494
25511WAT      O76774   0.629   5.608   0.352
25511WAT     H176775   0.589   5.526   0.312
25511WAT     H276776   0.708   5.583   0.408
25512WAT      O76777   1.195   7.379   6.703
25512WAT     H176778   1.225   7.378   6.608
25512WAT     H276779   1.175   7.285   6.732
25513WAT      O76780   3.255   3.899   2.371
25513WAT     H176781   3.193   3.901   2.449
25513WAT     H276782   3.346   3.870   2.401
25514WAT      O76783   6.116   3.229   3.013
25514WAT     H176784   6.072   3.162   2.953
25514WAT     H276785   6.047   3.268   3.075
25515WAT      O76786   6.058   1.403   3.797
25515WAT     H176787   6.020   1.495   3.807
25515WAT     H276788   6.145   1.398   3.847
25516WAT      O76789   5.316   6.701   3.483
25516WAT     H176790   5.261   6.625   3.518
25516WAT     H276791   5.365   6.745   3.558
25517WAT      O76792   9.642   4.528   1.550
25517WAT     H176793   9.742   4.517   1.546
25517WAT     H276794   9.606   4.533   1.457
25518WAT      O76795   5.573   2.873   5.516
25518WAT     H176796   5.598   2.956   5.466
25518WAT     H276797   5.600   2.883   5.612
25519WAT      O76798   5.036   9.233   9.513
25519WAT     H176799   5.099   9.158   9.534
25519WAT     H276800   4.946   9.213   9.550
25520WAT      O76801   2.321   6.466   8.099
25520WAT     H176802   2.276   6.380   8.078
25520WAT     H276803   2.280   6.507   8.180
25521WAT      O76804   7.363   6.791   7.956
25521WAT     H176805   7.387   6.888   7.968
25521WAT     H276806   7.383   6.764   7.862
25522WAT      O76807   9.787   8.709   6.549
25522WAT     H176808   9.780   8.803   6.516
25522WAT     H276809   9.860   8.704   6.617
25523WAT      O76810   6.070   5.880   2.951
25523WAT     H176811   6.143   5.884   3.020
25523WAT     H276812   6.012   5.961   2.960
25524WAT      O76813   7.836   0.734   5.200
25524WAT     H176814   7.797   0.820   5.167
25524WAT     H276815   7.764   0.680   5.245
25525WAT      O76816   2.376   4.625   9.498
25525WAT     H176817   2.316   4.699   9.469
25525WAT     H276818   2.322   4.551   9.538
25526WAT      O76819   8.876   6.602   9.476
25526WAT     H176820   8.838   6.581   9.386
25526WAT     H276821   8.946   6.673   9.466
25527WAT      O76822   5.582   0.747   0.305
25527WAT     H176823   5.679   0.725   0.315
25527WAT     H276824   5.570   0.803   0.223
25528WAT      O76825   1.050   5.098   7.661
25528WAT     H176826   1.091   5.145   7.740
25528WAT     H276827   0.950   5.099   7.670
25529WAT      O76828   8.758   6.963   7.430
25529WAT     H176829   8.709   7.050   7.429
25529WAT     H276830   8.751   6.921   7.520
25530WAT      O76831   1.116   6.832   5.083
25530WAT     H176832   1.153   6.760   5.024
25530WAT     H276833   1.086   6.793   5.170
25531WAT      O76834   4.578   1.217   6.928
25531WAT     H176835   4.515   1.276   6.979
25531WAT     H276836   4.526   1.161   6.863
25532WAT      O76837   2.845   8.870   6.706
25532WAT     H176838   2.753   8.875   6.745
25532WAT     H276839   2.909   8.835   6.776
25533WAT      O76840   8.322   3.969   6.677
25533WAT     H176841   8.414   3.971   6.637
25533WAT     H276842   8.254   3.984   6.606
25534WAT      O76843   3.790   1.725   6.847
25534WAT     H176844   3.721   1.755   6.912
25534WAT     H276845   3.759   1.642   6.801
25535WAT      O76846   1.302   5.905   5.618
25535WAT     H176847   1.351   5.855   5.689
25535WAT     H276848   1.334   5.875   5.528
25536WAT      O76849   1.727   3.594   6.090
25536WAT     H176850   1.655   3.650   6.049
25536WAT     H276851   1.714   3.589   6.189
25537WAT      O76852   7.081   5.587   4.427
25537WAT     H176853   7.107   5.680   4.452
25537WAT     H276854   7.157   5.525   4.446
25538WAT      O76855   9.358   3.041   8.895
25538WAT     H176856   9.273   2.992   8.911
25538WAT     H276857   9.391   3.022   8.803
25539WAT      O76858   4.887   2.751   7.454
25539WAT     H176859   4.819   2.705   7.511
25539WAT     H276860   4.843   2.786   7.372
25540WAT      O76861   7.216   8.720   1.653
25540WAT     H176862   7.130   8.759   1.619
25540WAT     H276863   7.243   8.642   1.596
25541WAT      O76864   9.128   5.616   9.795
25541WAT     H176865   9.191   5.692   9.808
25541WAT     H276866   9.042   5.650   9.756
25542WAT      O76867   5.517   9.150   9.740
25542WAT     H176868   5.521   9.202   9.826
25542WAT     H276869   5.540   9.211   9.664
25543WAT      O76870   8.559   9.519   5.024
25543WAT     H176871   8.631   9.455   5.051
25543WAT     H276872   8.484   9.514   5.091
25544WAT      O76873   0.956   6.753   0.714
25544WAT     H176874   0.856   6.744   0.715
25544WAT     H276875   0.990   6.748   0.621
25545WAT      O76876   4.783   2.311   0.078
25545WAT     H176877   4.770   2.216   0.051
25545WAT     H276878   4.701   2.363   0.055
25546WAT      O76879   6.334   6.830   6.411
25546WAT     H176880   6.321   6.773   6.330
25546WAT     H276881   6.253   6.826   6.468
25547WAT      O76882   0.363   7.609   7.637
25547WAT     H176883   0.361   7.681   7.568
25547WAT     H276884   0.370   7.520   7.592
25548WAT      O76885   5.816   1.065   1.475
25548WAT     H176886   5.758   1.056   1.394
25548WAT     H276887   5.877   1.143   1.465
25549WAT      O76888   7.135   7.192   8.144
25549WAT     H176889   7.227   7.168   8.115
25549WAT     H276890   7.123   7.167   8.240
25550WAT      O76891   1.048   4.022   7.765
25550WAT     H176892   0.998   4.097   7.723
25550WAT     H276893   1.115   3.986   7.699
25551WAT      O76894   4.976   2.972   0.154
25551WAT     H176895   4.973   2.981   0.253
25551WAT     H276896   4.937   2.884   0.126
25552WAT      O76897   4.887   7.843   7.727
25552WAT     H176898   4.932   7.753   7.725
25552WAT     H276899   4.934   7.905   7.664
25553WAT      O76900   5.986   6.588   4.887
25553WAT     H176901   5.905   6.614   4.835
25553WAT     H276902   6.067   6.627   4.843
25554WAT      O76903   3.076   5.384   3.189
25554WAT     H176904   3.121   5.312   3.242
25554WAT     H276905   3.131   5.406   3.109
25555WAT      O76906   2.179   0.838   8.877
25555WAT     H176907   2.121   0.786   8.939
25555WAT     H276908   2.249   0.778   8.838
25556WAT      O76909   5.193   6.412   4.523
25556WAT     H176910   5.143   6.355   4.588
25556WAT     H276911   5.251   6.353   4.467
25557WAT      O76912   3.189   4.935   0.338
25557WAT     H176913   3.191   5.034   0.325
25557WAT     H276914   3.100   4.906   0.372
25558WAT      O76915   3.030   6.910   2.262
25558WAT     H176916   2.994   6.916   2.354
25558WAT     H276917   2.986   6.978   2.203
25559WAT      O76918   0.042   2.981   0.874
25559WAT     H176919   0.025   2.942   0.964
25559WAT     H276920   0.068   2.909   0.810
25560WAT      O76921   9.719   4.253   5.353
25560WAT     H176922   9.808   4.261   5.399
25560WAT     H276923   9.725   4.186   5.279
25561WAT      O76924   1.756   2.321   2.026
25561WAT     H176925   1.676   2.332   1.966
25561WAT     H276926   1.827   2.385   1.999
25562WAT      O76927   5.197   6.299   8.253
25562WAT     H176928   5.222   6.304   8.157
25562WAT     H276929   5.183   6.203   8.279
25563WAT      O76930   2.426   8.427   6.327
25563WAT     H176931   2.522   8.453   6.338
25563WAT     H276932   2.388   8.471   6.246
25564WAT      O76933   0.828   3.338   2.669
25564WAT     H176934   0.771   3.265   2.629
25564WAT     H276935   0.894   3.298   2.732
25565WAT      O76936   0.863   2.815   9.158
25565WAT     H176937   0.772   2.857   9.152
25565WAT     H276938   0.898   2.800   9.065
25566WAT      O76939   6.176   9.731   4.431
25566WAT     H176940   6.267   9.689   4.433
25566WAT     H276941   6.172   9.798   4.357
25567WAT      O76942   8.430   1.999   4.225
25567WAT     H176943   8.463   2.094   4.224
25567WAT     H276944   8.398   1.974   4.134
25568WAT      O76945   6.509   7.136   8.065
25568WAT     H176946   6.501   7.229   8.028
25568WAT     H276947   6.435   7.121   8.131
25569WAT      O76948   5.935   1.412   7.925
25569WAT     H176949   5.950   1.458   8.013
25569WAT     H276950   5.964   1.317   7.932
25570WAT      O76951   6.167   8.496   5.091
25570WAT     H176952   6.252   8.492   5.039
25570WAT     H276953   6.138   8.592   5.099
25571WAT      O76954   4.866   6.253   4.813
25571WAT     H176955   4.843   6.276   4.907
25571WAT     H276956   4.794   6.196   4.774
25572WAT      O76957   5.204   0.842   4.696
25572WAT     H176958   5.213   0.906   4.620
25572WAT     H276959   5.238   0.752   4.668
25573WAT      O76960   0.264   8.236   6.548
25573WAT     H176961   0.275   8.150   6.599
25573WAT     H276962   0.177   8.235   6.499
25574WAT      O76963   2.065   9.148   0.076
25574WAT     H176964   2.077   9.132   0.174
25574WAT     H276965   2.105   9.237   0.052
25575WAT      O76966   9.533   3.503   4.967
25575WAT     H176967   9.564   3.474   5.057
25575WAT     H276968   9.601   3.564   4.926
25576WAT      O76969   5.308   8.857   1.988
25576WAT     H176970   5.285   8.950   1.957
25576WAT     H276971   5.331   8.860   2.086
25577WAT      O76972   2.936   0.060   3.125
25577WAT     H176973   2.905   0.142   3.078
25577WAT     H276974   2.959  -0.011   3.058
25578WAT      O76975   7.252   9.593   0.677
25578WAT     H176976   7.339   9.574   0.631
25578WAT     H276977   7.178   9.591   0.610
25579WAT      O76978   8.158   9.795   2.892
25579WAT     H176979   8.138   9.756   2.802
25579WAT     H276980   8.247   9.840   2.890
25580WAT      O76981   2.936   6.815   3.895
25580WAT     H176982   2.876   6.787   3.820
25580WAT     H276983   2.928   6.749   3.970
25581WAT      O76984   4.032   1.226   3.661
25581WAT     H176985   3.958   1.171   3.623
25581WAT     H276986   4.106   1.234   3.593
25582WAT      O76987   4.155   1.129   8.137
25582WAT     H176988   4.188   1.186   8.213
25582WAT     H276989   4.173   1.175   8.050
25583WAT      O76990   1.069   4.851   8.852
25583WAT     H176991   1.155   4.900   8.864
25583WAT     H276992   0.997   4.915   8.828
25584WAT      O76993   6.454   9.321   4.526
25584WAT     H176994   6.422   9.227   4.533
25584WAT     H276995   6.509   9.332   4.443
25585WAT      O76996   7.515   5.048   9.715
25585WAT     H176997   7.477   5.019   9.627
25585WAT     H276998   7.441   5.060   9.781
25586WAT      O76999   9.821   7.794   8.798
25586WAT     H177000   9.839   7.779   8.896
25586WAT     H277001   9.774   7.881   8.785
25587WAT      O77002   2.063   5.813   5.687
25587WAT     H177003   1.985   5.825   5.625
25587WAT     H277004   2.147   5.808   5.635
25588WAT      O77005   6.312   4.644   1.607
25588WAT     H177006   6.271   4.555   1.622
25588WAT     H277007   6.403   4.647   1.649
25589WAT      O77008   3.273   3.412   1.397
25589WAT     H177009   3.258   3.336   1.333
25589WAT     H277010   3.217   3.398   1.478
25590WAT      O77011   9.542   8.931   6.038
25590WAT     H177012   9.515   8.932   6.134
25590WAT     H277013   9.583   9.018   6.013
25591WAT      O77014   2.471   8.041   4.545
25591WAT     H177015   2.384   8.037   4.594
25591WAT     H277016   2.463   8.102   4.466
25592WAT      O77017   8.393   7.072   8.079
25592WAT     H177018   8.376   7.064   8.177
25592WAT     H277019   8.384   6.982   8.037
25593WAT      O77020   4.356   2.152   7.564
25593WAT     H177021   4.337   2.233   7.619
25593WAT     H277022   4.452   2.127   7.574
25594WAT      O77023   4.225   1.714   6.394
25594WAT     H177024   4.264   1.804   6.374
25594WAT     H277025   4.211   1.664   6.308
25595WAT      O77026   1.672   0.255   7.382
25595WAT     H177027   1.693   0.346   7.346
25595WAT     H277028   1.585   0.224   7.345
25596WAT      O77029   2.962   3.989   2.913
25596WAT     H177030   2.903   3.908   2.916
25596WAT     H277031   2.908   4.070   2.934
25597WAT      O77032   0.892   6.615   3.475
25597WAT     H177033   0.843   6.544   3.426
25597WAT     H277034   0.933   6.679   3.410
25598WAT      O77035   7.421   0.976   5.469
25598WAT     H177036   7.352   0.910   5.498
25598WAT     H277037   7.377   1.062   5.443
25599WAT      O77038   4.765   2.167   3.761
25599WAT     H177039   4.847   2.109   3.760
25599WAT     H277040   4.699   2.130   3.826
25600WAT      O77041   8.799   6.750   8.365
25600WAT     H177042   8.801   6.670   8.426
25600WAT     H277043   8.887   6.796   8.367
25601WAT      O77044   7.889   5.243   2.764
25601WAT     H177045   7.893   5.341   2.779
25601WAT     H277046   7.841   5.224   2.678
25602WAT      O77047   0.518   2.744   8.052
25602WAT     H177048   0.439   2.747   7.991
25602WAT     H277049   0.561   2.835   8.055
25603WAT      O77050   5.284   6.264   2.987
25603WAT     H177051   5.358   6.298   2.928
25603WAT     H277052   5.273   6.325   3.065
25604WAT      O77053   7.627   2.825   2.373
25604WAT     H177054   7.577   2.841   2.289
25604WAT     H277055   7.623   2.907   2.431
25605WAT      O77056   4.629   5.697   7.401
25605WAT     H177057   4.722   5.697   7.365
25605WAT     H277058   4.570   5.643   7.341
25606WAT      O77059   9.781   0.535   9.154
25606WAT     H177060   9.849   0.596   9.195
25606WAT     H277061   9.786   0.541   9.055
25607WAT      O77062   6.285   6.524   7.769
25607WAT     H177063   6.364   6.465   7.788
25607WAT     H277064   6.317   6.618   7.758
25608WAT      O77065   0.377   9.191   5.961
25608WAT     H177066   0.450   9.258   5.950
25608WAT     H277067   0.415   9.099   5.965
25609WAT      O77068   0.281   7.974   6.700
25609WAT     H177069   0.231   7.958   6.785
25609WAT     H277070   0.362   7.915   6.697
25610WAT      O77071   7.170   0.672   2.169
25610WAT     H177072   7.122   0.599   2.219
25610WAT     H277073   7.211   0.634   2.087
25611WAT      O77074   5.265   7.832   9.874
25611WAT     H177075   5.233   7.768   9.804
25611WAT     H277076   5.356   7.806   9.904
25612WAT      O77077   8.771   1.484   3.451
25612WAT     H177078   8.759   1.514   3.546
25612WAT     H277079   8.759   1.385   3.446
25613WAT      O77080   8.712   3.153   7.834
25613WAT     H177081   8.723   3.140   7.735
25613WAT     H277082   8.617   3.133   7.859
25614WAT      O77083   6.582   3.057   9.285
25614WAT     H177084   6.535   3.031   9.201
25614WAT     H277085   6.521   3.042   9.363
25615WAT      O77086   4.473   1.143   4.292
25615WAT     H177087   4.525   1.068   4.334
25615WAT     H277088   4.384   1.151   4.337
25616WAT      O77089   6.285   7.147   8.219
25616WAT     H177090   6.252   7.053   8.214
25616WAT     H277091   6.218   7.208   8.177
25617WAT      O77092   2.927   1.287   7.149
25617WAT     H177093   2.859   1.356   7.125
25617WAT     H277094   3.018   1.322   7.127
25618WAT      O77095   0.102   0.062   1.714
25618WAT     H177096   0.035   0.102   1.652
25618WAT     H277097   0.059  -0.011   1.767
25619WAT      O77098   6.322   8.264   9.375
25619WAT     H177099   6.256   8.248   9.449
25619WAT     H277100   6.309   8.355   9.338
25620WAT      O77101   7.397   5.135   1.511
25620WAT     H177102   7.315   5.167   1.559
25620WAT     H277103   7.389   5.036   1.494
25621WAT      O77104   0.994   0.092   8.618
25621WAT     H177105   0.910   0.043   8.595
25621WAT     H277106   1.039   0.123   8.534
25622WAT      O77107   9.821   9.220   3.486
25622WAT     H177108   9.816   9.127   3.522
25622WAT     H277109   9.912   9.237   3.449
25623WAT      O77110   1.620   3.663   4.040
25623WAT     H177111   1.570   3.594   3.988
25623WAT     H277112   1.607   3.648   4.138
25624WAT      O77113   9.608   9.531   9.685
25624WAT     H177114   9.601   9.616   9.737
25624WAT     H277115   9.679   9.540   9.616
25625WAT      O77116   9.237   9.765   4.509
25625WAT     H177117   9.312   9.761   4.575
25625WAT     H277118   9.238   9.683   4.451
25626WAT      O77119   2.956   7.155   7.637
25626WAT     H177120   2.950   7.224   7.565
25626WAT     H277121   3.048   7.114   7.636
25627WAT      O77122   4.517   8.326   5.798
25627WAT     H177123   4.546   8.262   5.727
25627WAT     H277124   4.418   8.318   5.812
25628WAT      O77125   3.799   4.165   4.151
25628WAT     H177126   3.727   4.188   4.087
25628WAT     H277127   3.839   4.249   4.188
25629WAT      O77128   5.956   0.113   2.477
25629WAT     H177129   5.964   0.058   2.560
25629WAT     H277130   5.871   0.091   2.429
25630WAT      O77131  -0.000   8.313   9.374
25630WAT     H177132   0.072   8.312   9.443
25630WAT     H277133  -0.042   8.223   9.368
25631WAT      O77134   8.131   2.113   9.557
25631WAT     H177135   8.080   2.100   9.642
25631WAT     H277136   8.228   2.130   9.578
25632WAT      O77137   7.040   8.357   8.967
25632WAT     H177138   7.042   8.383   9.063
25632WAT     H277139   7.061   8.437   8.910
25633WAT      O77140   1.057   2.815   0.611
25633WAT     H177141   0.960   2.793   0.602
25633WAT     H277142   1.067   2.893   0.674
25634WAT      O77143   8.486   0.499   2.793
25634WAT     H177144   8.559   0.546   2.843
25634WAT     H277145   8.416   0.566   2.768
25635WAT      O77146   8.146   3.230   9.189
25635WAT     H177147   8.051   3.243   9.162
25635WAT     H277148   8.154   3.239   9.288
25636WAT      O77149   5.493   7.099   5.852
25636WAT     H177150   5.411   7.134   5.806
25636WAT     H277151   5.480   7.002   5.874
25637WAT      O77152   5.648   2.595   1.296
25637WAT     H177153   5.594   2.525   1.247
25637WAT     H277154   5.626   2.685   1.259
25638WAT      O77155   0.635   4.420   6.066
25638WAT     H177156   0.544   4.452   6.090
25638WAT     H277157   0.650   4.329   6.104
25639WAT      O77158   7.260   6.681   2.315
25639WAT     H177159   7.268   6.735   2.399
25639WAT     H277160   7.262   6.584   2.337
25640WAT      O77161   1.881   3.934   5.820
25640WAT     H177162   1.804   3.938   5.883
25640WAT     H277163   1.904   4.027   5.790
25641WAT      O77164   5.677   2.656   8.110
25641WAT     H177165   5.623   2.729   8.069
25641WAT     H277166   5.692   2.676   8.207
25642WAT      O77167   7.840   9.688   3.344
25642WAT     H177168   7.796   9.599   3.338
25642WAT     H277169   7.855   9.724   3.252
25643WAT      O77170   1.862   6.404   5.043
25643WAT     H177171   1.876   6.308   5.021
25643WAT     H277172   1.889   6.421   5.137
25644WAT      O77173   7.559   6.965   7.528
25644WAT     H177174   7.528   7.058   7.510
25644WAT     H277175   7.589   6.923   7.442
25645WAT      O77176   2.451   1.622   8.407
25645WAT     H177177   2.516   1.673   8.464
25645WAT     H277178   2.456   1.655   8.313
25646WAT      O77179   8.374   1.924   2.730
25646WAT     H177180   8.302   1.978   2.773
25646WAT     H277181   8.419   1.979   2.659
25647WAT      O77182   6.980   4.553   4.904
25647WAT     H177183   7.017   4.551   4.997
25647WAT     H277184   7.006   4.469   4.856
25648WAT      O77185   3.304   2.010   0.126
25648WAT     H177186   3.334   2.105   0.113
25648WAT     H277187   3.248   1.982   0.048
25649WAT      O77188   8.342   4.531   1.678
25649WAT     H177189   8.392   4.498   1.598
25649WAT     H277190   8.397   4.517   1.761
25650WAT      O77191   1.612   7.590   7.973
25650WAT     H177192   1.594   7.684   8.002
25650WAT     H277193   1.710   7.576   7.960
25651WAT      O77194   4.474   5.402   5.212
25651WAT     H177195   4.428   5.322   5.251
25651WAT     H277196   4.415   5.482   5.221
25652WAT      O77197   6.617   3.832   1.732
25652WAT     H177198   6.567   3.798   1.811
25652WAT     H277199   6.704   3.870   1.761
25653WAT      O77200   9.067   7.068   7.579
25653WAT     H177201   9.034   6.975   7.568
25653WAT     H277202   9.132   7.072   7.656
25654WAT      O77203   0.054   2.347   3.914
25654WAT     H177204   0.130   2.398   3.952
25654WAT     H277205  -0.028   2.361   3.971
25655WAT      O77206   0.004   8.491   0.370
25655WAT     H177207   0.087   8.525   0.325
25655WAT     H277208  -0.073   8.550   0.348
25656WAT      O77209   5.453   6.646   3.225
25656WAT     H177210   5.435   6.708   3.149
25656WAT     H277211   5.414   6.684   3.309
25657WAT      O77212   7.864   3.775   8.366
25657WAT     H177213   7.849   3.777   8.268
25657WAT     H277214   7.936   3.841   8.390
25658WAT      O77215   8.761   4.615   0.009
25658WAT     H177216   8.778   4.714   0.007
25658WAT     H277217   8.677   4.594  -0.040
25659WAT      O77218   7.697   2.546   3.531
25659WAT     H177219   7.689   2.552   3.432
25659WAT     H277220   7.737   2.457   3.556
25660WAT      O77221   9.086   4.425   7.324
25660WAT     H177222   9.064   4.335   7.362
25660WAT     H277223   9.014   4.490   7.348
25661WAT      O77224   9.724   4.053   5.131
25661WAT     H177225   9.789   3.980   5.112
25661WAT     H277226   9.631   4.018   5.124
25662WAT      O77227   2.527   3.486   6.860
25662WAT     H177228   2.534   3.541   6.944
25662WAT     H277229   2.461   3.528   6.799
25663WAT      O77230   5.796   4.071   9.857
25663WAT     H177231   5.731   4.087   9.931
25663WAT     H277232   5.754   4.012   9.788
25664WAT      O77233   4.581   3.327   7.137
25664WAT     H177234   4.512   3.396   7.160
25664WAT     H277235   4.555   3.281   7.052
25665WAT      O77236   1.337   8.775   3.045
25665WAT     H177237   1.419   8.793   2.990
25665WAT     H277238   1.340   8.830   3.128
25666WAT      O77239   1.814   7.583   2.379
25666WAT     H177240   1.877   7.631   2.317
25666WAT     H277241   1.720   7.599   2.349
25667WAT      O77242   8.737   2.116   6.864
25667WAT     H177243   8.781   2.203   6.889
25667WAT     H277244   8.661   2.134   6.801
25668WAT      O77245   4.444   8.171   2.580
25668WAT     H177246   4.543   8.161   2.593
25668WAT     H277247   4.425   8.184   2.482
25669WAT      O77248   5.239   8.545   6.591
25669WAT     H177249   5.253   8.466   6.531
25669WAT     H277250   5.265   8.628   6.542
25670WAT      O77251   0.156   9.156   8.069
25670WAT     H177252   0.141   9.215   7.989
25670WAT     H277253   0.072   9.152   8.123
25671WAT      O77254   6.724   5.041   3.812
25671WAT     H177255   6.771   4.991   3.885
25671WAT     H277256   6.659   4.981   3.767
25672WAT      O77257   1.083   1.651   1.474
25672WAT     H177258   1.156   1.719   1.465
25672WAT     H277259   0.995   1.697   1.476
25673WAT      O77260   2.967   0.731   4.539
25673WAT     H177261   2.992   0.639   4.572
25673WAT     H277262   2.871   0.749   4.560
25674WAT      O77263   4.555   5.625   0.830
25674WAT     H177264   4.648   5.650   0.804
25674WAT     H277265   4.534   5.533   0.796
25675WAT      O77266   2.746   0.932   9.836
25675WAT     H177267   2.650   0.914   9.812
25675WAT     H277268   2.749   0.987   9.919
25676WAT      O77269   7.418   5.464   8.400
25676WAT     H177270   7.340   5.404   8.419
25676WAT     H277271   7.386   5.558   8.390
25677WAT      O77272   1.795   8.327   3.512
25677WAT     H177273   1.792   8.380   3.597
25677WAT     H277274   1.824   8.386   3.437
25678WAT      O77275   7.018   1.622   5.258
25678WAT     H177276   7.038   1.674   5.176
25678WAT     H277277   6.922   1.595   5.258
25679WAT      O77278   5.308   2.930   5.610
25679WAT     H177279   5.397   2.894   5.582
25679WAT     H277280   5.258   2.963   5.530
25680WAT      O77281   7.850   7.035   4.869
25680WAT     H177282   7.919   6.977   4.912
25680WAT     H277283   7.865   7.130   4.896
25681WAT      O77284   0.330   4.306   9.304
25681WAT     H177285   0.366   4.273   9.392
25681WAT     H277286   0.366   4.397   9.286
25682WAT      O77287   3.687   6.826   1.045
25682WAT     H177288   3.678   6.830   1.144
25682WAT     H277289   3.686   6.919   1.007
25683WAT      O77290   8.049   4.152   6.195
25683WAT     H177291   8.048   4.214   6.273
25683WAT     H277292   7.955   4.136   6.165
25684WAT      O77293   7.351   0.173   3.181
25684WAT     H177294   7.258   0.158   3.214
25684WAT     H277295   7.414   0.113   3.231
25685WAT      O77296   9.755   0.192   9.010
25685WAT     H177297   9.667   0.204   8.964
25685WAT     H277298   9.817   0.141   8.951
25686WAT      O77299   0.447   2.522   3.612
25686WAT     H177300   0.385   2.445   3.620
25686WAT     H277301   0.452   2.570   3.700
25687WAT      O77302   8.109   0.099   6.704
25687WAT     H177303   8.147   0.162   6.636
25687WAT     H277304   8.074   0.018   6.657
25688WAT      O77305   7.152   2.124   7.792
25688WAT     H177306   7.099   2.067   7.730
25688WAT     H277307   7.126   2.105   7.886
25689WAT      O77308   2.116   3.385   0.982
25689WAT     H177309   2.199   3.331   0.994
25689WAT     H277310   2.036   3.325   0.985
25690WAT      O77311   8.225   2.237   7.374
25690WAT     H177312   8.223   2.278   7.465
25690WAT     H277313   8.152   2.275   7.318
25691WAT      O77314   1.642   7.921   0.494
25691WAT     H177315   1.678   7.829   0.476
25691WAT     H277316   1.619   7.965   0.408
25692WAT      O77317   5.991   6.448   7.084
25692WAT     H177318   6.053   6.527   7.082
25692WAT     H277319   6.042   6.367   7.113
25693WAT      O77320   0.692   3.525   1.139
25693WAT     H177321   0.603   3.555   1.104
25693WAT     H277322   0.721   3.443   1.091
25694WAT      O77323   6.819   3.339   1.177
25694WAT     H177324   6.817   3.335   1.277
25694WAT     H277325   6.911   3.319   1.145
25695WAT      O77326   8.046   6.937   0.094
25695WAT     H177327   8.071   6.849   0.053
25695WAT     H277328   8.022   7.002   0.023
25696WAT      O77329   7.063   2.193   9.822
25696WAT     H177330   6.965   2.185   9.840
25696WAT     H277331   7.105   2.250   9.893
25697WAT      O77332   4.778   1.216   1.466
25697WAT     H177333   4.763   1.119   1.448
25697WAT     H277334   4.691   1.260   1.487
25698WAT      O77335   8.204   8.319   4.857
25698WAT     H177336   8.125   8.345   4.802
25698WAT     H277337   8.279   8.383   4.839
25699WAT      O77338   7.406   9.100   8.502
25699WAT     H177339   7.404   9.172   8.432
25699WAT     H277340   7.312   9.079   8.530
25700WAT      O77341   6.973   2.738   4.480
25700WAT     H177342   6.881   2.778   4.477
25700WAT     H277343   6.996   2.701   4.391
25701WAT      O77344   6.004   1.710   1.266
25701WAT     H177345   5.963   1.785   1.215
25701WAT     H277346   6.061   1.746   1.340
25702WAT      O77347   5.067   4.546   9.772
25702WAT     H177348   5.086   4.464   9.719
25702WAT     H277349   5.039   4.520   9.865
25703WAT      O77350   2.909   9.348   4.663
25703WAT     H177351   2.862   9.326   4.578
25703WAT     H277352   2.917   9.266   4.720
25704WAT      O77353   0.385   2.684   5.798
25704WAT     H177354   0.366   2.695   5.701
25704WAT     H277355   0.388   2.773   5.842
25705WAT      O77356   1.649   1.558   7.664
25705WAT     H177357   1.645   1.471   7.615
25705WAT     H277358   1.730   1.560   7.722
25706WAT      O77359   1.588   4.493   9.022
25706WAT     H177360   1.577   4.591   9.012
25706WAT     H277361   1.649   4.459   8.950
25707WAT      O77362   6.698   0.274   8.258
25707WAT     H177363   6.741   0.284   8.348
25707WAT     H277364   6.729   0.190   8.214
25708WAT      O77365   4.751   0.092   4.255
25708WAT     H177366   4.698   0.168   4.293
25708WAT     H277367   4.766   0.107   4.157
25709WAT      O77368   1.176   8.590   0.333
25709WAT     H177369   1.250   8.584   0.400
25709WAT     H277370   1.208   8.642   0.254
25710WAT      O77371   6.225   3.453   8.238
25710WAT     H177372   6.195   3.526   8.299
25710WAT     H277373   6.164   3.374   8.248
25711WAT      O77374   7.065   7.951   8.326
25711WAT     H177375   7.143   7.994   8.372
25711WAT     H277376   7.001   7.918   8.395
25712WAT      O77377   3.143   4.275   1.629
25712WAT     H177378   3.217   4.327   1.674
25712WAT     H277379   3.169   4.179   1.624
25713WAT      O77380   5.082   7.119   8.777
25713WAT     H177381   5.063   7.118   8.679
25713WAT     H277382   4.999   7.143   8.827
25714WAT      O77383   3.856   1.308   9.717
25714WAT     H177384   3.762   1.283   9.695
25714WAT     H277385   3.894   1.364   9.643
25715WAT      O77386   0.607   2.908   6.906
25715WAT     H177387   0.615   3.007   6.896
25715WAT     H277388   0.632   2.882   6.999
25716WAT      O77389   7.560   1.266   1.926
25716WAT     H177390   7.486   1.329   1.945
25716WAT     H277391   7.567   1.199   2.000
25717WAT      O77392   7.042   1.501   7.384
25717WAT     H177393   6.966   1.437   7.390
25717WAT     H277394   7.129   1.451   7.384
25718WAT      O77395   0.932   8.375   8.254
25718WAT     H177396   0.864   8.414   8.192
25718WAT     H277397   1.012   8.346   8.201
25719WAT      O77398   4.209   0.635   9.547
25719WAT     H177399   4.150   0.611   9.469
25719WAT     H277400   4.172   0.594   9.630
25720WAT      O77401   6.744   3.524   2.544
25720WAT     H177402   6.652   3.499   2.513
25720WAT     H277403   6.791   3.574   2.472
25721WAT      O77404   0.004   1.416   1.977
25721WAT     H177405   0.060   1.333   1.976
25721WAT     H277406  -0.047   1.422   1.892
25722WAT      O77407   2.640   6.578   9.710
25722WAT     H177408   2.579   6.534   9.776
25722WAT     H277409   2.682   6.658   9.753
25723WAT      O77410   7.983   5.395   9.507
25723WAT     H177411   8.012   5.368   9.599
25723WAT     H277412   7.885   5.378   9.496
25724WAT      O77413   7.488   7.014   3.188
25724WAT     H177414   7.388   7.018   3.185
25724WAT     H277415   7.524   7.100   3.223
25725WAT      O77416   5.477   9.833   4.228
25725WAT     H177417   5.495   9.787   4.141
25725WAT     H277418   5.389   9.880   4.223
25726WAT      O77419   9.077   8.774   4.555
25726WAT     H177420   9.120   8.709   4.618
25726WAT     H277421   8.978   8.762   4.558
25727WAT      O77422   2.534   7.891   1.058
25727WAT     H177423   2.527   7.824   0.984
25727WAT     H277424   2.548   7.982   1.020
25728WAT      O77425   1.658   5.950   6.577
25728WAT     H177426   1.561   5.962   6.602
25728WAT     H277427   1.684   5.855   6.591
25729WAT      O77428   8.120   7.732   4.911
25729WAT     H177429   8.174   7.650   4.928
25729WAT     H277430   8.179   7.813   4.913
25730WAT      O77431   2.474   0.007   1.586
25730WAT     H177432   2.390   0.040   1.628
25730WAT     H277433   2.552   0.027   1.646
25731WAT      O77434   0.839   3.610   1.594
25731WAT     H177435   0.909   3.651   1.652
25731WAT     H277436   0.883   3.562   1.518
25732WAT      O77437   9.759   2.621   3.100
25732WAT     H177438   9.702   2.543   3.126
25732WAT     H277439   9.759   2.688   3.175
25733WAT      O77440   8.951   4.218   1.045
25733WAT     H177441   8.947   4.181   0.952
25733WAT     H277442   8.931   4.316   1.042
25734WAT      O77443   9.368   0.310   8.968
25734WAT     H177444   9.396   0.226   8.922
25734WAT     H277445   9.322   0.370   8.903
25735WAT      O77446   8.991   2.283   8.526
25735WAT     H177447   9.049   2.364   8.514
25735WAT     H277448   8.909   2.308   8.577
25736WAT      O77449   4.169   8.080   5.893
25736WAT     H177450   4.148   8.041   5.982
25736WAT     H277451   4.231   8.019   5.843
25737WAT      O77452   1.178   1.624   9.523
25737WAT     H177453   1.105   1.620   9.455
25737WAT     H277454   1.267   1.617   9.477
25738WAT      O77455   0.779   0.077   9.578
25738WAT     H177456   0.780  -0.003   9.519
25738WAT     H277457   0.685   0.111   9.585
25739WAT      O77458   1.144   7.563   0.412
25739WAT     H177459   1.243   7.548   0.409
25739WAT     H277460   1.106   7.551   0.321
25740WAT      O77461   2.706   7.298   0.197
25740WAT     H177462   2.694   7.222   0.134
25740WAT     H277463   2.790   7.285   0.250
25741WAT      O77464   1.360   4.615   4.965
25741WAT     H177465   1.384   4.676   4.890
25741WAT     H277466   1.411   4.640   5.047
25742WAT      O77467   8.414   1.935   0.256
25742WAT     H177468   8.327   1.979   0.233
25742WAT     H277469   8.483   1.958   0.187
25743WAT      O77470   0.547   4.938   1.090
25743WAT     H177471   0.590   5.023   1.120
25743WAT     H277472   0.613   4.863   1.095
25744WAT      O77473   2.603   0.848   7.277
25744WAT     H177474   2.586   0.788   7.199
25744WAT     H277475   2.699   0.843   7.303
25745WAT      O77476   8.489   8.937   5.574
25745WAT     H177477   8.418   8.940   5.504
25745WAT     H277478   8.578   8.925   5.531
25746WAT      O77479   8.744   8.032   8.910
25746WAT     H177480   8.823   8.056   8.853
25746WAT     H277481   8.719   7.937   8.893
25747WAT      O77482   6.386   3.706   0.077
25747WAT     H177483   6.416   3.776   0.013
25747WAT     H277484   6.424   3.617   0.050
25748WAT      O77485   7.743   3.000   9.021
25748WAT     H177486   7.738   3.099   9.035
25748WAT     H277487   7.785   2.982   8.932
25749WAT      O77488   8.416   1.397   5.242
25749WAT     H177489   8.404   1.348   5.328
25749WAT     H277490   8.450   1.334   5.172
25750WAT      O77491   2.997   0.272   8.976
25750WAT     H177492   2.956   0.290   9.065
25750WAT     H277493   3.070   0.339   8.958
25751WAT      O77494   6.626   9.122   4.158
25751WAT     H177495   6.590   9.061   4.088
25751WAT     H277496   6.712   9.085   4.194
25752WAT      O77497   4.296   4.574   2.520
25752WAT     H177498   4.343   4.635   2.584
25752WAT     H277499   4.253   4.627   2.448
25753WAT      O77500   7.658   6.083   0.824
25753WAT     H177501   7.718   6.148   0.778
25753WAT     H277502   7.664   6.097   0.923
25754WAT      O77503   4.884   3.620   0.891
25754WAT     H177504   4.905   3.522   0.881
25754WAT     H277505   4.794   3.639   0.853
25755WAT      O77506   9.502   8.268   4.408
25755WAT     H177507   9.482   8.348   4.465
25755WAT     H277508   9.454   8.189   4.444
25756WAT      O77509   5.705   1.820   1.415
25756WAT     H177510   5.638   1.837   1.487
25756WAT     H277511   5.790   1.786   1.455
25757WAT      O77512   0.759   5.976   0.012
25757WAT     H177513   0.838   5.991   0.072
25757WAT     H277514   0.680   6.022   0.051
25758WAT      O77515   4.900   2.362   4.608
25758WAT     H177516   4.920   2.448   4.561
25758WAT     H277517   4.853   2.381   4.694
25759WAT      O77518   6.967   3.172   7.424
25759WAT     H177519   7.022   3.096   7.458
25759WAT     H277520   6.890   3.187   7.487
25760WAT      O77521   5.888   9.831   9.495
25760WAT     H177522   5.838   9.788   9.569
25760WAT     H277523   5.987   9.824   9.513
25761WAT      O77524   4.717   2.426   9.071
25761WAT     H177525   4.730   2.403   8.975
25761WAT     H277526   4.763   2.358   9.129
25762WAT      O77527   3.611   3.195   0.394
25762WAT     H177528   3.550   3.261   0.348
25762WAT     H277529   3.556   3.128   0.443
25763WAT      O77530   0.969   8.107   6.193
25763WAT     H177531   0.950   8.024   6.141
25763WAT     H277532   0.930   8.186   6.146
25764WAT      O77533   4.594   1.040   1.942
25764WAT     H177534   4.561   1.120   1.892
25764WAT     H277535   4.521   1.006   2.002
25765WAT      O77536   5.180   3.684   9.215
25765WAT     H177537   5.270   3.642   9.200
25765WAT     H277538   5.178   3.774   9.172
25766WAT      O77539   8.647   4.271   2.165
25766WAT     H177540   8.724   4.207   2.164
25766WAT     H277541   8.633   4.306   2.258
25767WAT      O77542   6.686   2.336   6.920
25767WAT     H177543   6.783   2.314   6.910
25767WAT     H277544   6.676   2.419   6.975
25768WAT      O77545   5.129   5.415   5.533
25768WAT     H177546   5.223   5.444   5.516
25768WAT     H277547   5.088   5.383   5.447
25769WAT      O77548   3.772   4.730   0.511
25769WAT     H177549   3.684   4.684   0.496
25769WAT     H277550   3.821   4.737   0.424
25770WAT      O77551   5.792   4.820   2.945
25770WAT     H177552   5.702   4.820   2.901
25770WAT     H277553   5.785   4.866   3.034
25771WAT      O77554   1.885   0.516   3.384
25771WAT     H177555   1.871   0.541   3.288
25771WAT     H277556   1.886   0.416   3.393
25772WAT      O77557   0.935   2.208   7.697
25772WAT     H177558   0.862   2.269   7.730
25772WAT     H277559   0.996   2.185   7.773
25773WAT      O77560   9.306   4.031   6.706
25773WAT     H177561   9.308   4.021   6.806
25773WAT     H277562   9.378   4.094   6.677
25774WAT      O77563   4.628   1.827   0.043
25774WAT     H177564   4.560   1.894   0.012
25774WAT     H277565   4.641   1.757  -0.027
25775WAT      O77566   6.968   7.501   4.367
25775WAT     H177567   6.902   7.427   4.360
25775WAT     H277568   7.016   7.495   4.455
25776WAT      O77569   3.129   1.961   3.805
25776WAT     H177570   3.042   1.986   3.763
25776WAT     H277571   3.192   2.038   3.797
25777WAT      O77572   8.159   9.092   7.034
25777WAT     H177573   8.232   9.055   7.092
25777WAT     H277574   8.080   9.032   7.038
25778WAT      O77575   3.069   7.074   5.350
25778WAT     H177576   3.139   7.061   5.280
25778WAT     H277577   3.073   6.998   5.415
25779WAT      O77578   6.708   4.559   4.875
25779WAT     H177579   6.698   4.534   4.779
25779WAT     H277580   6.805   4.554   4.900
25780WAT      O77581   5.949   3.498   0.103
25780WAT     H177582   5.868   3.443   0.083
25780WAT     H277583   5.996   3.460   0.184
25781WAT      O77584   1.380   2.090   4.686
25781WAT     H177585   1.439   2.010   4.674
25781WAT     H277586   1.285   2.064   4.672
25782WAT      O77587   9.222   5.305   7.444
25782WAT     H177588   9.171   5.319   7.528
25782WAT     H277589   9.216   5.386   7.387
25783WAT      O77590   6.118   3.068   4.426
25783WAT     H177591   6.186   3.114   4.369
25783WAT     H277592   6.045   3.132   4.450
25784WAT      O77593   7.507   0.754   6.335
25784WAT     H177594   7.412   0.775   6.313
25784WAT     H277595   7.514   0.661   6.371
25785WAT      O77596   4.125   0.395   2.242
25785WAT     H177597   4.165   0.414   2.332
25785WAT     H277598   4.069   0.312   2.247
25786WAT      O77599   8.457   5.574   8.207
25786WAT     H177600   8.537   5.580   8.148
25786WAT     H277601   8.476   5.622   8.293
25787WAT      O77602   7.910   2.370   9.107
25787WAT     H177603   7.897   2.342   9.012
25787WAT     H277604   7.961   2.456   9.110
25788WAT      O77605   1.103   0.716   1.930
25788WAT     H177606   1.102   0.620   1.900
25788WAT     H277607   1.090   0.775   1.851
25789WAT      O77608   1.663   9.503   4.413
25789WAT     H177609   1.581   9.559   4.408
25789WAT     H277610   1.727   9.530   4.341
25790WAT      O77611   8.169   3.579   5.755
25790WAT     H177612   8.267   3.599   5.766
25790WAT     H277613   8.156   3.480   5.755
25791WAT      O77614   7.380   0.494   4.816
25791WAT     H177615   7.391   0.431   4.893
25791WAT     H277616   7.339   0.447   4.739
25792WAT      O77617   3.545   0.885   1.006
25792WAT     H177618   3.516   0.917   0.916
25792WAT     H277619   3.555   0.786   1.005
25793WAT      O77620   2.442   9.359   4.281
25793WAT     H177621   2.466   9.312   4.197
25793WAT     H277622   2.384   9.301   4.337
25794WAT      O77623   7.354   8.181   1.419
25794WAT     H177624   7.323   8.169   1.513
25794WAT     H277625   7.429   8.247   1.416
25795WAT      O77626   4.489   4.821   4.015
25795WAT     H177627   4.425   4.873   3.959
25795WAT     H277628   4.518   4.876   4.093
25796WAT      O77629   0.049   0.778   0.784
25796WAT     H177630  -0.003   0.779   0.698
25796WAT     H277631   0.037   0.866   0.831
25797WAT      O77632   5.380   2.168   2.795
25797WAT     H177633   5.375   2.134   2.702
25797WAT     H277634   5.473   2.158   2.830
25798WAT      O77635   1.149   0.474   8.154
25798WAT     H177636   1.069   0.449   8.208
25798WAT     H277637   1.204   0.541   8.203
25799WAT      O77638   5.498   0.402   7.768
25799WAT     H177639   5.465   0.399   7.673
25799WAT     H277640   5.512   0.497   7.795
25800WAT      O77641   7.671   4.740   1.049
25800WAT     H177642   7.676   4.832   1.009
25800WAT     H277643   7.758   4.692   1.032
25801WAT      O77644   0.368   3.829   2.008
25801WAT     H177645   0.274   3.862   1.998
25801WAT     H277646   0.369   3.750   2.070
25802WAT      O77647   3.552   0.586   5.129
25802WAT     H177648   3.504   0.516   5.077
25802WAT     H277649   3.495   0.616   5.206
25803WAT      O77650   7.325   5.434   6.543
25803WAT     H177651   7.354   5.372   6.470
25803WAT     H277652   7.344   5.393   6.632
25804WAT      O77653   8.845   6.573   2.696
25804WAT     H177654   8.787   6.540   2.621
25804WAT     H277655   8.940   6.549   2.677
25805WAT      O77656   9.003   7.562   0.513
25805WAT     H177657   9.030   7.485   0.572
25805WAT     H277658   8.916   7.541   0.468
25806WAT      O77659   1.979   3.500   0.111
25806WAT     H177660   1.901   3.490   0.173
25806WAT     H277661   2.059   3.532   0.163
25807WAT      O77662   3.429   5.704   5.907
25807WAT     H177663   3.466   5.775   5.846
25807WAT     H277664   3.425   5.739   6.000
25808WAT      O77665   1.715   9.724   5.854
25808WAT     H177666   1.695   9.821   5.859
25808WAT     H277667   1.793   9.702   5.912
25809WAT      O77668   7.072   9.732   0.226
25809WAT     H177669   6.994   9.782   0.187
25809WAT     H277670   7.152   9.791   0.228
25810WAT      O77671   2.032   9.432   3.475
25810WAT     H177672   2.041   9.481   3.389
25810WAT     H277673   1.956   9.367   3.469
25811WAT      O77674   0.112   3.559   5.010
25811WAT     H177675   0.064   3.481   4.970
25811WAT     H277676   0.150   3.616   4.938
25812WAT      O77677   8.532   7.849   2.410
25812WAT     H177678   8.625   7.850   2.446
25812WAT     H277679   8.490   7.759   2.427
25813WAT      O77680   0.231   2.269   5.132
25813WAT     H177681   0.273   2.179   5.139
25813WAT     H277682   0.132   2.261   5.142
25814WAT      O77683   4.981   0.462   2.741
25814WAT     H177684   4.923   0.440   2.662
25814WAT     H277685   5.018   0.378   2.780
25815WAT      O77686   8.592   0.250   5.614
25815WAT     H177687   8.565   0.182   5.681
25815WAT     H277688   8.515   0.311   5.595
25816WAT      O77689   8.207   6.461   8.699
25816WAT     H177690   8.141   6.459   8.624
25816WAT     H277691   8.239   6.554   8.713
25817WAT      O77692   4.238   1.266   8.358
25817WAT     H177693   4.161   1.237   8.415
25817WAT     H277694   4.240   1.366   8.354
25818WAT      O77695   6.235   9.593   8.156
25818WAT     H177696   6.153   9.607   8.102
25818WAT     H277697   6.260   9.678   8.203
25819WAT      O77698   7.576   4.764   7.171
25819WAT     H177699   7.639   4.712   7.114
25819WAT     H277700   7.627   4.813   7.242
25820WAT      O77701   8.130   3.696   9.553
25820WAT     H177702   8.062   3.747   9.501
25820WAT     H277703   8.137   3.603   9.517
25821WAT      O77704   0.234   9.295   9.198
25821WAT     H177705   0.307   9.311   9.264
25821WAT     H277706   0.167   9.231   9.237
25822WAT      O77707   0.419   8.964   9.696
25822WAT     H177708   0.451   9.006   9.611
25822WAT     H277709   0.428   9.029   9.771
25823WAT      O77710   1.544   2.164   2.111
25823WAT     H177711   1.509   2.118   2.030
25823WAT     H277712   1.638   2.194   2.094
25824WAT      O77713   0.395   3.535   4.657
25824WAT     H177714   0.415   3.520   4.754
25824WAT     H277715   0.330   3.610   4.647
25825WAT      O77716   3.776   9.821   7.391
25825WAT     H177717   3.857   9.785   7.344
25825WAT     H277718   3.794   9.915   7.421
25826WAT      O77719   2.706   2.114   5.348
25826WAT     H177720   2.750   2.055   5.416
25826WAT     H277721   2.608   2.122   5.370
25827WAT      O77722   2.642   7.694   7.599
25827WAT     H177723   2.665   7.597   7.587
25827WAT     H277724   2.718   7.741   7.643
25828WAT      O77725   3.310   1.951   1.506
25828WAT     H177726   3.387   1.915   1.558
25828WAT     H277727   3.290   1.888   1.430
25829WAT      O77728   7.814   9.042   8.493
25829WAT     H177729   7.788   8.951   8.525
25829WAT     H277730   7.754   9.070   8.418
25830WAT      O77731   2.427   7.181   2.220
25830WAT     H177732   2.391   7.215   2.134
25830WAT     H277733   2.433   7.257   2.286
25831WAT      O77734   3.393   1.888   9.386
25831WAT     H177735   3.488   1.877   9.415
25831WAT     H277736   3.390   1.950   9.307
25832WAT      O77737   5.815   4.262   0.210
25832WAT     H177738   5.801   4.361   0.212
25832WAT     H277739   5.908   4.241   0.179
25833WAT      O77740   1.378   6.652   0.418
25833WAT     H177741   1.320   6.580   0.457
25833WAT     H277742   1.369   6.650   0.318
25834WAT      O77743   9.448   9.205   1.784
25834WAT     H177744   9.498   9.154   1.715
25834WAT     H277745   9.422   9.295   1.748
25835WAT      O77746   8.833   2.176   6.598
25835WAT     H177747   8.850   2.123   6.681
25835WAT     H277748   8.743   2.151   6.561
25836WAT      O77749   3.855   5.102   4.629
25836WAT     H177750   3.898   5.037   4.567
25836WAT     H277751   3.846   5.191   4.583
25837WAT      O77752   7.359   1.116   9.858
25837WAT     H177753   7.456   1.089   9.862
25837WAT     H277754   7.302   1.035   9.852
25838WAT      O77755   8.856   0.645   8.108
25838WAT     H177756   8.953   0.625   8.095
25838WAT     H277757   8.818   0.583   8.177
25839WAT      O77758   8.786   7.404   0.394
25839WAT     H177759   8.746   7.426   0.305
25839WAT     H277760   8.718   7.421   0.465
25840WAT      O77761   1.396   6.241   6.860
25840WAT     H177762   1.328   6.314   6.853
25840WAT     H277763   1.366   6.162   6.808
25841WAT      O77764   6.686   0.547   5.652
25841WAT     H177765   6.779   0.578   5.636
25841WAT     H277766   6.669   0.542   5.751
25842WAT      O77767   5.592   1.573   6.398
25842WAT     H177768   5.684   1.606   6.376
25842WAT     H277769   5.571   1.493   6.342
25843WAT      O77770   0.023   0.396   9.455
25843WAT     H177771   0.061   0.481   9.417
25843WAT     H277772  -0.063   0.375   9.410
25844WAT      O77773   6.708   2.825   4.538
25844WAT     H177774   6.739   2.862   4.625
25844WAT     H277775   6.626   2.769   4.553
25845WAT      O77776   7.214   6.904   6.882
25845WAT     H177777   7.145   6.922   6.952
25845WAT     H277778   7.301   6.881   6.926
25846WAT      O77779   8.275   0.268   8.545
25846WAT     H177780   8.367   0.229   8.540
25846WAT     H277781   8.233   0.243   8.633
25847WAT      O77782   0.412   3.605   3.970
25847WAT     H177783   0.398   3.582   4.066
25847WAT     H277784   0.324   3.600   3.921
25848WAT      O77785   0.423   8.753   4.091
25848WAT     H177786   0.327   8.726   4.095
25848WAT     H277787   0.458   8.739   3.998
25849WAT      O77788   5.371   1.718   8.326
25849WAT     H177789   5.326   1.660   8.393
25849WAT     H277790   5.364   1.814   8.354
25850WAT      O77791   7.477   2.223   5.866
25850WAT     H177792   7.443   2.131   5.885
25850WAT     H277793   7.400   2.283   5.844
25851WAT      O77794   2.087   8.575   6.240
25851WAT     H177795   2.122   8.622   6.320
25851WAT     H277796   2.106   8.477   6.247
25852WAT      O77797   1.283   5.616   5.507
25852WAT     H177798   1.183   5.610   5.506
25852WAT     H277799   1.311   5.700   5.462
25853WAT      O77800   8.697   9.748   1.477
25853WAT     H177801   8.736   9.732   1.568
25853WAT     H277802   8.659   9.841   1.473
25854WAT      O77803   7.620   0.071   0.093
25854WAT     H177804   7.589   0.065   0.188
25854WAT     H277805   7.552   0.029   0.033
25855WAT      O77806   6.787   1.527   2.243
25855WAT     H177807   6.784   1.470   2.325
25855WAT     H277808   6.853   1.489   2.178
25856WAT      O77809   5.366   1.552   3.495
25856WAT     H177810   5.458   1.512   3.504
25856WAT     H277811   5.355   1.588   3.402
25857WAT      O77812   3.894   1.049   5.247
25857WAT     H177813   3.973   1.002   5.286
25857WAT     H277814   3.873   1.010   5.158
25858WAT      O77815   3.293   8.602   1.262
25858WAT     H177816   3.310   8.504   1.268
25858WAT     H277817   3.362   8.651   1.315
25859WAT      O77818   8.544   6.423   1.046
25859WAT     H177819   8.544   6.365   1.127
25859WAT     H277820   8.450   6.448   1.023
25860WAT      O77821   7.951   2.559   4.600
25860WAT     H177822   7.941   2.632   4.667
25860WAT     H277823   8.026   2.581   4.538
25861WAT      O77824   6.821   7.140   2.636
25861WAT     H177825   6.821   7.116   2.539
25861WAT     H277826   6.730   7.172   2.663
25862WAT      O77827   4.122   9.793   6.757
25862WAT     H177828   4.065   9.714   6.778
25862WAT     H277829   4.113   9.815   6.660
25863WAT      O77830   3.666   6.785   5.639
25863WAT     H177831   3.624   6.846   5.572
25863WAT     H277832   3.616   6.788   5.725
25864WAT      O77833   3.564   8.574   7.563
25864WAT     H177834   3.522   8.489   7.530
25864WAT     H277835   3.658   8.556   7.591
25865WAT      O77836   9.027   9.154   0.762
25865WAT     H177837   8.960   9.080   0.752
25865WAT     H277838   9.062   9.180   0.672
25866WAT      O77839   0.718   7.700   5.305
25866WAT     H177840   0.746   7.676   5.212
25866WAT     H277841   0.625   7.668   5.321
25867WAT      O77842   7.316   5.807   8.620
25867WAT     H177843   7.282   5.759   8.539
25867WAT     H277844   7.294   5.905   8.611
25868WAT      O77845   0.384   4.528   6.070
25868WAT     H177846   0.400   4.626   6.076
25868WAT     H277847   0.332   4.497   6.150
25869WAT      O77848   6.950   1.329   3.706
25869WAT     H177849   6.881   1.294   3.643
25869WAT     H277850   6.909   1.346   3.795
25870WAT      O77851   8.624   1.381   4.430
25870WAT     H177852   8.601   1.284   4.428
25870WAT     H277853   8.611   1.421   4.340
25871WAT      O77854   3.570   4.819   3.501
25871WAT     H177855   3.570   4.900   3.442
25871WAT     H277856   3.509   4.749   3.463
25872WAT      O77857   5.375   3.821   6.524
25872WAT     H177858   5.437   3.794   6.598
25872WAT     H277859   5.428   3.853   6.446
25873WAT      O77860   5.998   7.945   7.641
25873WAT     H177861   6.041   7.908   7.723
25873WAT     H277862   5.901   7.963   7.658
25874WAT      O77863   4.765   0.792   8.210
25874WAT     H177864   4.670   0.797   8.182
25874WAT     H277865   4.824   0.795   8.130
25875WAT      O77866   9.151   8.828   8.697
25875WAT     H177867   9.074   8.858   8.755
25875WAT     H277868   9.201   8.909   8.666
25876WAT      O77869   8.398   1.852   9.666
25876WAT     H177870   8.360   1.922   9.725
25876WAT     H277871   8.344   1.846   9.582
25877WAT      O77872   5.719   1.264   7.431
25877WAT     H177873   5.674   1.268   7.342
25877WAT     H277874   5.779   1.183   7.434
25878WAT      O77875   9.715   6.042   8.217
25878WAT     H177876   9.799   6.011   8.173
25878WAT     H277877   9.733   6.059   8.314
25879WAT      O77878   4.641   7.629   1.622
25879WAT     H177879   4.585   7.704   1.657
25879WAT     H277880   4.698   7.593   1.695
25880WAT      O77881   8.043   6.415   5.730
25880WAT     H177882   7.967   6.374   5.782
25880WAT     H277883   8.008   6.492   5.677
25881WAT      O77884   3.681   8.638   0.237
25881WAT     H177885   3.776   8.607   0.251
25881WAT     H277886   3.663   8.715   0.298
25882WAT      O77887   2.845   7.207   5.355
25882WAT     H177888   2.937   7.167   5.351
25882WAT     H277889   2.785   7.158   5.293
25883WAT      O77890   5.579   7.478   2.041
25883WAT     H177891   5.543   7.385   2.049
25883WAT     H277892   5.649   7.481   1.970
25884WAT      O77893   2.096   6.094   2.673
25884WAT     H177894   2.183   6.127   2.711
25884WAT     H277895   2.030   6.170   2.672
25885WAT      O77896   1.424   4.217   0.470
25885WAT     H177897   1.327   4.216   0.495
25885WAT     H277898   1.472   4.146   0.520
25886WAT      O77899   1.172   5.168   3.404
25886WAT     H177900   1.138   5.207   3.318
25886WAT     H277901   1.270   5.153   3.398
25887WAT      O77902   0.649   2.086   3.556
25887WAT     H177903   0.728   2.028   3.576
25887WAT     H277904   0.565   2.034   3.573
25888WAT      O77905   4.941   1.001   4.159
25888WAT     H177906   4.842   1.013   4.145
25888WAT     H277907   4.959   0.983   4.255
25889WAT      O77908   6.237   3.361   7.503
25889WAT     H177909   6.325   3.328   7.539
25889WAT     H277910   6.247   3.383   7.406
25890WAT      O77911   6.160   9.202   2.504
25890WAT     H177912   6.258   9.183   2.489
25890WAT     H277913   6.113   9.115   2.521
25891WAT      O77914   4.917   9.201   7.692
25891WAT     H177915   4.969   9.120   7.666
25891WAT     H277916   4.819   9.182   7.683
25892WAT      O77917   8.530   0.677   8.527
25892WAT     H177918   8.580   0.677   8.614
25892WAT     H277919   8.523   0.583   8.493
25893WAT      O77920   0.138   5.566   3.343
25893WAT     H177921   0.167   5.501   3.414
25893WAT     H277922   0.118   5.517   3.259
25894WAT      O77923   2.540   7.807   7.335
25894WAT     H177924   2.566   7.901   7.312
25894WAT     H277925   2.585   7.781   7.421
25895WAT      O77926   9.873   3.976   9.488
25895WAT     H177927   9.965   3.938   9.485
25895WAT     H277928   9.851   4.017   9.400
25896WAT      O77929   5.460   5.946   0.478
25896WAT     H177930   5.526   6.013   0.512
25896WAT     H277931   5.449   5.872   0.546
25897WAT      O77932   5.013   7.146   4.430
25897WAT     H177933   5.102   7.151   4.383
25897WAT     H277934   4.951   7.214   4.390
25898WAT      O77935   8.618   3.606   3.974
25898WAT     H177936   8.698   3.660   3.998
25898WAT     H277937   8.646   3.512   3.955
25899WAT      O77938   3.845   3.771   5.563
25899WAT     H177939   3.749   3.791   5.584
25899WAT     H277940   3.894   3.750   5.647
25900WAT      O77941   9.715   3.296   4.015
25900WAT     H177942   9.670   3.342   3.939
25900WAT     H277943   9.725   3.359   4.092
25901WAT      O77944   8.078   7.008   6.395
25901WAT     H177945   8.130   6.977   6.315
25901WAT     H277946   8.084   6.938   6.467
25902WAT      O77947   7.335   9.154   4.406
25902WAT     H177948   7.281   9.094   4.347
25902WAT     H277949   7.409   9.102   4.448
25903WAT      O77950   0.768   5.968   9.460
25903WAT     H177951   0.859   5.947   9.495
25903WAT     H277952   0.704   5.897   9.490
25904WAT      O77953   4.197   6.172   1.772
25904WAT     H177954   4.195   6.191   1.871
25904WAT     H277955   4.292   6.162   1.742
25905WAT      O77956   7.839   0.745   8.322
25905WAT     H177957   7.876   0.657   8.291
25905WAT     H277958   7.903   0.818   8.299
25906WAT      O77959   0.091   7.754   7.339
25906WAT     H177960   0.038   7.678   7.302
25906WAT     H277961   0.036   7.805   7.405
25907WAT      O77962   3.327   1.277   1.334
25907WAT     H177963   3.239   1.298   1.377
25907WAT     H277964   3.332   1.321   1.244
25908WAT      O77965   2.574   1.608   1.052
25908WAT     H177966   2.546   1.521   1.093
25908WAT     H277967   2.642   1.652   1.109
25909WAT      O77968   5.477   4.830   7.964
25909WAT     H177969   5.449   4.868   7.875
25909WAT     H277970   5.565   4.869   7.990
25910WAT      O77971   7.021   9.068   8.758
25910WAT     H177972   7.014   9.124   8.840
25910WAT     H277973   6.993   9.121   8.678
25911WAT      O77974   7.418   3.597   5.160
25911WAT     H177975   7.517   3.605   5.146
25911WAT     H277976   7.401   3.542   5.242
25912WAT      O77977   6.582   1.286   6.080
25912WAT     H177978   6.640   1.207   6.098
25912WAT     H277979   6.582   1.347   6.159
25913WAT      O77980   6.706   3.524   6.111
25913WAT     H177981   6.616   3.565   6.122
25913WAT     H277982   6.702   3.427   6.134
25914WAT      O77983   7.248   9.461   6.527
25914WAT     H177984   7.224   9.365   6.542
25914WAT     H277985   7.167   9.512   6.500
25915WAT      O77986   5.927   5.946   4.941
25915WAT     H177987   6.023   5.942   4.911
25915WAT     H277988   5.868   5.957   4.861
25916WAT      O77989   0.023   3.148   3.475
25916WAT     H177990   0.078   3.068   3.499
25916WAT     H277991  -0.007   3.140   3.380
25917WAT      O77992   0.564   7.365   0.239
25917WAT     H177993   0.485   7.335   0.186
25917WAT     H277994   0.533   7.413   0.321
25918WAT      O77995   8.858   0.832   6.444
25918WAT     H177996   8.861   0.737   6.473
25918WAT     H277997   8.813   0.887   6.515
25919WAT      O77998   6.050   5.918   2.270
25919WAT     H177999   6.015   5.844   2.328
25919WAT     H278000   5.982   5.991   2.264
25920WAT      O78001   4.839   5.883   6.050
25920WAT     H178002   4.852   5.784   6.048
25920WAT     H278003   4.765   5.905   6.114
25921WAT      O78004   6.854   3.250   2.542
25921WAT     H178005   6.812   3.172   2.588
25921WAT     H278006   6.815   3.335   2.578
25922WAT      O78007   7.012   8.477   6.886
25922WAT     H178008   7.045   8.570   6.872
25922WAT     H278009   6.985   8.437   6.799
25923WAT      O78010   7.173   5.275   9.156
25923WAT     H178011   7.143   5.185   9.127
25923WAT     H278012   7.218   5.322   9.080
25924WAT      O78013   7.128   3.013   6.182
25924WAT     H178014   7.029   3.007   6.193
25924WAT     H278015   7.157   3.108   6.190
25925WAT      O78016   6.202   9.223   2.020
25925WAT     H178017   6.151   9.272   2.091
25925WAT     H278018   6.230   9.288   1.949
25926WAT      O78019   7.406   5.011   6.472
25926WAT     H178020   7.504   5.031   6.460
25926WAT     H278021   7.372   5.060   6.552
25927WAT      O78022   2.772   3.565   7.178
25927WAT     H178023   2.808   3.552   7.086
25927WAT     H278024   2.815   3.645   7.220
25928WAT      O78025   4.223   3.614   5.414
25928WAT     H178026   4.235   3.526   5.369
25928WAT     H278027   4.181   3.679   5.350
25929WAT      O78028   9.704   9.015   1.156
25929WAT     H178029   9.682   9.092   1.216
25929WAT     H278030   9.622   8.962   1.138
25930WAT      O78031   9.839   4.519   9.505
25930WAT     H178032   9.767   4.510   9.574
25930WAT     H278033   9.897   4.437   9.506
25931WAT      O78034   0.801   2.433   9.601
25931WAT     H178035   0.830   2.339   9.620
25931WAT     H278036   0.725   2.457   9.661
25932WAT      O78037   6.086   0.603   5.523
25932WAT     H178038   6.148   0.532   5.492
25932WAT     H278039   6.129   0.692   5.512
25933WAT      O78040   8.984   6.315   3.964
25933WAT     H178041   8.965   6.292   3.868
25933WAT     H278042   9.082   6.309   3.980
25934WAT      O78043   9.745   7.659   3.023
25934WAT     H178044   9.790   7.748   3.028
25934WAT     H278045   9.646   7.672   3.021
25935WAT      O78046   9.607   1.288   6.897
25935WAT     H178047   9.690   1.338   6.873
25935WAT     H278048   9.527   1.337   6.863
25936WAT      O78049   1.387   5.918   6.270
25936WAT     H178050   1.416   5.959   6.356
25936WAT     H278051   1.452   5.846   6.244
25937WAT      O78052   8.562   9.738   9.834
25937WAT     H178053   8.641   9.693   9.794
25937WAT     H278054   8.588   9.828   9.867
25938WAT      O78055   7.052   4.012   5.973
25938WAT     H178056   7.133   4.068   5.957
25938WAT     H278057   7.052   3.934   5.910
25939WAT      O78058   3.566   6.040   1.225
25939WAT     H178059   3.521   5.951   1.226
25939WAT     H278060   3.614   6.051   1.137
25940WAT      O78061   3.050   0.982   5.524
25940WAT     H178062   3.112   1.058   5.503
25940WAT     H278063   3.102   0.908   5.567
25941WAT      O78064   4.907   8.539   1.991
25941WAT     H178065   4.808   8.536   2.006
25941WAT     H278066   4.928   8.504   1.900
25942WAT      O78067   1.394   9.585   4.642
25942WAT     H178068   1.443   9.559   4.725
25942WAT     H278069   1.453   9.644   4.586
25943WAT      O78070   9.457   0.912   6.474
25943WAT     H178071   9.393   0.932   6.400
25943WAT     H278072   9.550   0.938   6.446
25944WAT      O78073   6.153   0.572   8.823
25944WAT     H178074   6.128   0.481   8.790
25944WAT     H278075   6.194   0.625   8.748
25945WAT      O78076   3.396   6.236   0.332
25945WAT     H178077   3.408   6.197   0.241
25945WAT     H278078   3.474   6.212   0.389
25946WAT      O78079   9.299   1.767   5.814
25946WAT     H178080   9.371   1.799   5.875
25946WAT     H278081   9.313   1.670   5.794
25947WAT      O78082   8.286   2.242   2.168
25947WAT     H178083   8.372   2.244   2.219
25947WAT     H278084   8.306   2.246   2.069
25948WAT      O78085   5.130   1.835   4.574
25948WAT     H178086   5.224   1.867   4.590
25948WAT     H278087   5.069   1.876   4.641
25949WAT      O78088   0.768   9.362   9.861
25949WAT     H178089   0.723   9.394   9.778
25949WAT     H278090   0.752   9.428   9.935
25950WAT      O78091   6.646   2.435   6.685
25950WAT     H178092   6.719   2.503   6.687
25950WAT     H278093   6.646   2.383   6.770
25951WAT      O78094   6.594   5.356   9.512
25951WAT     H178095   6.510   5.307   9.537
25951WAT     H278096   6.576   5.413   9.432
25952WAT      O78097   9.671   4.083   5.641
25952WAT     H178098   9.741   4.012   5.649
25952WAT     H278099   9.683   4.132   5.555
25953WAT      O78100   0.984   5.477   5.938
25953WAT     H178101   0.886   5.470   5.915
25953WAT     H278102   1.035   5.411   5.885
25954WAT      O78103   4.700   8.188   2.597
25954WAT     H178104   4.727   8.103   2.644
25954WAT     H278105   4.782   8.237   2.567
25955WAT      O78106   5.994   7.770   4.679
25955WAT     H178107   6.065   7.764   4.609
25955WAT     H278108   5.937   7.850   4.662
25956WAT      O78109   2.726   0.032   3.549
25956WAT     H178110   2.695   0.012   3.642
25956WAT     H278111   2.677   0.111   3.514
25957WAT      O78112   9.161   8.305   8.725
25957WAT     H178113   9.071   8.269   8.699
25957WAT     H278114   9.200   8.355   8.648
25958WAT      O78115   6.011   7.624   8.751
25958WAT     H178116   6.108   7.604   8.765
25958WAT     H278117   5.990   7.714   8.789
25959WAT      O78118   0.961   4.234   8.673
25959WAT     H178119   0.972   4.305   8.603
25959WAT     H278120   0.972   4.275   8.764
25960WAT      O78121   1.782   6.378   9.139
25960WAT     H178122   1.708   6.317   9.167
25960WAT     H278123   1.819   6.425   9.219
25961WAT      O78124   6.690   9.329   9.050
25961WAT     H178125   6.747   9.280   9.115
25961WAT     H278126   6.682   9.276   8.965
25962WAT      O78127   2.728   6.955   4.121
25962WAT     H178128   2.809   7.013   4.132
25962WAT     H278129   2.654   6.991   4.178
25963WAT      O78130   5.983   5.732   6.009
25963WAT     H178131   6.046   5.666   5.967
25963WAT     H278132   6.000   5.737   6.107
25964WAT      O78133   2.289   9.231   7.637
25964WAT     H178134   2.312   9.185   7.723
25964WAT     H278135   2.195   9.206   7.611
25965WAT      O78136   5.952   7.275   9.886
25965WAT     H178137   5.929   7.371   9.904
25965WAT     H278138   5.868   7.221   9.881
25966WAT      O78139   3.961   0.642   3.297
25966WAT     H178140   3.901   0.571   3.260
25966WAT     H278141   3.990   0.703   3.224
25967WAT      O78142   3.244   7.184   2.553
25967WAT     H178143   3.240   7.114   2.481
25967WAT     H278144   3.316   7.162   2.618
25968WAT      O78145   7.792   5.039   5.203
25968WAT     H178146   7.817   4.966   5.140
25968WAT     H278147   7.865   5.051   5.270
25969WAT      O78148   3.339   1.704   2.156
25969WAT     H178149   3.315   1.712   2.252
25969WAT     H278150   3.351   1.795   2.116
25970WAT      O78151   3.153   5.401   3.678
25970WAT     H178152   3.140   5.500   3.670
25970WAT     H278153   3.239   5.382   3.725
25971WAT      O78154   0.484   0.841   8.310
25971WAT     H178155   0.420   0.789   8.367
25971WAT     H278156   0.578   0.821   8.337
25972WAT      O78157   1.146   6.980   4.685
25972WAT     H178158   1.078   6.984   4.759
25972WAT     H278159   1.100   6.965   4.598
25973WAT      O78160   1.190   9.557   5.959
25973WAT     H178161   1.264   9.555   5.893
25973WAT     H278162   1.103   9.535   5.913
25974WAT      O78163   3.040   7.402   9.236
25974WAT     H178164   3.112   7.412   9.304
25974WAT     H278165   3.005   7.308   9.238
25975WAT      O78166   3.368   8.130   8.647
25975WAT     H178167   3.455   8.141   8.599
25975WAT     H278168   3.375   8.054   8.712
25976WAT      O78169   4.251   8.541   6.721
25976WAT     H178170   4.173   8.532   6.782
25976WAT     H278171   4.268   8.454   6.674
25977WAT      O78172   9.843   5.381   6.013
25977WAT     H178173   9.837   5.478   6.040
25977WAT     H278174   9.860   5.376   5.915
25978WAT      O78175   8.816   0.862   7.257
25978WAT     H178176   8.768   0.949   7.257
25978WAT     H278177   8.778   0.802   7.328
25979WAT      O78178   3.961   2.424   7.696
25979WAT     H178179   3.861   2.426   7.695
25979WAT     H278180   3.995   2.506   7.743
25980WAT      O78181   2.085   0.534   8.473
25980WAT     H178182   2.021   0.532   8.396
25980WAT     H278183   2.168   0.582   8.445
25981WAT      O78184   3.682   3.238   3.646
25981WAT     H178185   3.589   3.264   3.672
25981WAT     H278186   3.747   3.302   3.686
25982WAT      O78187   0.286   7.972   4.164
25982WAT     H178188   0.250   8.051   4.115
25982WAT     H278189   0.213   7.905   4.178
25983WAT      O78190   4.990   3.449   1.820
25983WAT     H178191   5.059   3.427   1.752
25983WAT     H278192   4.934   3.368   1.838
25984WAT      O78193   9.641   0.668   2.401
25984WAT     H178194   9.663   0.576   2.369
25984WAT     H278195   9.613   0.664   2.497
25985WAT      O78196   1.386   2.711   6.896
25985WAT     H178197   1.311   2.651   6.868
25985WAT     H278198   1.349   2.795   6.936
25986WAT      O78199   0.215   9.555   9.184
25986WAT     H178200   0.305   9.528   9.217
25986WAT     H278201   0.163   9.474   9.158
25987WAT      O78202   5.756   5.233   1.276
25987WAT     H178203   5.754   5.146   1.325
25987WAT     H278204   5.840   5.282   1.299
25988WAT      O78205   5.761   4.598   7.810
25988WAT     H178206   5.816   4.615   7.892
25988WAT     H278207   5.763   4.500   7.789
25989WAT      O78208   8.212   9.379   6.088
25989WAT     H178209   8.264   9.440   6.027
25989WAT     H278210   8.261   9.371   6.175
25990WAT      O78211   9.197   0.943   8.181
25990WAT     H178212   9.251   0.889   8.116
25990WAT     H278213   9.233   1.036   8.185
25991WAT      O78214   7.875   5.601   3.686
25991WAT     H178215   7.817   5.598   3.768
25991WAT     H278216   7.971   5.611   3.715
25992WAT      O78217   1.202   8.512   9.336
25992WAT     H178218   1.147   8.522   9.419
25992WAT     H278219   1.295   8.484   9.360
25993WAT      O78220   5.254   1.942   5.796
25993WAT     H178221   5.193   1.945   5.876
25993WAT     H278222   5.325   2.013   5.806
25994WAT      O78223   3.472   0.226   9.621
25994WAT     H178224   3.456   0.195   9.715
25994WAT     H278225   3.450   0.152   9.558
25995WAT      O78226   5.245   1.377   2.863
25995WAT     H178227   5.215   1.453   2.806
25995WAT     H278228   5.206   1.292   2.828
25996WAT      O78229   7.289   7.670   2.672
25996WAT     H178230   7.321   7.764   2.684
25996WAT     H278231   7.208   7.655   2.728
25997WAT      O78232   8.658   7.624   2.194
25997WAT     H178233   8.745   7.627   2.243
25997WAT     H278234   8.612   7.537   2.213
25998WAT      O78235   5.055   2.049   3.516
25998WAT     H178236   5.154   2.060   3.512
25998WAT     H278237   5.026   2.050   3.612
25999WAT      O78238   5.821   6.429   2.212
25999WAT     H178239   5.725   6.452   2.199
25999WAT     H278240   5.870   6.438   2.125
26000WAT      O78241   3.076   5.431   7.026
26000WAT     H178242   3.012   5.414   7.101
26000WAT     H278243   3.133   5.510   7.049
26001WAT      O78244   2.874   8.714   1.977
26001WAT     H178245   2.918   8.690   1.890
26001WAT     H278246   2.805   8.785   1.960
26002WAT      O78247   2.124   7.738   7.735
26002WAT     H178248   2.127   7.717   7.833
26002WAT     H278249   2.207   7.702   7.691
26003WAT      O78250   3.271   7.064   4.705
26003WAT     H178251   3.366   7.034   4.717
26003WAT     H278252   3.218   6.992   4.661
26004WAT      O78253   7.204   5.882   5.917
26004WAT     H178254   7.257   5.880   5.832
26004WAT     H278255   7.265   5.896   5.995
26005WAT      O78256   2.380   1.594   3.428
26005WAT     H178257   2.368   1.564   3.523
26005WAT     H278258   2.305   1.558   3.373
26006WAT      O78259   3.357   0.622   1.305
26006WAT     H178260   3.373   0.669   1.392
26006WAT     H278261   3.274   0.658   1.263
26007WAT      O78262   2.145   1.240   5.975
26007WAT     H178263   2.138   1.141   5.989
26007WAT     H278264   2.241   1.266   5.967
26008WAT      O78265   5.989   1.400   4.985
26008WAT     H178266   6.059   1.350   4.934
26008WAT     H278267   5.990   1.371   5.080
26009WAT      O78268   0.642   6.919   7.943
26009WAT     H178269   0.739   6.938   7.929
26009WAT     H278270   0.628   6.821   7.953
26010WAT      O78271   8.814   6.336   1.488
26010WAT     H178272   8.847   6.391   1.411
26010WAT     H278273   8.849   6.243   1.481
26011WAT      O78274   4.454   2.406   7.232
26011WAT     H178275   4.484   2.322   7.186
26011WAT     H278276   4.416   2.469   7.164
26012WAT      O78277   5.758   0.154   4.571
26012WAT     H178278   5.761   0.238   4.624
26012WAT     H278279   5.738   0.176   4.475
26013WAT      O78280   3.197   9.471   0.836
26013WAT     H178281   3.141   9.399   0.877
26013WAT     H278282   3.155   9.560   0.852
26014WAT      O78283   0.725   4.384   2.023
26014WAT     H178284   0.698   4.412   1.931
26014WAT     H278285   0.670   4.432   2.091
26015WAT      O78286   5.437   4.541   4.931
26015WAT     H178287   5.462   4.443   4.929
26015WAT     H278288   5.496   4.588   4.996
26016WAT      O78289   8.057   8.267   4.404
26016WAT     H178290   8.098   8.216   4.480
26016WAT     H278291   8.125   8.282   4.333
26017WAT      O78292   5.150   0.520   5.997
26017WAT     H178293   5.145   0.585   6.072
26017WAT     H278294   5.069   0.461   5.998
26018WAT      O78295   5.038   4.181   3.205
26018WAT     H178296   5.133   4.150   3.211
26018WAT     H278297   5.019   4.212   3.112
26019WAT      O78298   6.246   7.263   0.400
26019WAT     H178299   6.228   7.238   0.495
26019WAT     H278300   6.216   7.189   0.340
26020WAT      O78301   8.623   2.859   5.779
26020WAT     H178302   8.692   2.925   5.749
26020WAT     H278303   8.654   2.813   5.862
26021WAT      O78304   1.018   8.737   1.375
26021WAT     H178305   1.083   8.676   1.418
26021WAT     H278306   0.925   8.710   1.399
26022WAT      O78307   5.752   8.125   5.382
26022WAT     H178308   5.818   8.198   5.363
26022WAT     H278309   5.721   8.132   5.477
26023WAT      O78310   7.493   2.026   2.481
26023WAT     H178311   7.396   2.048   2.490
26023WAT     H278312   7.515   1.946   2.537
26024WAT      O78313   1.674   2.553   1.515
26024WAT     H178314   1.593   2.610   1.505
26024WAT     H278315   1.652   2.458   1.493
26025WAT      O78316   4.569   0.552   7.677
26025WAT     H178317   4.645   0.605   7.714
26025WAT     H278318   4.514   0.610   7.618
26026WAT      O78319   6.388   6.224   3.052
26026WAT     H178320   6.297   6.249   3.084
26026WAT     H278321   6.435   6.305   3.017
26027WAT      O78322   0.782   6.500   5.618
26027WAT     H178323   0.834   6.531   5.698
26027WAT     H278324   0.686   6.488   5.644
26028WAT      O78325   5.620   0.053   7.348
26028WAT     H178326   5.589  -0.038   7.377
26028WAT     H278327   5.554   0.092   7.285
26029WAT      O78328   2.622   4.926   7.273
26029WAT     H178329   2.556   4.945   7.346
26029WAT     H278330   2.603   4.984   7.194
26030WAT      O78331   9.252   5.010   3.351
26030WAT     H178332   9.197   5.074   3.298
26030WAT     H278333   9.345   5.007   3.314
26031WAT      O78334   2.343   7.261   4.941
26031WAT     H178335   2.431   7.283   4.984
26031WAT     H278336   2.305   7.178   4.984
26032WAT      O78337   4.274   7.259   4.221
26032WAT     H178338   4.199   7.231   4.281
26032WAT     H278339   4.299   7.354   4.242
26033WAT      O78340   3.869   1.851   9.868
26033WAT     H178341   3.909   1.912   9.801
26033WAT     H278342   3.938   1.824   9.936
26034WAT      O78343   0.834   6.406   4.363
26034WAT     H178344   0.772   6.331   4.388
26034WAT     H278345   0.921   6.394   4.411
26035WAT      O78346   8.651   2.843   3.137
26035WAT     H178347   8.587   2.911   3.173
26035WAT     H278348   8.733   2.889   3.103
26036WAT      O78349   2.744   0.889   1.007
26036WAT     H178350   2.791   0.829   1.071
26036WAT     H278351   2.783   0.879   0.916
26037WAT      O78352   9.120   8.623   9.184
26037WAT     H178353   9.023   8.616   9.161
26037WAT     H278354   9.169   8.544   9.148
26038WAT      O78355   7.971   9.824   5.641
26038WAT     H178356   8.027   9.815   5.559
26038WAT     H278357   7.950   9.920   5.657
26039WAT      O78358   0.261   3.538   4.198
26039WAT     H178359   0.176   3.592   4.199
26039WAT     H278360   0.245   3.452   4.150
26040WAT      O78361   9.602   4.377   8.874
26040WAT     H178362   9.651   4.403   8.958
26040WAT     H278363   9.564   4.285   8.885
26041WAT      O78364   3.315   1.988   7.066
26041WAT     H178365   3.321   1.985   7.166
26041WAT     H278366   3.262   2.068   7.038
26042WAT      O78367   1.802   5.166   9.646
26042WAT     H178368   1.731   5.156   9.715
26042WAT     H278369   1.855   5.249   9.666
26043WAT      O78370   4.899   6.704   6.191
26043WAT     H178371   4.974   6.661   6.240
26043WAT     H278372   4.932   6.785   6.142
26044WAT      O78373   8.555   8.118   0.708
26044WAT     H178374   8.548   8.171   0.623
26044WAT     H278375   8.649   8.089   0.721
26045WAT      O78376   7.753   0.595   8.728
26045WAT     H178377   7.845   0.569   8.697
26045WAT     H278378   7.725   0.678   8.681
26046WAT      O78379   7.733   4.271   9.066
26046WAT     H178380   7.655   4.303   9.119
26046WAT     H278381   7.734   4.317   8.977
26047WAT      O78382   6.998   9.003   6.244
26047WAT     H178383   7.066   8.940   6.207
26047WAT     H278384   7.021   9.026   6.338
26048WAT      O78385   7.893   8.442   0.082
26048WAT     H178386   7.982   8.473   0.115
26048WAT     H278387   7.830   8.432   0.159
26049WAT      O78388   3.525   9.491   8.179
26049WAT     H178389   3.547   9.552   8.102
26049WAT     H278390   3.575   9.405   8.168
26050WAT      O78391   8.499   7.848   4.495
26050WAT     H178392   8.485   7.751   4.517
26050WAT     H278393   8.411   7.892   4.481
26051WAT      O78394   1.365   6.200   9.645
26051WAT     H178395   1.395   6.292   9.621
26051WAT     H278396   1.438   6.154   9.696
26052WAT      O78397   0.544   4.546   1.375
26052WAT     H178398   0.487   4.558   1.457
26052WAT     H278399   0.637   4.576   1.395
26053WAT      O78400   5.981   1.390   1.587
26053WAT     H178401   5.904   1.419   1.531
26053WAT     H278402   6.043   1.333   1.533
26054WAT      O78403   8.732   3.436   5.491
26054WAT     H178404   8.745   3.338   5.478
26054WAT     H278405   8.636   3.455   5.510
26055WAT      O78406   0.559   1.642   3.350
26055WAT     H178407   0.486   1.690   3.300
26055WAT     H278408   0.569   1.682   3.441
26056WAT      O78409   5.501   2.572   1.527
26056WAT     H178410   5.536   2.570   1.434
26056WAT     H278411   5.472   2.480   1.553
26057WAT      O78412   8.067   9.426   4.452
26057WAT     H178413   8.076   9.361   4.527
26057WAT     H278414   7.973   9.424   4.418
26058WAT      O78415   1.744   2.124   7.805
26058WAT     H178416   1.708   2.141   7.713
26058WAT     H278417   1.721   2.201   7.864
26059WAT      O78418   1.427   4.540   0.797
26059WAT     H178419   1.501   4.545   0.864
26059WAT     H278420   1.463   4.508   0.710
26060WAT      O78421   7.119   9.021   7.499
26060WAT     H178422   7.137   9.028   7.597
26060WAT     H278423   7.067   9.101   7.469
26061WAT      O78424   6.923   3.168   5.999
26061WAT     H178425   6.945   3.139   5.906
26061WAT     H278426   6.956   3.261   6.014
26062WAT      O78427   2.358   0.670   1.772
26062WAT     H178428   2.281   0.729   1.799
26062WAT     H278429   2.323   0.582   1.742
26063WAT      O78430   8.353   5.331   2.530
26063WAT     H178431   8.292   5.390   2.476
26063WAT     H278432   8.437   5.314   2.477
26064WAT      O78433   2.497   5.053   8.567
26064WAT     H178434   2.591   5.022   8.550
26064WAT     H278435   2.498   5.124   8.637
26065WAT      O78436   1.366   8.559   1.862
26065WAT     H178437   1.374   8.619   1.942
26065WAT     H278438   1.270   8.536   1.846
26066WAT      O78439   5.765   7.395   6.724
26066WAT     H178440   5.725   7.358   6.640
26066WAT     H278441   5.836   7.333   6.757
26067WAT      O78442   3.233   3.419   4.672
26067WAT     H178443   3.229   3.462   4.762
26067WAT     H278444   3.231   3.489   4.601
26068WAT      O78445   1.518   8.559   6.736
26068WAT     H178446   1.437   8.519   6.779
26068WAT     H278447   1.538   8.511   6.651
26069WAT      O78448   5.171   7.350   8.990
26069WAT     H178449   5.100   7.291   8.951
26069WAT     H278450   5.244   7.294   9.030
26070WAT      O78451   5.340   6.818   4.372
26070WAT     H178452   5.426   6.828   4.421
26070WAT     H278453   5.264   6.838   4.435
26071WAT      O78454   7.755   4.611   0.616
26071WAT     H178455   7.670   4.560   0.629
26071WAT     H278456   7.745   4.674   0.539
26072WAT      O78457   3.189   0.004   0.752
26072WAT     H178458   3.152  -0.078   0.796
26072WAT     H278459   3.191   0.079   0.817
26073WAT      O78460   8.321   6.086   2.368
26073WAT     H178461   8.399   6.120   2.420
26073WAT     H278462   8.278   6.011   2.419
26074WAT      O78463   8.682   0.734   9.150
26074WAT     H178464   8.600   0.710   9.098
26074WAT     H278465   8.715   0.824   9.120
26075WAT      O78466   2.739   4.230   2.650
26075WAT     H178467   2.644   4.262   2.648
26075WAT     H278468   2.792   4.285   2.714
26076WAT      O78469   0.436   7.446   3.807
26076WAT     H178470   0.365   7.414   3.744
26076WAT     H278471   0.508   7.493   3.756
26077WAT      O78472   8.478   6.256   5.656
26077WAT     H178473   8.562   6.225   5.701
26077WAT     H278474   8.496   6.272   5.559
26078WAT      O78475   4.620   5.598   3.845
26078WAT     H178476   4.645   5.507   3.878
26078WAT     H278477   4.591   5.655   3.922
26079WAT      O78478   3.031   3.343   7.985
26079WAT     H178479   3.124   3.379   7.972
26079WAT     H278480   3.036   3.256   8.033
26080WAT      O78481   8.418   8.264   1.565
26080WAT     H178482   8.353   8.339   1.559
26080WAT     H278483   8.381   8.192   1.623
26081WAT      O78484   5.290   7.100   3.498
26081WAT     H178485   5.239   7.020   3.464
26081WAT     H278486   5.268   7.114   3.595
26082WAT      O78487   9.171   1.612   8.278
26082WAT     H178488   9.126   1.664   8.205
26082WAT     H278489   9.101   1.569   8.336
26083WAT      O78490   1.199   5.806   2.763
26083WAT     H178491   1.222   5.728   2.704
26083WAT     H278492   1.192   5.889   2.707
26084WAT      O78493   8.862   9.507   4.977
26084WAT     H178494   8.841   9.417   4.937
26084WAT     H278495   8.940   9.498   5.039
26085WAT      O78496   2.528   8.761   6.445
26085WAT     H178497   2.577   8.695   6.387
26085WAT     H278498   2.434   8.730   6.458
26086WAT      O78499   3.081   4.815   0.101
26086WAT     H178500   3.024   4.896   0.117
26086WAT     H278501   3.145   4.803   0.176
26087WAT      O78502   0.684   5.911   7.402
26087WAT     H178503   0.684   5.836   7.469
26087WAT     H278504   0.753   5.978   7.428
26088WAT      O78505   9.564   6.464   4.517
26088WAT     H178506   9.487   6.441   4.577
26088WAT     H278507   9.529   6.488   4.426
26089WAT      O78508   4.879   1.793   2.267
26089WAT     H178509   4.873   1.880   2.317
26089WAT     H278510   4.822   1.725   2.313
26090WAT      O78511   6.095   0.863   3.329
26090WAT     H178512   6.003   0.902   3.324
26090WAT     H278513   6.131   0.873   3.422
26091WAT      O78514   8.065   3.439   2.775
26091WAT     H178515   8.018   3.463   2.689
26091WAT     H278516   8.008   3.465   2.852
26092WAT      O78517   4.565   1.640   6.768
26092WAT     H178518   4.598   1.547   6.780
26092WAT     H278519   4.482   1.653   6.822
26093WAT      O78520   2.386   8.451   9.893
26093WAT     H178521   2.441   8.508   9.833
26093WAT     H278522   2.342   8.379   9.840
26094WAT      O78523   2.339   7.903   1.890
26094WAT     H178524   2.308   7.906   1.795
26094WAT     H278525   2.308   7.985   1.938
26095WAT      O78526   8.778   5.790   6.797
26095WAT     H178527   8.711   5.746   6.858
26095WAT     H278528   8.737   5.804   6.707
26096WAT      O78529   6.604   8.931   8.508
26096WAT     H178530   6.546   8.889   8.438
26096WAT     H278531   6.697   8.943   8.473
26097WAT      O78532   7.065   0.129   8.390
26097WAT     H178533   6.997   0.100   8.322
26097WAT     H278534   7.074   0.057   8.459
26098WAT      O78535   7.704   8.563   2.619
26098WAT     H178536   7.725   8.465   2.630
26098WAT     H278537   7.774   8.617   2.665
26099WAT      O78538   7.797   0.973   8.986
26099WAT     H178539   7.714   1.028   8.977
26099WAT     H278540   7.853   1.009   9.060
26100WAT      O78541   1.571   3.693   9.277
26100WAT     H178542   1.618   3.648   9.353
26100WAT     H278543   1.493   3.637   9.248
26101WAT      O78544   8.769   0.409   4.139
26101WAT     H178545   8.733   0.467   4.213
26101WAT     H278546   8.868   0.401   4.148
26102WAT      O78547   6.846   8.431   5.700
26102WAT     H178548   6.837   8.460   5.796
26102WAT     H278549   6.760   8.388   5.670
26103WAT      O78550   4.460   1.634   4.150
26103WAT     H178551   4.363   1.657   4.140
26103WAT     H278552   4.469   1.540   4.182
26104WAT      O78553   1.192   6.986   7.540
26104WAT     H178554   1.174   6.997   7.442
26104WAT     H278555   1.257   7.056   7.570
26105WAT      O78556   5.188   1.822   3.337
26105WAT     H178557   5.258   1.767   3.292
26105WAT     H278558   5.229   1.875   3.411
26106WAT      O78559   1.563   4.294   0.251
26106WAT     H178560   1.501   4.267   0.325
26106WAT     H278561   1.591   4.213   0.199
26107WAT      O78562   1.788   6.340   3.659
26107WAT     H178563   1.850   6.294   3.722
26107WAT     H278564   1.752   6.273   3.593
26108WAT      O78565   5.354   7.160   9.086
26108WAT     H178566   5.360   7.177   9.184
26108WAT     H278567   5.442   7.181   9.042
26109WAT      O78568   1.816   1.692   3.143
26109WAT     H178569   1.761   1.614   3.174
26109WAT     H278570   1.789   1.773   3.195
26110WAT      O78571   6.631   3.031   1.989
26110WAT     H178572   6.678   3.116   2.012
26110WAT     H278573   6.671   2.955   2.040
26111WAT      O78574   6.180   2.432   7.746
26111WAT     H178575   6.242   2.477   7.681
26111WAT     H278576   6.085   2.448   7.719
26112WAT      O78577   7.964   5.163   3.127
26112WAT     H178578   7.974   5.253   3.086
26112WAT     H278579   8.040   5.147   3.191
26113WAT      O78580   4.764   9.776   7.701
26113WAT     H178581   4.822   9.842   7.749
26113WAT     H278582   4.762   9.798   7.604
26114WAT      O78583   7.612   9.781   9.105
26114WAT     H178584   7.673   9.709   9.074
26114WAT     H278585   7.525   9.775   9.056
26115WAT      O78586   6.905   1.714   0.969
26115WAT     H178587   6.945   1.624   0.952
26115WAT     H278588   6.878   1.755   0.882
26116WAT      O78589   7.957   1.624   4.080
26116WAT     H178590   7.936   1.625   4.178
26116WAT     H278591   7.883   1.582   4.030
26117WAT      O78592   6.540   5.257   9.158
26117WAT     H178593   6.516   5.201   9.238
26117WAT     H278594   6.539   5.354   9.183
26118WAT      O78595   7.411   2.710   4.349
26118WAT     H178596   7.363   2.696   4.262
26118WAT     H278597   7.408   2.625   4.402
26119WAT      O78598   6.471   8.743   5.629
26119WAT     H178599   6.483   8.723   5.727
26119WAT     H278600   6.542   8.807   5.600
26120WAT      O78601   7.385   0.143   4.484
26120WAT     H178602   7.405   0.075   4.554
26120WAT     H278603   7.311   0.202   4.515
26121WAT      O78604   7.557   5.491   0.950
26121WAT     H178605   7.524   5.573   0.905
26121WAT     H278606   7.557   5.504   1.049
26122WAT      O78607   4.059   1.653   9.485
26122WAT     H178608   4.053   1.749   9.458
26122WAT     H278609   4.008   1.639   9.570
26123WAT      O78610   5.134   0.432   8.331
26123WAT     H178611   5.061   0.377   8.370
26123WAT     H278612   5.097   0.491   8.259
26124WAT      O78613   0.719   2.523   5.646
26124WAT     H178614   0.697   2.573   5.730
26124WAT     H278615   0.799   2.464   5.661
26125WAT      O78616   1.491   5.609   2.048
26125WAT     H178617   1.567   5.639   1.990
26125WAT     H278618   1.470   5.680   2.115
26126WAT      O78619   0.362   1.334   0.914
26126WAT     H178620   0.317   1.358   1.000
26126WAT     H278621   0.421   1.254   0.929
26127WAT      O78622   8.456   6.740   2.872
26127WAT     H178623   8.520   6.810   2.841
26127WAT     H278624   8.381   6.783   2.922
26128WAT      O78625   3.400   1.153   9.202
26128WAT     H178626   3.478   1.096   9.178
26128WAT     H278627   3.396   1.232   9.141
26129WAT      O78628   2.269   3.055   2.193
26129WAT     H178629   2.215   3.067   2.110
26129WAT     H278630   2.320   2.970   2.188
26130WAT      O78631   9.236   1.380   7.831
26130WAT     H178632   9.242   1.334   7.742
26130WAT     H278633   9.142   1.410   7.847
26131WAT      O78634   8.182   8.884   8.712
26131WAT     H178635   8.168   8.863   8.615
26131WAT     H278636   8.134   8.968   8.735
26132WAT      O78637   4.187   4.395   4.990
26132WAT     H178638   4.159   4.396   5.086
26132WAT     H278639   4.184   4.301   4.955
26133WAT      O78640   9.179   8.106   4.996
26133WAT     H178641   9.082   8.096   5.020
26133WAT     H278642   9.204   8.039   4.926
26134WAT      O78643   6.060   3.346   7.774
26134WAT     H178644   6.145   3.388   7.743
26134WAT     H278645   5.982   3.401   7.743
26135WAT      O78646   7.078   1.585   9.525
26135WAT     H178647   7.105   1.498   9.485
26135WAT     H278648   7.086   1.580   9.625
26136WAT      O78649   7.024   5.627   6.091
26136WAT     H178650   7.077   5.648   6.009
26136WAT     H278651   7.086   5.604   6.166
26137WAT      O78652   8.442   4.283   4.809
26137WAT     H178653   8.509   4.210   4.818
26137WAT     H278654   8.378   4.279   4.886
26138WAT      O78655   8.626   6.932   9.361
26138WAT     H178656   8.725   6.925   9.375
26138WAT     H278657   8.606   6.923   9.263
26139WAT      O78658   1.708   6.158   1.812
26139WAT     H178659   1.709   6.251   1.775
26139WAT     H278660   1.801   6.131   1.836
26140WAT      O78661   8.445   5.261   7.183
26140WAT     H178662   8.513   5.192   7.207
26140WAT     H278663   8.439   5.269   7.083
26141WAT      O78664   4.543   0.109   2.290
26141WAT     H178665   4.452   0.116   2.330
26141WAT     H278666   4.536   0.108   2.190
26142WAT      O78667   9.006   1.456   7.601
26142WAT     H178668   8.952   1.425   7.523
26142WAT     H278669   8.945   1.491   7.672
26143WAT      O78670   1.694   3.508   9.443
26143WAT     H178671   1.685   3.483   9.540
26143WAT     H278672   1.632   3.451   9.388
26144WAT      O78673   9.843   8.944   0.743
26144WAT     H178674   9.901   8.907   0.670
26144WAT     H278675   9.852   9.044   0.745
26145WAT      O78676   4.395   3.581   0.994
26145WAT     H178677   4.312   3.569   0.939
26145WAT     H278678   4.438   3.668   0.970
26146WAT      O78679   9.246   4.803   5.585
26146WAT     H178680   9.191   4.802   5.501
26146WAT     H278681   9.186   4.794   5.664
26147WAT      O78682   2.578   1.574   2.641
26147WAT     H178683   2.566   1.552   2.738
26147WAT     H278684   2.490   1.604   2.603
26148WAT      O78685   7.276   4.769   2.945
26148WAT     H178686   7.213   4.829   2.895
26148WAT     H278687   7.333   4.824   3.006
26149WAT      O78688   8.428   7.840   7.216
26149WAT     H178689   8.487   7.760   7.211
26149WAT     H278690   8.396   7.864   7.124
26150WAT      O78691   1.295   3.692   8.483
26150WAT     H178692   1.357   3.756   8.529
26150WAT     H278693   1.265   3.622   8.547
26151WAT      O78694   0.338   4.979   4.159
26151WAT     H178695   0.319   4.987   4.062
26151WAT     H278696   0.279   4.907   4.198
26152WAT      O78697   6.588   5.724   4.095
26152WAT     H178698   6.624   5.632   4.083
26152WAT     H278699   6.660   5.791   4.075
26153WAT      O78700   7.417   1.029   4.699
26153WAT     H178701   7.478   1.027   4.778
26153WAT     H278702   7.379   0.937   4.684
26154WAT      O78703   9.673   1.013   1.366
26154WAT     H178704   9.585   1.053   1.391
26154WAT     H278705   9.675   0.916   1.393
26155WAT      O78706   7.150   5.592   1.863
26155WAT     H178707   7.055   5.611   1.840
26155WAT     H278708   7.162   5.598   1.962
26156WAT      O78709   3.497   3.061   4.992
26156WAT     H178710   3.550   3.082   4.910
26156WAT     H278711   3.430   3.133   5.009
26157WAT      O78712   2.436   8.034   5.799
26157WAT     H178713   2.393   8.037   5.709
26157WAT     H278714   2.395   8.104   5.858
26158WAT      O78715   5.952   5.727   2.741
26158WAT     H178716   5.967   5.629   2.756
26158WAT     H278717   5.988   5.779   2.819
26159WAT      O78718   2.661   5.787   0.246
26159WAT     H178719   2.625   5.722   0.313
26159WAT     H278720   2.589   5.811   0.180
26160WAT      O78721   0.834   4.002   8.738
26160WAT     H178722   0.897   3.985   8.814
26160WAT     H278723   0.859   4.088   8.693
26161WAT      O78724   3.722   9.532   9.191
26161WAT     H178725   3.675   9.561   9.275
26161WAT     H278726   3.661   9.477   9.136
26162WAT      O78727   4.454   6.717   8.218
26162WAT     H178728   4.488   6.629   8.249
26162WAT     H278729   4.354   6.713   8.206
26163WAT      O78730   6.236   9.260   0.301
26163WAT     H178731   6.167   9.310   0.250
26163WAT     H278732   6.195   9.222   0.385
26164WAT      O78733   8.322   7.909   9.590
26164WAT     H178734   8.225   7.890   9.604
26164WAT     H278735   8.346   7.996   9.634
26165WAT      O78736   9.503   7.739   7.217
26165WAT     H178737   9.416   7.777   7.185
26165WAT     H278738   9.543   7.682   7.146
26166WAT      O78739   5.445   1.791   6.482
26166WAT     H178740   5.500   1.721   6.435
26166WAT     H278741   5.349   1.779   6.458
26167WAT      O78742   4.831   3.105   0.750
26167WAT     H178743   4.774   3.115   0.832
26167WAT     H278744   4.850   3.195   0.712
26168WAT      O78745   7.902   8.392   5.124
26168WAT     H178746   7.903   8.443   5.038
26168WAT     H278747   7.994   8.359   5.145
26169WAT      O78748   8.247   8.072   6.357
26169WAT     H178749   8.309   8.001   6.323
26169WAT     H278750   8.231   8.139   6.284
26170WAT      O78751   2.411   1.660   6.624
26170WAT     H178752   2.366   1.592   6.565
26170WAT     H278753   2.462   1.725   6.567
26171WAT      O78754   3.136   0.884   7.748
26171WAT     H178755   3.062   0.862   7.685
26171WAT     H278756   3.155   0.805   7.806
26172WAT      O78757   5.083   2.718   2.217
26172WAT     H178758   5.050   2.625   2.198
26172WAT     H278759   5.182   2.716   2.228
26173WAT      O78760   1.321   0.118   2.322
26173WAT     H178761   1.233   0.087   2.357
26173WAT     H278762   1.306   0.179   2.244
26174WAT      O78763   0.291   6.356   8.348
26174WAT     H178764   0.239   6.436   8.320
26174WAT     H278765   0.369   6.385   8.405
26175WAT      O78766   2.100   2.018   1.726
26175WAT     H178767   2.172   2.039   1.792
26175WAT     H278768   2.011   2.028   1.770
26176WAT      O78769   5.619   1.442   3.426
26176WAT     H178770   5.641   1.356   3.378
26176WAT     H278771   5.667   1.518   3.382
26177WAT      O78772   7.985   5.438   6.620
26177WAT     H178773   7.989   5.464   6.716
26177WAT     H278774   7.899   5.392   6.600
26178WAT      O78775   8.661   5.737   0.123
26178WAT     H178776   8.661   5.762   0.026
26178WAT     H278777   8.739   5.782   0.168
26179WAT      O78778   4.840   7.506   2.517
26179WAT     H178779   4.770   7.561   2.471
26179WAT     H278780   4.836   7.524   2.616
26180WAT      O78781   5.765   2.422   7.893
26180WAT     H178782   5.804   2.426   7.985
26180WAT     H278783   5.677   2.374   7.897
26181WAT      O78784   2.676   8.868   2.885
26181WAT     H178785   2.752   8.908   2.936
26181WAT     H278786   2.643   8.787   2.933
26182WAT      O78787   3.300   5.789   8.069
26182WAT     H178788   3.267   5.820   8.158
26182WAT     H278789   3.395   5.759   8.078
26183WAT      O78790   2.766   0.545   9.333
26183WAT     H178791   2.782   0.631   9.286
26183WAT     H278792   2.775   0.559   9.432
26184WAT      O78793   6.713   8.802   5.040
26184WAT     H178794   6.669   8.797   4.951
26184WAT     H278795   6.795   8.859   5.034
26185WAT      O78796   9.595   7.429   6.384
26185WAT     H178797   9.674   7.420   6.444
26185WAT     H278798   9.574   7.526   6.370
26186WAT      O78799   7.546   3.544   9.450
26186WAT     H178800   7.528   3.532   9.353
26186WAT     H278801   7.532   3.640   9.475
26187WAT      O78802   2.214   8.543   5.645
26187WAT     H178803   2.194   8.500   5.733
26187WAT     H278804   2.142   8.608   5.622
26188WAT      O78805   5.257   4.133   4.618
26188WAT     H178806   5.257   4.102   4.713
26188WAT     H278807   5.163   4.156   4.591
26189WAT      O78808   4.068   8.232   8.730
26189WAT     H178809   4.154   8.256   8.685
26189WAT     H278810   4.015   8.170   8.673
26190WAT      O78811   7.913   0.100   7.795
26190WAT     H178812   7.872   0.039   7.862
26190WAT     H278813   7.914   0.056   7.705
26191WAT      O78814   5.431   1.240   7.348
26191WAT     H178815   5.496   1.315   7.365
26191WAT     H278816   5.372   1.229   7.428
26192WAT      O78817   9.644   1.970   0.110
26192WAT     H178818   9.567   2.001   0.055
26192WAT     H278819   9.634   1.872   0.129
26193WAT      O78820   1.459   5.183   6.845
26193WAT     H178821   1.544   5.210   6.890
26193WAT     H278822   1.474   5.097   6.796
26194WAT      O78823   9.237   8.852   9.046
26194WAT     H178824   9.166   8.909   9.005
26194WAT     H278825   9.194   8.775   9.093
26195WAT      O78826   0.790   6.542   8.407
26195WAT     H178827   0.867   6.574   8.352
26195WAT     H278828   0.722   6.498   8.348
26196WAT      O78829   4.464   6.279   4.028
26196WAT     H178830   4.475   6.304   3.931
26196WAT     H278831   4.373   6.307   4.059
26197WAT      O78832   2.000   5.594   8.910
26197WAT     H178833   2.007   5.616   8.812
26197WAT     H278834   2.039   5.503   8.927
26198WAT      O78835   3.286   1.877   3.415
26198WAT     H178836   3.292   1.976   3.425
26198WAT     H278837   3.372   1.841   3.380
26199WAT      O78838   7.998   5.738   4.570
26199WAT     H178839   7.913   5.769   4.614
26199WAT     H278840   7.977   5.664   4.506
26200WAT      O78841   6.073   6.218   6.503
26200WAT     H178842   5.993   6.251   6.553
26200WAT     H278843   6.113   6.294   6.452
26201WAT      O78844   2.068   9.221   8.339
26201WAT     H178845   2.077   9.307   8.287
26201WAT     H278846   1.986   9.224   8.395
26202WAT      O78847   3.947   1.458   7.206
26202WAT     H178848   3.986   1.368   7.185
26202WAT     H278849   3.983   1.526   7.142
26203WAT      O78850   5.689   1.215   3.635
26203WAT     H178851   5.749   1.135   3.633
26203WAT     H278852   5.737   1.293   3.593
26204WAT      O78853   5.365   8.336   1.889
26204WAT     H178854   5.327   8.253   1.929
26204WAT     H278855   5.309   8.415   1.917
26205WAT      O78856   2.145   5.060   5.050
26205WAT     H178857   2.051   5.034   5.072
26205WAT     H278858   2.201   4.978   5.042
26206WAT      O78859   2.265   6.686   2.434
26206WAT     H178860   2.260   6.631   2.351
26206WAT     H278861   2.356   6.726   2.443
26207WAT      O78862   8.883   2.787   4.649
26207WAT     H178863   8.805   2.818   4.703
26207WAT     H278864   8.909   2.695   4.679
26208WAT      O78865   6.733   2.894   6.041
26208WAT     H178866   6.797   2.902   6.117
26208WAT     H278867   6.782   2.904   5.955
26209WAT      O78868   2.431   6.960   2.941
26209WAT     H178869   2.368   6.958   2.863
26209WAT     H278870   2.393   6.908   3.017
26210WAT      O78871   7.208   3.632   6.288
26210WAT     H178872   7.113   3.647   6.260
26210WAT     H278873   7.268   3.637   6.208
26211WAT      O78874   5.892   2.660   8.628
26211WAT     H178875   5.965   2.716   8.589
26211WAT     H278876   5.849   2.711   8.703
26212WAT      O78877   9.668   0.407   0.221
26212WAT     H178878   9.632   0.344   0.153
26212WAT     H278879   9.687   0.358   0.306
26213WAT      O78880   1.992   2.323   5.180
26213WAT     H178881   1.989   2.235   5.228
26213WAT     H278882   1.981   2.398   5.246
26214WAT      O78883   0.373   7.176   0.683
26214WAT     H178884   0.471   7.165   0.664
26214WAT     H278885   0.328   7.087   0.677
26215WAT      O78886   9.417   9.384   9.137
26215WAT     H178887   9.360   9.461   9.167
26215WAT     H278888   9.358   9.306   9.115
26216WAT      O78889   4.590   2.018   4.650
26216WAT     H178890   4.611   2.103   4.601
26216WAT     H278891   4.664   1.952   4.634
26217WAT      O78892   6.411   8.922   5.099
26217WAT     H178893   6.347   8.858   5.140
26217WAT     H278894   6.494   8.927   5.156
26218WAT      O78895   5.841   3.954   0.538
26218WAT     H178896   5.793   4.001   0.464
26218WAT     H278897   5.806   3.860   0.544
26219WAT      O78898   3.208   2.442   4.321
26219WAT     H178899   3.306   2.444   4.337
26219WAT     H278900   3.181   2.350   4.291
26220WAT      O78901   2.804   7.845   1.139
26220WAT     H178902   2.799   7.787   1.219
26220WAT     H278903   2.713   7.856   1.099
26221WAT      O78904   8.978   3.576   5.588
26221WAT     H178905   9.050   3.506   5.584
26221WAT     H278906   8.896   3.540   5.544
26222WAT      O78907   5.313   5.521   2.196
26222WAT     H178908   5.376   5.580   2.248
26222WAT     H278909   5.244   5.578   2.151
26223WAT      O78910   0.049   0.819   8.086
26223WAT     H178911   0.045   0.781   7.994
26223WAT     H278912   0.145   0.834   8.112
26224WAT      O78913   0.583   5.022   4.418
26224WAT     H178914   0.515   4.951   4.439
26224WAT     H278915   0.546   5.084   4.349
26225WAT      O78916   5.256   1.566   9.413
26225WAT     H178917   5.331   1.530   9.469
26225WAT     H278918   5.286   1.577   9.318
26226WAT      O78919   4.423   2.731   1.486
26226WAT     H178920   4.327   2.757   1.471
26226WAT     H278921   4.430   2.679   1.571
26227WAT      O78922   7.513   1.026   8.732
26227WAT     H178923   7.500   1.097   8.663
26227WAT     H278924   7.555   1.065   8.814
26228WAT      O78925   9.708   2.673   1.824
26228WAT     H178926   9.719   2.724   1.910
26228WAT     H278927   9.686   2.737   1.750
26229WAT      O78928   9.231   2.827   3.016
26229WAT     H178929   9.299   2.756   2.998
26229WAT     H278930   9.278   2.912   3.039
26230WAT      O78931   8.405   3.071   2.903
26230WAT     H178932   8.453   2.994   2.859
26230WAT     H278933   8.333   3.104   2.842
26231WAT      O78934   7.152   7.788   4.949
26231WAT     H178935   7.155   7.860   5.019
26231WAT     H278936   7.060   7.751   4.942
26232WAT      O78937   5.048   5.525   0.043
26232WAT     H178938   5.107   5.604   0.060
26232WAT     H278939   4.981   5.548  -0.027
26233WAT      O78940   7.989   7.479   0.127
26233WAT     H178941   8.081   7.495   0.160
26233WAT     H278942   7.989   7.403   0.062
26234WAT      O78943   3.734   3.024   1.612
26234WAT     H178944   3.636   3.010   1.598
26234WAT     H278945   3.784   2.942   1.586
26235WAT      O78946   9.406   8.363   3.867
26235WAT     H178947   9.344   8.426   3.915
26235WAT     H278948   9.412   8.390   3.770
26236WAT      O78949   2.825   7.810   7.093
26236WAT     H178950   2.844   7.785   6.998
26236WAT     H278951   2.792   7.730   7.144
26237WAT      O78952   9.526   6.309   0.740
26237WAT     H178953   9.551   6.380   0.805
26237WAT     H278954   9.605   6.287   0.683
26238WAT      O78955   0.229   2.701   1.194
26238WAT     H178956   0.220   2.628   1.262
26238WAT     H278957   0.151   2.763   1.202
26239WAT      O78958   2.548   3.616   2.466
26239WAT     H178959   2.633   3.632   2.416
26239WAT     H278960   2.500   3.703   2.478
26240WAT      O78961   3.576   0.820   6.110
26240WAT     H178962   3.537   0.828   6.018
26240WAT     H278963   3.672   0.849   6.109
26241WAT      O78964   2.931   8.675   9.163
26241WAT     H178965   2.840   8.667   9.121
26241WAT     H278966   2.922   8.700   9.259
26242WAT      O78967   8.216   2.996   9.596
26242WAT     H178968   8.246   2.903   9.575
26242WAT     H278969   8.150   2.993   9.672
26243WAT      O78970   5.532   9.818   2.010
26243WAT     H178971   5.489   9.907   2.024
26243WAT     H278972   5.626   9.831   1.980
26244WAT      O78973   2.165   0.076   2.149
26244WAT     H178974   2.217   0.091   2.065
26244WAT     H278975   2.070   0.106   2.136
26245WAT      O78976   6.432   9.617   4.369
26245WAT     H178977   6.473   9.684   4.307
26245WAT     H278978   6.499   9.547   4.391
26246WAT      O78979   6.570   9.256   5.135
26246WAT     H178980   6.504   9.219   5.069
26246WAT     H278981   6.542   9.348   5.162
26247WAT      O78982   9.773   8.518   3.910
26247WAT     H178983   9.783   8.498   3.813
26247WAT     H278984   9.853   8.569   3.942
26248WAT      O78985   0.264   5.340   8.587
26248WAT     H178986   0.209   5.258   8.601
26248WAT     H278987   0.223   5.397   8.516
26249WAT      O78988   1.336   2.920   3.144
26249WAT     H178989   1.424   2.878   3.123
26249WAT     H278990   1.276   2.915   3.063
26250WAT      O78991   2.183   5.553   5.492
26250WAT     H178992   2.235   5.627   5.535
26250WAT     H278993   2.161   5.579   5.398
26251WAT      O78994   2.881   5.084   6.257
26251WAT     H178995   2.961   5.126   6.300
26251WAT     H278996   2.798   5.111   6.307
26252WAT      O78997   8.222   0.826   9.487
26252WAT     H178998   8.272   0.905   9.454
26252WAT     H278999   8.221   0.826   9.587
26253WAT      O79000   0.505   9.512   9.688
26253WAT     H179001   0.437   9.484   9.756
26253WAT     H279002   0.500   9.611   9.674
26254WAT      O79003   8.074   9.622   2.165
26254WAT     H179004   7.987   9.603   2.212
26254WAT     H279005   8.109   9.537   2.125
26255WAT      O79006   2.744   9.417   1.698
26255WAT     H179007   2.700   9.336   1.737
26255WAT     H279008   2.830   9.435   1.746
26256WAT      O79009   2.332   0.596   5.877
26256WAT     H179010   2.367   0.570   5.967
26256WAT     H279011   2.232   0.584   5.876
26257WAT      O79012   5.613   4.361   8.317
26257WAT     H179013   5.688   4.343   8.382
26257WAT     H279014   5.574   4.274   8.286
26258WAT      O79015   6.553   5.622   3.414
26258WAT     H179016   6.564   5.616   3.513
26258WAT     H279017   6.472   5.676   3.393
26259WAT      O79018   0.644   4.277   9.148
26259WAT     H179019   0.711   4.287   9.222
26259WAT     H279020   0.570   4.343   9.160
26260WAT      O79021   8.862   2.642   0.158
26260WAT     H179022   8.848   2.587   0.075
26260WAT     H279023   8.848   2.738   0.137
26261WAT      O79024   3.552   6.455   0.079
26261WAT     H179025   3.630   6.408   0.119
26261WAT     H279026   3.509   6.514   0.147
26262WAT      O79027   8.205   1.184   2.875
26262WAT     H179028   8.263   1.182   2.794
26262WAT     H279029   8.245   1.244   2.944
26263WAT      O79030   0.157   2.460   9.699
26263WAT     H179031   0.082   2.516   9.733
26263WAT     H279032   0.218   2.516   9.642
26264WAT      O79033   5.683   7.554   2.677
26264WAT     H179034   5.760   7.588   2.731
26264WAT     H279035   5.610   7.622   2.676
26265WAT      O79036   6.356   3.131   4.016
26265WAT     H179037   6.285   3.153   3.949
26265WAT     H279038   6.377   3.212   4.070
26266WAT      O79039   6.792   6.526   4.943
26266WAT     H179040   6.805   6.585   5.023
26266WAT     H279041   6.696   6.529   4.916
26267WAT      O79042   7.600   3.222   7.813
26267WAT     H179043   7.537   3.268   7.750
26267WAT     H279044   7.692   3.259   7.801
26268WAT      O79045   2.122   5.797   6.384
26268WAT     H179046   2.177   5.739   6.325
26268WAT     H279047   2.178   5.870   6.422
26269WAT      O79048   6.041   9.089   4.471
26269WAT     H179049   6.076   9.133   4.388
26269WAT     H279050   6.088   9.127   4.551
26270WAT      O79051   0.139   4.571   1.797
26270WAT     H179052   0.082   4.648   1.768
26270WAT     H279053   0.084   4.507   1.850
26271WAT      O79054   4.719   1.679   1.480
26271WAT     H179055   4.755   1.669   1.387
26271WAT     H279056   4.699   1.775   1.498
26272WAT      O79057   2.126   2.776   1.623
26272WAT     H179058   2.158   2.708   1.556
26272WAT     H279059   2.027   2.769   1.632
26273WAT      O79060   0.763   0.070   1.323
26273WAT     H179061   0.769   0.024   1.411
26273WAT     H279062   0.702   0.149   1.330
26274WAT      O79063   1.840   2.200   8.538
26274WAT     H179064   1.752   2.248   8.538
26274WAT     H279065   1.908   2.255   8.490
26275WAT      O79066   4.460   0.681   0.245
26275WAT     H179067   4.465   0.780   0.231
26275WAT     H279068   4.549   0.646   0.275
26276WAT      O79069   5.571   5.142   8.249
26276WAT     H179070   5.619   5.185   8.173
26276WAT     H279071   5.637   5.105   8.314
26277WAT      O79072   1.201   3.878   2.214
26277WAT     H179073   1.131   3.857   2.146
26277WAT     H279074   1.272   3.808   2.211
26278WAT      O79075   1.039   7.334   7.591
26278WAT     H179076   1.042   7.342   7.691
26278WAT     H279077   0.945   7.322   7.561
26279WAT      O79078   1.578   5.180   1.353
26279WAT     H179079   1.552   5.269   1.316
26279WAT     H279080   1.523   5.161   1.435
26280WAT      O79081   0.556   6.892   2.599
26280WAT     H179082   0.459   6.869   2.594
26280WAT     H279083   0.611   6.815   2.567
26281WAT      O79084   7.349   4.155   9.105
26281WAT     H179085   7.429   4.183   9.157
26281WAT     H279086   7.360   4.182   9.009
26282WAT      O79087   1.801   5.816   0.903
26282WAT     H179088   1.796   5.807   0.803
26282WAT     H279089   1.880   5.872   0.927
26283WAT      O79090   3.800   0.492   4.898
26283WAT     H179091   3.701   0.506   4.897
26283WAT     H279092   3.820   0.394   4.907
26284WAT      O79093   2.705   4.419   6.835
26284WAT     H179094   2.711   4.420   6.736
26284WAT     H279095   2.624   4.470   6.865
26285WAT      O79096   6.152   8.334   1.237
26285WAT     H179097   6.061   8.319   1.275
26285WAT     H279098   6.166   8.432   1.220
26286WAT      O79099   1.256   2.648   8.655
26286WAT     H179100   1.258   2.590   8.574
26286WAT     H279101   1.328   2.718   8.648
26287WAT      O79102   0.508   3.961   0.165
26287WAT     H179103   0.478   3.920   0.252
26287WAT     H279104   0.607   3.956   0.158
26288WAT      O79105   6.511   3.727   7.613
26288WAT     H179106   6.555   3.651   7.565
26288WAT     H279107   6.415   3.704   7.630
26289WAT      O79108   3.433   0.804   9.223
26289WAT     H179109   3.387   0.728   9.267
26289WAT     H279110   3.370   0.850   9.161
26290WAT      O79111   2.312   2.283   1.161
26290WAT     H179112   2.258   2.355   1.117
26290WAT     H279113   2.406   2.286   1.127
26291WAT      O79114   2.434   2.519   7.255
26291WAT     H179115   2.388   2.550   7.338
26291WAT     H279116   2.366   2.492   7.187
26292WAT      O79117   2.338   1.687   4.119
26292WAT     H179118   2.270   1.621   4.150
26292WAT     H279119   2.294   1.775   4.103
26293WAT      O79120   8.365   2.983   0.040
26293WAT     H179121   8.302   2.984   0.118
26293WAT     H279122   8.420   3.066   0.040
26294WAT      O79123   8.560   0.444   2.123
26294WAT     H179124   8.654   0.413   2.116
26294WAT     H279125   8.547   0.491   2.211
26295WAT      O79126   7.190   9.280   3.268
26295WAT     H179127   7.135   9.295   3.186
26295WAT     H279128   7.270   9.341   3.265
26296WAT      O79129   1.882   7.838   1.220
26296WAT     H179130   1.975   7.870   1.237
26296WAT     H279131   1.818   7.914   1.227
26297WAT      O79132   3.283   4.891   9.101
26297WAT     H179133   3.339   4.808   9.094
26297WAT     H279134   3.341   4.967   9.131
26298WAT      O79135   2.559   5.405   2.787
26298WAT     H179136   2.533   5.413   2.884
26298WAT     H279137   2.659   5.405   2.779
26299WAT      O79138   3.891   4.852   2.809
26299WAT     H179139   3.964   4.890   2.865
26299WAT     H279140   3.920   4.764   2.772
26300WAT      O79141   4.242   2.332   7.755
26300WAT     H179142   4.263   2.335   7.853
26300WAT     H279143   4.148   2.363   7.740
26301WAT      O79144   4.316   7.846   5.837
26301WAT     H179145   4.261   7.794   5.902
26301WAT     H279146   4.408   7.807   5.832
26302WAT      O79147   5.037   9.818   1.401
26302WAT     H179148   5.096   9.899   1.402
26302WAT     H279149   5.071   9.753   1.333
26303WAT      O79150   5.952   2.096   8.041
26303WAT     H179151   5.931   2.151   8.122
26303WAT     H279152   5.913   2.005   8.051
26304WAT      O79153   7.148   2.471   8.189
26304WAT     H179154   7.083   2.524   8.135
26304WAT     H279155   7.241   2.505   8.173
26305WAT      O79156   0.916   4.597   3.674
26305WAT     H179157   0.833   4.651   3.686
26305WAT     H279158   0.951   4.570   3.763
26306WAT      O79159   5.893   1.080   4.156
26306WAT     H179160   5.907   1.007   4.223
26306WAT     H279161   5.965   1.149   4.167
26307WAT      O79162   6.273   4.937   8.282
26307WAT     H179163   6.313   4.970   8.197
26307WAT     H279164   6.338   4.950   8.357
26308WAT      O79165   6.704   2.140   2.773
26308WAT     H179166   6.637   2.172   2.839
26308WAT     H279167   6.657   2.111   2.689
26309WAT      O79168   1.111   6.542   2.655
26309WAT     H179169   1.176   6.580   2.721
26309WAT     H279170   1.022   6.586   2.667
26310WAT      O79171   0.942   9.507   9.662
26310WAT     H179172   1.011   9.545   9.600
26310WAT     H279173   0.866   9.471   9.608
26311WAT      O79174   0.234   0.606   8.752
26311WAT     H179175   0.148   0.561   8.727
26311WAT     H279176   0.294   0.541   8.799
26312WAT      O79177   3.595   1.681   0.951
26312WAT     H179178   3.651   1.621   0.893
26312WAT     H279179   3.642   1.768   0.965
26313WAT      O79180   6.542   6.574   6.916
26313WAT     H179181   6.507   6.581   6.823
26313WAT     H279182   6.566   6.478   6.936
26314WAT      O79183   7.279   1.572   8.620
26314WAT     H179184   7.269   1.658   8.569
26314WAT     H279185   7.189   1.534   8.638
26315WAT      O79186   0.462   2.839   2.740
26315WAT     H179187   0.439   2.877   2.650
26315WAT     H279188   0.386   2.783   2.773
26316WAT      O79189   2.082   3.997   8.274
26316WAT     H179190   2.010   4.003   8.205
26316WAT     H279191   2.141   4.077   8.267
26317WAT      O79192   1.240   7.917   1.320
26317WAT     H179193   1.192   7.960   1.244
26317WAT     H279194   1.246   7.981   1.397
26318WAT      O79195   1.586   2.160   3.098
26318WAT     H179196   1.502   2.196   3.056
26318WAT     H279197   1.640   2.114   3.028
26319WAT      O79198   7.290   5.920   5.268
26319WAT     H179199   7.207   5.970   5.294
26319WAT     H279200   7.299   5.920   5.168
26320WAT      O79201   0.660   2.407   6.538
26320WAT     H179202   0.563   2.411   6.564
26320WAT     H279203   0.669   2.354   6.454
26321WAT      O79204   6.697   5.653   4.905
26321WAT     H179205   6.694   5.671   4.807
26321WAT     H279206   6.605   5.636   4.939
26322WAT      O79207   5.925   8.874   6.545
26322WAT     H179208   6.002   8.851   6.485
26322WAT     H279209   5.858   8.800   6.544
26323WAT      O79210   7.939   1.059   6.654
26323WAT     H179211   7.937   0.984   6.587
26323WAT     H279212   7.986   1.138   6.615
26324WAT      O79213   6.715   1.800   0.430
26324WAT     H179214   6.764   1.789   0.516
26324WAT     H279215   6.644   1.870   0.441
26325WAT      O79216   5.568   7.595   4.942
26325WAT     H179217   5.641   7.550   4.995
26325WAT     H279218   5.604   7.623   4.853
26326WAT      O79219   5.004   5.087   5.764
26326WAT     H179220   4.950   5.013   5.725
26326WAT     H279221   5.100   5.059   5.773
26327WAT      O79222   3.396   2.910   7.877
26327WAT     H179223   3.484   2.874   7.847
26327WAT     H279224   3.352   2.959   7.802
26328WAT      O79225   3.813   1.302   8.652
26328WAT     H179226   3.819   1.393   8.611
26328WAT     H279227   3.717   1.276   8.661
26329WAT      O79228   5.514   6.050   3.671
26329WAT     H179229   5.517   5.973   3.734
26329WAT     H279230   5.598   6.103   3.681
26330WAT      O79231   4.947   7.095   9.519
26330WAT     H179232   5.004   7.012   9.518
26330WAT     H279233   4.851   7.070   9.528
26331WAT      O79234   4.953   2.270   8.596
26331WAT     H179235   4.911   2.183   8.621
26331WAT     H279236   4.885   2.327   8.550
26332WAT      O79237   6.369   6.371   1.415
26332WAT     H179238   6.304   6.323   1.357
26332WAT     H279239   6.356   6.342   1.510
26333WAT      O79240   0.897   0.375   0.526
26333WAT     H179241   0.797   0.372   0.520
26333WAT     H279242   0.929   0.296   0.578
26334WAT      O79243   4.030   4.832   5.565
26334WAT     H179244   4.039   4.845   5.466
26334WAT     H279245   4.118   4.808   5.604
26335WAT      O79246   5.376   8.672   8.984
26335WAT     H179247   5.302   8.735   8.960
26335WAT     H279248   5.461   8.723   8.994
26336WAT      O79249   2.063   6.868   5.035
26336WAT     H179250   1.977   6.839   4.994
26336WAT     H279251   2.139   6.821   4.991
26337WAT      O79252   2.093   2.532   4.469
26337WAT     H179253   2.171   2.595   4.478
26337WAT     H279254   2.008   2.582   4.485
26338WAT      O79255   5.710   8.941   5.989
26338WAT     H179256   5.808   8.945   6.011
26338WAT     H279257   5.658   8.923   6.072
26339WAT      O79258   5.930   8.732   4.623
26339WAT     H179259   5.881   8.809   4.583
26339WAT     H279260   5.968   8.675   4.550
26340WAT      O79261   2.696   7.623   4.685
26340WAT     H179262   2.785   7.660   4.660
26340WAT     H279263   2.634   7.630   4.606
26341WAT      O79264   5.123   8.216   3.319
26341WAT     H179265   5.200   8.215   3.256
26341WAT     H279266   5.156   8.237   3.411
26342WAT      O79267   2.036   2.452   3.268
26342WAT     H179268   2.017   2.546   3.296
26342WAT     H279269   1.974   2.426   3.194
26343WAT      O79270   0.615   2.148   1.232
26343WAT     H179271   0.558   2.068   1.216
26343WAT     H279272   0.677   2.161   1.154
26344WAT      O79273   2.571   9.589   1.847
26344WAT     H179274   2.505   9.538   1.903
26344WAT     H279275   2.626   9.524   1.794
26345WAT      O79276   0.159   1.837   4.141
26345WAT     H179277   0.062   1.829   4.118
26345WAT     H279278   0.171   1.831   4.240
26346WAT      O79279   2.428   0.513   4.322
26346WAT     H179280   2.452   0.591   4.265
26346WAT     H279281   2.503   0.446   4.320
26347WAT      O79282   5.794   0.815   8.646
26347WAT     H179283   5.705   0.770   8.638
26347WAT     H279284   5.839   0.784   8.729
26348WAT      O79285   3.100   6.092   9.209
26348WAT     H179286   3.132   6.141   9.128
26348WAT     H279287   3.028   6.144   9.254
26349WAT      O79288   0.294   4.868   5.281
26349WAT     H179289   0.381   4.842   5.324
26349WAT     H279290   0.238   4.918   5.347
26350WAT      O79291   5.414   4.289   9.786
26350WAT     H179292   5.418   4.370   9.728
26350WAT     H279293   5.465   4.306   9.871
26351WAT      O79294   5.181   9.566   5.871
26351WAT     H179295   5.102   9.619   5.839
26351WAT     H279296   5.173   9.472   5.840
26352WAT      O79297   9.329   2.698   9.531
26352WAT     H179298   9.323   2.658   9.623
26352WAT     H279299   9.416   2.671   9.489
26353WAT      O79300   7.655   1.358   4.797
26353WAT     H179301   7.701   1.389   4.714
26353WAT     H279302   7.563   1.325   4.774
26354WAT      O79303   9.638   3.237   0.023
26354WAT     H179304   9.712   3.170   0.026
26354WAT     H279305   9.617   3.266   0.117
26355WAT      O79306   3.654   8.724   3.584
26355WAT     H179307   3.725   8.663   3.551
26355WAT     H279308   3.695   8.810   3.613
26356WAT      O79309   4.441   1.378   2.302
26356WAT     H179310   4.454   1.416   2.210
26356WAT     H279311   4.453   1.279   2.299
26357WAT      O79312   1.237   8.384   8.236
26357WAT     H179313   1.233   8.284   8.238
26357WAT     H279314   1.202   8.421   8.322
26358WAT      O79315   4.919   1.742   1.810
26358WAT     H179316   4.902   1.646   1.788
26358WAT     H279317   4.957   1.789   1.730
26359WAT      O79318   2.770   2.723   1.878
26359WAT     H179319   2.761   2.802   1.938
26359WAT     H279320   2.695   2.722   1.812
26360WAT      O79321   0.418   3.742   0.781
26360WAT     H179322   0.405   3.839   0.761
26360WAT     H279323   0.515   3.724   0.796
26361WAT      O79324   4.560   4.008   2.570
26361WAT     H179325   4.623   3.944   2.526
26361WAT     H279326   4.467   3.972   2.565
26362WAT      O79327   8.446   9.700   2.087
26362WAT     H179328   8.443   9.601   2.071
26362WAT     H279329   8.407   9.748   2.008
26363WAT      O79330   3.230   6.471   9.210
26363WAT     H179331   3.273   6.551   9.168
26363WAT     H279332   3.284   6.443   9.290
26364WAT      O79333   4.897   2.106   7.522
26364WAT     H179334   4.964   2.067   7.458
26364WAT     H279335   4.941   2.175   7.579
26365WAT      O79336   1.446   1.136   7.390
26365WAT     H179337   1.408   1.207   7.330
26365WAT     H279338   1.382   1.118   7.465
26366WAT      O79339   8.568   5.896   6.152
26366WAT     H179340   8.478   5.860   6.128
26366WAT     H279341   8.558   5.987   6.193
26367WAT      O79342   4.956   9.095   3.000
26367WAT     H179343   5.047   9.130   2.977
26367WAT     H279344   4.955   8.996   2.989
26368WAT      O79345   3.096   1.236   9.492
26368WAT     H179346   3.143   1.254   9.579
26368WAT     H279347   3.009   1.284   9.491
26369WAT      O79348   5.730   0.421   1.890
26369WAT     H179349   5.743   0.462   1.799
26369WAT     H279350   5.655   0.355   1.886
26370WAT      O79351   5.141   0.850   0.661
26370WAT     H179352   5.064   0.790   0.683
26370WAT     H279353   5.109   0.945   0.661
26371WAT      O79354   1.420   5.332   0.752
26371WAT     H179355   1.432   5.429   0.772
26371WAT     H279356   1.357   5.321   0.675
26372WAT      O79357   1.821   7.475   4.791
26372WAT     H179358   1.866   7.453   4.704
26372WAT     H279359   1.872   7.434   4.867
26373WAT      O79360   2.678   0.440   8.127
26373WAT     H179361   2.657   0.467   8.033
26373WAT     H279362   2.772   0.406   8.131
26374WAT      O79363   4.862   8.415   7.599
26374WAT     H179364   4.852   8.505   7.556
26374WAT     H279365   4.918   8.424   7.681
26375WAT      O79366   9.782   7.107   4.317
26375WAT     H179367   9.730   7.182   4.359
26375WAT     H279368   9.775   7.026   4.376
26376WAT      O79369   1.154   2.436   6.916
26376WAT     H179370   1.226   2.392   6.863
26376WAT     H279371   1.105   2.502   6.858
26377WAT      O79372   2.910   7.361   3.753
26377WAT     H179373   2.921   7.408   3.665
26377WAT     H279374   2.909   7.262   3.738
26378WAT      O79375   0.014   1.022   0.888
26378WAT     H179376   0.012   1.051   0.984
26378WAT     H279377  -0.078   1.028   0.850
26379WAT      O79378   9.167   6.818   5.198
26379WAT     H179379   9.266   6.826   5.186
26379WAT     H279380   9.145   6.829   5.295
26380WAT      O79381   4.960   1.583   5.570
26380WAT     H179382   4.997   1.672   5.598
26380WAT     H279383   4.942   1.584   5.472
26381WAT      O79384   7.001   3.938   0.086
26381WAT     H179385   7.017   3.921  -0.011
26381WAT     H279386   7.071   4.000   0.121
26382WAT      O79387   5.247   1.288   5.324
26382WAT     H179388   5.225   1.322   5.415
26382WAT     H279389   5.265   1.365   5.263
26383WAT      O79390   0.777   6.408   2.398
26383WAT     H179391   0.789   6.312   2.373
26383WAT     H279392   0.772   6.417   2.497
26384WAT      O79393   2.945   2.142   3.107
26384WAT     H179394   2.879   2.136   3.032
26384WAT     H279395   3.000   2.058   3.109
26385WAT      O79396   0.089   9.330   6.312
26385WAT     H179397   0.085   9.349   6.214
26385WAT     H279398   0.060   9.412   6.362
26386WAT      O79399   6.572   8.484   3.511
26386WAT     H179400   6.584   8.578   3.544
26386WAT     H279401   6.590   8.420   3.586
26387WAT      O79402   3.863   8.592   1.555
26387WAT     H179403   3.805   8.655   1.503
26387WAT     H279404   3.853   8.500   1.518
26388WAT      O79405   7.185   6.785   4.192
26388WAT     H179406   7.101   6.805   4.140
26388WAT     H279407   7.210   6.865   4.246
26389WAT      O79408   0.345   3.953   4.496
26389WAT     H179409   0.310   3.860   4.501
26389WAT     H279410   0.366   3.986   4.589
26390WAT      O79411   2.187   7.775   8.664
26390WAT     H179412   2.108   7.728   8.624
26390WAT     H279413   2.183   7.872   8.642
26391WAT      O79414   8.197   9.157   1.249
26391WAT     H179415   8.220   9.251   1.274
26391WAT     H279416   8.114   9.157   1.193
26392WAT      O79417   8.110   4.702   6.973
26392WAT     H179418   8.106   4.747   6.884
26392WAT     H279419   8.039   4.738   7.033
26393WAT      O79420   8.280   1.171   3.578
26393WAT     H179421   8.323   1.118   3.505
26393WAT     H279422   8.351   1.212   3.635
26394WAT      O79423   3.816   9.586   2.061
26394WAT     H179424   3.890   9.564   1.997
26394WAT     H279425   3.765   9.666   2.027
26395WAT      O79426   2.009   0.332   7.411
26395WAT     H179427   2.102   0.365   7.394
26395WAT     H279428   1.986   0.343   7.507
26396WAT      O79429   0.120   5.009   9.159
26396WAT     H179430   0.109   5.045   9.066
26396WAT     H279431   0.034   5.018   9.209
26397WAT      O79432   3.586   6.380   9.414
26397WAT     H179433   3.492   6.407   9.433
26397WAT     H279434   3.645   6.461   9.418
26398WAT      O79435   0.455   5.996   0.877
26398WAT     H179436   0.521   6.058   0.836
26398WAT     H279437   0.393   6.047   0.937
26399WAT      O79438   5.910   7.869   6.754
26399WAT     H179439   5.864   7.875   6.843
26399WAT     H279440   5.995   7.818   6.764
26400WAT      O79441   3.399   8.799   4.185
26400WAT     H179442   3.429   8.809   4.090
26400WAT     H279443   3.478   8.803   4.246
26401WAT      O79444   2.901   1.340   6.350
26401WAT     H179445   2.954   1.358   6.433
26401WAT     H279446   2.808   1.373   6.362
26402WAT      O79447   3.133   5.041   5.135
26402WAT     H179448   3.105   4.947   5.157
26402WAT     H279449   3.134   5.053   5.036
26403WAT      O79450   6.003   6.391   4.484
26403WAT     H179451   5.929   6.455   4.466
26403WAT     H279452   6.075   6.402   4.415
26404WAT      O79453   2.128   1.096   1.144
26404WAT     H179454   2.173   1.183   1.125
26404WAT     H279455   2.172   1.023   1.091
26405WAT      O79456   2.558   6.231   4.697
26405WAT     H179457   2.630   6.295   4.722
26405WAT     H279458   2.470   6.265   4.730
26406WAT      O79459   8.482   4.406   4.125
26406WAT     H179460   8.540   4.348   4.182
26406WAT     H279461   8.435   4.473   4.183
26407WAT      O79462   0.969   7.077   3.490
26407WAT     H179463   0.920   7.001   3.448
26407WAT     H279464   1.019   7.128   3.420
26408WAT      O79465   0.113   3.707   2.779
26408WAT     H179466   0.118   3.783   2.844
26408WAT     H279467   0.046   3.640   2.811
26409WAT      O79468   3.922   7.039   0.382
26409WAT     H179469   4.002   7.098   0.389
26409WAT     H279470   3.901   7.022   0.285
26410WAT      O79471   5.004   8.357   0.929
26410WAT     H179472   5.094   8.348   0.887
26410WAT     H279473   4.939   8.296   0.884
26411WAT      O79474   3.131   1.581   4.073
26411WAT     H179475   3.122   1.490   4.031
26411WAT     H279476   3.168   1.572   4.165
26412WAT      O79477   6.936   3.827   6.844
26412WAT     H179478   6.954   3.823   6.745
26412WAT     H279479   6.957   3.738   6.885
26413WAT      O79480   6.489   4.448   3.935
26413WAT     H179481   6.434   4.365   3.950
26413WAT     H279482   6.438   4.527   3.968
26414WAT      O79483   1.538   4.433   0.587
26414WAT     H179484   1.632   4.405   0.606
26414WAT     H279485   1.484   4.353   0.561
26415WAT      O79486   7.598   6.130   2.974
26415WAT     H179487   7.510   6.177   2.966
26415WAT     H279488   7.587   6.050   3.033
26416WAT      O79489   0.775   1.299   1.696
26416WAT     H179490   0.817   1.335   1.780
26416WAT     H279491   0.690   1.349   1.678
26417WAT      O79492   8.147   7.067   9.734
26417WAT     H179493   8.169   7.055   9.637
26417WAT     H279494   8.228   7.049   9.789
26418WAT      O79495   7.952   8.921   4.377
26418WAT     H179496   7.997   8.846   4.330
26418WAT     H279497   7.952   8.903   4.476
26419WAT      O79498   1.001   5.745   8.935
26419WAT     H179499   1.020   5.648   8.952
26419WAT     H279500   1.010   5.796   9.020
26420WAT      O79501   1.022   6.303   6.850
26420WAT     H179502   0.947   6.326   6.788
26420WAT     H279503   1.017   6.206   6.875
26421WAT      O79504   7.292   9.675   3.688
26421WAT     H179505   7.301   9.576   3.687
26421WAT     H279506   7.283   9.708   3.594
26422WAT      O79507   3.127   2.854   9.287
26422WAT     H179508   3.192   2.848   9.210
26422WAT     H279509   3.177   2.848   9.373
26423WAT      O79510   8.643   1.867   9.197
26423WAT     H179511   8.699   1.790   9.168
26423WAT     H279512   8.657   1.943   9.133
26424WAT      O79513   7.303   0.709   3.258
26424WAT     H179514   7.268   0.643   3.325
26424WAT     H279515   7.401   0.719   3.270
26425WAT      O79516   2.416   7.641   8.665
26425WAT     H179517   2.342   7.704   8.685
26425WAT     H279518   2.487   7.688   8.613
26426WAT      O79519   2.951   2.510   9.895
26426WAT     H179520   2.998   2.533   9.809
26426WAT     H279521   2.858   2.478   9.875
26427WAT      O79522   2.453   0.371   5.730
26427WAT     H179523   2.425   0.434   5.802
26427WAT     H279524   2.375   0.315   5.703
26428WAT      O79525   7.456   6.249   0.537
26428WAT     H179526   7.498   6.289   0.456
26428WAT     H279527   7.480   6.153   0.545
26429WAT      O79528   4.367   0.847   2.399
26429WAT     H179529   4.419   0.780   2.452
26429WAT     H279530   4.276   0.857   2.438
26430WAT      O79531   5.631   3.952   3.967
26430WAT     H179532   5.723   3.973   3.933
26430WAT     H279533   5.638   3.920   4.062
26431WAT      O79534   6.340   7.874   5.611
26431WAT     H179535   6.438   7.883   5.629
26431WAT     H279536   6.307   7.956   5.564
26432WAT      O79537   3.627   3.586   9.694
26432WAT     H179538   3.674   3.600   9.781
26432WAT     H279539   3.529   3.595   9.707
26433WAT      O79540   6.929   1.982   2.313
26433WAT     H179541   6.894   2.045   2.384
26433WAT     H279542   6.925   2.027   2.224
26434WAT      O79543   0.728   4.763   3.078
26434WAT     H179544   0.689   4.769   2.987
26434WAT     H279545   0.819   4.723   3.073
26435WAT      O79546   7.903   3.306   3.346
26435WAT     H179547   7.999   3.313   3.321
26435WAT     H279548   7.876   3.387   3.399
26436WAT      O79549   0.877   1.984   5.500
26436WAT     H179550   0.891   1.958   5.595
26436WAT     H279551   0.966   2.002   5.457
26437WAT      O79552   6.820   4.604   2.531
26437WAT     H179553   6.824   4.515   2.486
26437WAT     H279554   6.911   4.630   2.561
26438WAT      O79555   5.199   3.295   7.735
26438WAT     H179556   5.123   3.334   7.683
26438WAT     H279557   5.221   3.204   7.699
26439WAT      O79558   1.411   2.777   4.587
26439WAT     H179559   1.377   2.869   4.609
26439WAT     H279560   1.457   2.780   4.499
26440WAT      O79561   4.042   5.789   4.753
26440WAT     H179562   4.128   5.799   4.802
26440WAT     H279563   4.027   5.692   4.733
26441WAT      O79564   1.766   1.419   2.901
26441WAT     H179565   1.857   1.392   2.933
26441WAT     H279566   1.764   1.518   2.889
26442WAT      O79567   7.196   6.895   8.961
26442WAT     H179568   7.123   6.882   8.894
26442WAT     H279569   7.160   6.882   9.053
26443WAT      O79570   8.810   9.043   4.341
26443WAT     H179571   8.863   8.960   4.322
26443WAT     H279572   8.723   9.038   4.291
26444WAT      O79573   8.218   2.900   6.674
26444WAT     H179574   8.147   2.922   6.741
26444WAT     H279575   8.182   2.917   6.582
26445WAT      O79576   8.444   4.306   2.957
26445WAT     H179577   8.358   4.259   2.936
26445WAT     H279578   8.451   4.320   3.056
26446WAT      O79579   1.433   9.241   9.663
26446WAT     H179580   1.503   9.173   9.682
26446WAT     H279581   1.472   9.316   9.611
26447WAT      O79582   5.110   8.808   9.891
26447WAT     H179583   5.060   8.793   9.805
26447WAT     H279584   5.171   8.731   9.908
26448WAT      O79585   1.639   4.341   3.408
26448WAT     H179586   1.663   4.421   3.354
26448WAT     H279587   1.557   4.298   3.370
26449WAT      O79588   4.721   9.248   3.482
26449WAT     H179589   4.816   9.227   3.460
26449WAT     H279590   4.705   9.234   3.580
26450WAT      O79591   7.992   3.551   6.794
26450WAT     H179592   7.973   3.643   6.759
26450WAT     H279593   7.917   3.490   6.769
26451WAT      O79594   7.793   1.511   3.398
26451WAT     H179595   7.766   1.426   3.353
26451WAT     H279596   7.754   1.588   3.349
26452WAT      O79597   4.887   6.799   2.881
26452WAT     H179598   4.955   6.734   2.913
26452WAT     H279599   4.922   6.845   2.798
26453WAT      O79600   1.549   8.037   9.880
26453WAT     H179601   1.538   7.966   9.950
26453WAT     H279602   1.643   8.037   9.847
26454WAT      O79603   6.152   5.382   0.433
26454WAT     H179604   6.231   5.361   0.377
26454WAT     H279605   6.071   5.392   0.375
26455WAT      O79606   8.701   3.925   2.158
26455WAT     H179607   8.790   3.965   2.135
26455WAT     H279608   8.638   3.937   2.081
26456WAT      O79609   9.203   0.646   2.090
26456WAT     H179610   9.195   0.713   2.017
26456WAT     H279611   9.259   0.684   2.164
26457WAT      O79612   9.510   8.242   6.862
26457WAT     H179613   9.568   8.299   6.920
26457WAT     H279614   9.416   8.275   6.866
26458WAT      O79615   9.291   9.046   8.626
26458WAT     H179616   9.343   9.101   8.690
26458WAT     H279617   9.219   9.102   8.584
26459WAT      O79618   0.693   5.181   1.660
26459WAT     H179619   0.626   5.135   1.602
26459WAT     H279620   0.646   5.244   1.722
26460WAT      O79621   7.862   6.326   7.032
26460WAT     H179622   7.949   6.326   7.081
26460WAT     H279623   7.859   6.248   6.969
26461WAT      O79624   0.293   0.011   7.392
26461WAT     H179625   0.362  -0.017   7.325
26461WAT     H279626   0.217   0.056   7.346
26462WAT      O79627   6.440   4.163   5.607
26462WAT     H179628   6.444   4.132   5.702
26462WAT     H279629   6.383   4.246   5.601
26463WAT      O79630   8.083   8.966   7.774
26463WAT     H179631   8.024   8.899   7.820
26463WAT     H279632   8.135   8.920   7.701
26464WAT      O79633   1.876   1.870   2.768
26464WAT     H179634   1.963   1.900   2.729
26464WAT     H279635   1.826   1.816   2.700
26465WAT      O79636   6.017   4.244   4.955
26465WAT     H179637   5.962   4.326   4.947
26465WAT     H279638   5.984   4.188   5.031
26466WAT      O79639   8.828   9.567   5.833
26466WAT     H179640   8.772   9.565   5.917
26466WAT     H279641   8.906   9.628   5.847
26467WAT      O79642   3.594   2.169   5.640
26467WAT     H179643   3.560   2.199   5.551
26467WAT     H279644   3.592   2.069   5.644
26468WAT      O79645   7.313   1.499   5.136
26468WAT     H179646   7.398   1.497   5.190
26468WAT     H279647   7.266   1.586   5.151
26469WAT      O79648   1.837   3.462   3.194
26469WAT     H179649   1.841   3.384   3.256
26469WAT     H279650   1.817   3.431   3.101
26470WAT      O79651   0.250   6.801   6.238
26470WAT     H179652   0.344   6.833   6.224
26470WAT     H279653   0.232   6.791   6.335
26471WAT      O79654   8.776   9.164   2.947
26471WAT     H179655   8.756   9.208   3.035
26471WAT     H279656   8.759   9.229   2.873
26472WAT      O79657   6.551   4.911   1.358
26472WAT     H179658   6.507   4.913   1.268
26472WAT     H279659   6.646   4.938   1.348
26473WAT      O79660   1.326   7.189   4.157
26473WAT     H179661   1.311   7.133   4.239
26473WAT     H279662   1.276   7.275   4.166
26474WAT      O79663   8.540   2.107   0.436
26474WAT     H179664   8.629   2.070   0.460
26474WAT     H279665   8.488   2.038   0.385
26475WAT      O79666   5.816   0.314   7.637
26475WAT     H179667   5.795   0.228   7.590
26475WAT     H279668   5.813   0.389   7.571
26476WAT      O79669   3.785   7.122   1.211
26476WAT     H179670   3.769   7.123   1.112
26476WAT     H279671   3.735   7.047   1.253
26477WAT      O79672   8.525   4.885   3.920
26477WAT     H179673   8.597   4.822   3.891
26477WAT     H279674   8.566   4.972   3.947
26478WAT      O79675   3.225   2.032   1.051
26478WAT     H179676   3.189   2.125   1.046
26478WAT     H279677   3.149   1.967   1.044
26479WAT      O79678   8.135   4.476   4.875
26479WAT     H179679   8.178   4.564   4.898
26479WAT     H279680   8.107   4.476   4.779
26480WAT      O79681   7.209   3.626   1.807
26480WAT     H179682   7.146   3.679   1.864
26480WAT     H279683   7.174   3.622   1.714
26481WAT      O79684   8.276   4.969   1.030
26481WAT     H179685   8.366   4.960   0.988
26481WAT     H279686   8.277   5.043   1.097
26482WAT      O79687   4.211   8.110   4.498
26482WAT     H179688   4.274   8.142   4.569
26482WAT     H279689   4.119   8.102   4.536
26483WAT      O79690   2.413   5.513   9.252
26483WAT     H179691   2.335   5.550   9.303
26483WAT     H279692   2.404   5.413   9.247
26484WAT      O79693   2.668   2.669   4.145
26484WAT     H179694   2.700   2.643   4.053
26484WAT     H279695   2.747   2.679   4.206
26485WAT      O79696   0.008   7.401   9.201
26485WAT     H179697   0.094   7.444   9.174
26485WAT     H279698  -0.025   7.342   9.128
26486WAT      O79699   1.984   6.334   8.183
26486WAT     H179700   2.069   6.294   8.148
26486WAT     H279701   1.968   6.302   8.276
26487WAT      O79702   1.390   6.408   6.523
26487WAT     H179703   1.484   6.400   6.555
26487WAT     H279704   1.327   6.396   6.600
26488WAT      O79705   1.510   4.734   8.702
26488WAT     H179706   1.438   4.664   8.707
26488WAT     H279707   1.570   4.726   8.781
26489WAT      O79708   3.009   3.382   7.549
26489WAT     H179709   2.990   3.388   7.451
26489WAT     H279710   3.025   3.474   7.585
26490WAT      O79711   8.514   1.653   0.807
26490WAT     H179712   8.441   1.721   0.797
26490WAT     H279713   8.555   1.634   0.718
26491WAT      O79714   2.904   5.143   5.985
26491WAT     H179715   2.865   5.060   5.945
26491WAT     H279716   2.890   5.142   6.084
26492WAT      O79717   2.248   7.086   4.472
26492WAT     H179718   2.291   7.005   4.432
26492WAT     H279719   2.306   7.122   4.546
26493WAT      O79720   1.452   0.464   2.451
26493WAT     H179721   1.384   0.488   2.382
26493WAT     H279722   1.408   0.415   2.526
26494WAT      O79723   9.864   0.513   1.530
26494WAT     H179724   9.921   0.592   1.510
26494WAT     H279725   9.891   0.436   1.473
26495WAT      O79726   4.783   5.894   8.273
26495WAT     H179727   4.862   5.860   8.221
26495WAT     H279728   4.737   5.966   8.221
26496WAT      O79729   5.289   3.698   4.701
26496WAT     H179730   5.260   3.605   4.725
26496WAT     H279731   5.330   3.698   4.610
26497WAT      O79732   6.057   4.649   2.187
26497WAT     H179733   6.130   4.590   2.223
26497WAT     H279734   6.089   4.695   2.105
26498WAT      O79735   7.421   2.622   1.740
26498WAT     H179736   7.335   2.579   1.767
26498WAT     H279737   7.482   2.553   1.702
26499WAT      O79738   4.678   2.316   5.161
26499WAT     H179739   4.691   2.218   5.177
26499WAT     H279740   4.581   2.337   5.156
26500WAT      O79741   9.189   3.674   3.800
26500WAT     H179742   9.161   3.702   3.708
26500WAT     H279743   9.201   3.756   3.857
26501WAT      O79744   5.677   8.961   2.543
26501WAT     H179745   5.692   8.972   2.445
26501WAT     H279746   5.724   9.035   2.592
26502WAT      O79747   7.293   6.597   7.130
26502WAT     H179748   7.347   6.547   7.063
26502WAT     H279749   7.316   6.694   7.127
26503WAT      O79750   6.608   8.535   6.349
26503WAT     H179751   6.642   8.508   6.439
26503WAT     H279752   6.516   8.497   6.334
26504WAT      O79753   0.941   6.891   8.611
26504WAT     H179754   0.962   6.973   8.666
26504WAT     H279755   1.027   6.850   8.580
26505WAT      O79756   2.448   9.576   8.464
26505WAT     H179757   2.488   9.488   8.489
26505WAT     H279758   2.354   9.581   8.498
26506WAT      O79759   0.608   3.592   8.587
26506WAT     H179760   0.636   3.625   8.677
26506WAT     H279761   0.645   3.652   8.516
26507WAT      O79762   2.394   9.107   5.286
26507WAT     H179763   2.434   9.106   5.378
26507WAT     H279764   2.369   9.013   5.260
26508WAT      O79765   8.296   8.405   2.344
26508WAT     H179766   8.331   8.390   2.251
26508WAT     H279767   8.196   8.406   2.342
26509WAT      O79768   9.612   9.820   1.026
26509WAT     H179769   9.512   9.819   1.032
26509WAT     H279770   9.651   9.775   1.107
26510WAT      O79771   3.862   8.925   1.075
26510WAT     H179772   3.872   9.025   1.071
26510WAT     H279773   3.947   8.885   1.109
26511WAT      O79774   4.597   8.313   5.213
26511WAT     H179775   4.528   8.382   5.235
26511WAT     H279776   4.657   8.299   5.292
26512WAT      O79777   6.853   6.157   6.395
26512WAT     H179778   6.818   6.171   6.303
26512WAT     H279779   6.778   6.163   6.461
26513WAT      O79780   5.095   7.847   0.544
26513WAT     H179781   5.026   7.895   0.490
26513WAT     H279782   5.146   7.913   0.599
26514WAT      O79783   3.456   9.205   9.241
26514WAT     H179784   3.468   9.151   9.325
26514WAT     H279785   3.435   9.144   9.165
26515WAT      O79786   8.515   5.443   0.613
26515WAT     H179787   8.546   5.515   0.550
26515WAT     H279788   8.415   5.436   0.609
26516WAT      O79789   8.178   0.634   5.554
26516WAT     H179790   8.247   0.697   5.591
26516WAT     H279791   8.166   0.652   5.456
26517WAT      O79792   1.141   3.697   5.774
26517WAT     H179793   1.119   3.635   5.698
26517WAT     H279794   1.070   3.693   5.843
26518WAT      O79795   7.717   9.618   0.229
26518WAT     H179796   7.698   9.698   0.173
26518WAT     H279797   7.781   9.642   0.303
26519WAT      O79798   7.507   0.491   6.417
26519WAT     H179799   7.471   0.506   6.509
26519WAT     H279800   7.459   0.416   6.373
26520WAT      O79801   6.537   5.918   3.451
26520WAT     H179802   6.614   5.869   3.491
26520WAT     H279803   6.455   5.900   3.505
26521WAT      O79804   5.370   2.138   0.486
26521WAT     H179805   5.442   2.120   0.419
26521WAT     H279806   5.325   2.052   0.510
26522WAT      O79807   3.532   9.373   7.100
26522WAT     H179808   3.520   9.312   7.179
26522WAT     H279809   3.527   9.468   7.130
26523WAT      O79810   8.474   6.048   7.361
26523WAT     H179811   8.552   6.007   7.313
26523WAT     H279812   8.507   6.122   7.421
26524WAT      O79813   9.792   6.735   6.961
26524WAT     H179814   9.884   6.696   6.960
26524WAT     H279815   9.798   6.833   6.980
26525WAT      O79816   2.073   0.203   0.230
26525WAT     H179817   1.988   0.256   0.223
26525WAT     H279818   2.121   0.205   0.143
26526WAT      O79819   9.371   6.902   3.489
26526WAT     H179820   9.426   6.877   3.569
26526WAT     H279821   9.429   6.898   3.407
26527WAT      O79822   0.098   9.563   2.040
26527WAT     H179823   0.106   9.474   2.086
26527WAT     H279824   0.179   9.617   2.060
26528WAT      O79825   7.847   7.262   2.010
26528WAT     H179826   7.796   7.254   1.924
26528WAT     H279827   7.939   7.225   1.998
26529WAT      O79828   9.442   5.141   0.608
26529WAT     H179829   9.399   5.192   0.534
26529WAT     H279830   9.493   5.203   0.667
26530WAT      O79831   9.494   8.079   6.657
26530WAT     H179832   9.398   8.098   6.639
26530WAT     H279833   9.528   8.141   6.728
26531WAT      O79834   0.065   7.416   9.649
26531WAT     H179835   0.053   7.341   9.583
26531WAT     H279836   0.011   7.396   9.731
26532WAT      O79837   2.523   1.069   1.689
26532WAT     H179838   2.496   0.983   1.646
26532WAT     H279839   2.521   1.142   1.621
26533WAT      O79840   8.406   2.465   2.984
26533WAT     H179841   8.482   2.455   3.049
26533WAT     H279842   8.379   2.562   2.979
26534WAT      O79843   1.969   7.574   6.142
26534WAT     H179844   2.048   7.601   6.088
26534WAT     H279845   1.894   7.549   6.082
26535WAT      O79846   9.207   2.556   5.175
26535WAT     H179847   9.175   2.592   5.263
26535WAT     H279848   9.152   2.595   5.101
26536WAT      O79849   7.913   0.021   4.807
26536WAT     H179850   7.830   0.026   4.750
26536WAT     H279851   7.887   0.024   4.903
26537WAT      O79852   3.907   1.935   7.916
26537WAT     H179853   3.885   1.888   8.001
26537WAT     H279854   3.882   1.877   7.839
26538WAT      O79855   4.352   3.119   3.878
26538WAT     H179856   4.433   3.176   3.869
26538WAT     H279857   4.377   3.023   3.865
26539WAT      O79858   4.131   2.244   1.265
26539WAT     H179859   4.169   2.154   1.244
26539WAT     H279860   4.205   2.311   1.270
26540WAT      O79861   2.153   7.065   6.252
26540WAT     H179862   2.237   7.107   6.216
26540WAT     H279863   2.110   7.128   6.316
26541WAT      O79864   9.643   2.517   4.668
26541WAT     H179865   9.610   2.424   4.685
26541WAT     H279866   9.566   2.576   4.645
26542WAT      O79867   2.279   8.458   9.201
26542WAT     H179868   2.368   8.442   9.243
26542WAT     H279869   2.288   8.456   9.101
26543WAT      O79870   3.364   6.934   6.329
26543WAT     H179871   3.438   6.927   6.396
26543WAT     H279872   3.396   6.985   6.249
26544WAT      O79873   3.147   6.541   2.619
26544WAT     H179874   3.136   6.511   2.524
26544WAT     H279875   3.229   6.598   2.626
26545WAT      O79876   2.420   7.268   7.918
26545WAT     H179877   2.397   7.275   7.821
26545WAT     H279878   2.336   7.257   7.972
26546WAT      O79879   2.117   5.988   4.366
26546WAT     H179880   2.150   5.958   4.455
26546WAT     H279881   2.029   5.945   4.347
26547WAT      O79882   1.304   7.477   8.517
26547WAT     H179883   1.256   7.480   8.430
26547WAT     H279884   1.353   7.391   8.525
26548WAT      O79885   1.865   4.067   3.972
26548WAT     H179886   1.820   4.156   3.966
26548WAT     H279887   1.819   4.011   4.040
26549WAT      O79888   6.152   5.775   0.504
26549WAT     H179889   6.154   5.702   0.573
26549WAT     H279890   6.193   5.858   0.541
26550WAT      O79891   4.447   5.742   2.994
26550WAT     H179892   4.354   5.714   2.971
26550WAT     H279893   4.446   5.837   3.027
26551WAT      O79894   3.372   4.359   1.782
26551WAT     H179895   3.456   4.351   1.727
26551WAT     H279896   3.383   4.308   1.867
26552WAT      O79897   7.369   9.645   0.323
26552WAT     H179898   7.413   9.601   0.402
26552WAT     H279899   7.308   9.580   0.279
26553WAT      O79900   4.727   9.555   0.414
26553WAT     H179901   4.777   9.521   0.493
26553WAT     H279902   4.636   9.513   0.412
26554WAT      O79903   9.885   4.958   3.618
26554WAT     H179904   9.797   5.005   3.632
26554WAT     H279905   9.931   4.947   3.706
26555WAT      O79906   8.182   5.316   6.132
26555WAT     H179907   8.204   5.236   6.188
26555WAT     H279908   8.190   5.292   6.035
26556WAT      O79909   0.976   2.001   0.511
26556WAT     H179910   0.878   2.015   0.525
26556WAT     H279911   1.015   1.958   0.593
26557WAT      O79912   6.473   7.468   4.275
26557WAT     H179913   6.492   7.517   4.360
26557WAT     H279914   6.426   7.530   4.211
26558WAT      O79915   4.836   5.539   4.077
26558WAT     H179916   4.884   5.471   4.133
26558WAT     H279917   4.889   5.555   3.994
26559WAT      O79918   7.071   9.449   8.877
26559WAT     H179919   7.171   9.449   8.888
26559WAT     H279920   7.037   9.356   8.878
26560WAT      O79921   0.963   2.199   4.544
26560WAT     H179922   0.988   2.188   4.448
26560WAT     H279923   0.865   2.184   4.555
26561WAT      O79924   7.707   2.864   0.752
26561WAT     H179925   7.699   2.796   0.680
26561WAT     H279926   7.800   2.863   0.789
26562WAT      O79927   2.269   2.415   7.054
26562WAT     H179928   2.189   2.470   7.075
26562WAT     H279929   2.258   2.371   6.965
26563WAT      O79930   1.126   3.552   5.554
26563WAT     H179931   1.064   3.591   5.486
26563WAT     H279932   1.185   3.485   5.510
26564WAT      O79933   3.700   4.615   1.338
26564WAT     H179934   3.669   4.520   1.346
26564WAT     H279935   3.743   4.628   1.249
26565WAT      O79936   9.008   9.132   3.465
26565WAT     H179937   8.911   9.144   3.443
26565WAT     H279938   9.060   9.124   3.381
26566WAT      O79939   2.448   4.451   9.778
26566WAT     H179940   2.368   4.441   9.719
26566WAT     H279941   2.495   4.363   9.787
26567WAT      O79942   9.270   5.869   8.998
26567WAT     H179943   9.320   5.922   8.930
26567WAT     H279944   9.324   5.861   9.081
26568WAT      O79945   9.542   9.414   4.893
26568WAT     H179946   9.461   9.398   4.837
26568WAT     H279947   9.551   9.342   4.961
26569WAT      O79948   6.755   6.393   6.974
26569WAT     H179949   6.772   6.309   7.025
26569WAT     H279950   6.768   6.376   6.876
26570WAT      O79951   0.469   3.561   6.370
26570WAT     H179952   0.407   3.629   6.331
26570WAT     H279953   0.496   3.590   6.462
26571WAT      O79954   8.630   6.954   2.873
26571WAT     H179955   8.631   7.031   2.810
26571WAT     H279956   8.646   6.987   2.966
26572WAT      O79957   9.270   0.518   7.869
26572WAT     H179958   9.370   0.526   7.870
26572WAT     H279959   9.234   0.570   7.792
26573WAT      O79960   7.953   6.413   4.926
26573WAT     H179961   7.906   6.480   4.869
26573WAT     H279962   7.998   6.345   4.868
26574WAT      O79963   3.900   7.726   8.359
26574WAT     H179964   3.820   7.786   8.362
26574WAT     H279965   3.981   7.779   8.333
26575WAT      O79966   1.781   6.098   6.230
26575WAT     H179967   1.719   6.134   6.300
26575WAT     H279968   1.814   6.172   6.173
26576WAT      O79969   5.186   3.332   0.102
26576WAT     H179970   5.196   3.396   0.026
26576WAT     H279971   5.141   3.249   0.070
26577WAT      O79972   8.852   0.079   9.800
26577WAT     H179973   8.763   0.114   9.829
26577WAT     H279974   8.846  -0.020   9.787
26578WAT      O79975   3.999   2.348   8.986
26578WAT     H179976   3.915   2.310   8.948
26578WAT     H279977   3.983   2.443   9.013
26579WAT      O79978   2.926   4.804   6.628
26579WAT     H179979   2.942   4.843   6.719
26579WAT     H279980   2.900   4.708   6.636
26580WAT      O79981   1.835   1.806   8.327
26580WAT     H179982   1.816   1.764   8.238
26580WAT     H279983   1.875   1.738   8.388
26581WAT      O79984   9.436   8.065   0.778
26581WAT     H179985   9.438   8.098   0.684
26581WAT     H279986   9.491   8.126   0.836
26582WAT      O79987   1.129   8.420   6.502
26582WAT     H179988   1.187   8.426   6.420
26582WAT     H279989   1.100   8.325   6.515
26583WAT      O79990   3.568   8.475   1.562
26583WAT     H179991   3.602   8.404   1.624
26583WAT     H279992   3.468   8.480   1.569
26584WAT      O79993   7.504   6.881   6.601
26584WAT     H179994   7.567   6.940   6.549
26584WAT     H279995   7.413   6.884   6.560
26585WAT      O79996   8.155   8.506   2.691
26585WAT     H179997   8.149   8.406   2.689
26585WAT     H279998   8.122   8.540   2.779
26586WAT      O79999   7.536   9.830   7.887
26586WAT     H180000   7.530   9.858   7.792
26586WAT     H280001   7.612   9.767   7.898
26587WAT      O80002   6.368   3.447   7.744
26587WAT     H180003   6.377   3.503   7.827
26587WAT     H280004   6.322   3.500   7.673
26588WAT      O80005   0.502   7.410   7.184
26588WAT     H180006   0.412   7.405   7.141
26588WAT     H280007   0.557   7.481   7.141
26589WAT      O80008   0.679   0.916   0.096
26589WAT     H180009   0.637   0.826   0.084
26589WAT     H280010   0.778   0.906   0.105
26590WAT      O80011   0.844   8.439   7.637
26590WAT     H180012   0.918   8.435   7.571
26590WAT     H280013   0.868   8.501   7.712
26591WAT      O80014   3.782   2.977   2.040
26591WAT     H180015   3.823   2.920   2.111
26591WAT     H280016   3.709   3.032   2.079
26592WAT      O80017   6.505   3.720   1.981
26592WAT     H180018   6.529   3.648   2.047
26592WAT     H280019   6.507   3.809   2.027
26593WAT      O80020   2.668   8.419   4.681
26593WAT     H180021   2.680   8.495   4.745
26593WAT     H280022   2.578   8.377   4.697
26594WAT      O80023   2.376   4.074   2.818
26594WAT     H180024   2.357   3.987   2.863
26594WAT     H280025   2.328   4.147   2.865
26595WAT      O80026   5.931   1.076   4.774
26595WAT     H180027   5.986   0.993   4.775
26595WAT     H280028   5.927   1.112   4.681
26596WAT      O80029   7.804   0.207   8.129
26596WAT     H180030   7.845   0.126   8.088
26596WAT     H280031   7.824   0.209   8.227
26597WAT      O80032   5.195   3.378   3.402
26597WAT     H180033   5.240   3.453   3.354
26597WAT     H280034   5.148   3.413   3.483
26598WAT      O80035   4.956   1.363   7.472
26598WAT     H180036   4.947   1.448   7.523
26598WAT     H280037   4.966   1.382   7.375
26599WAT      O80038   3.110   3.418   6.586
26599WAT     H180039   3.201   3.437   6.550
26599WAT     H280040   3.118   3.374   6.676
26600WAT      O80041   8.340   3.279   2.115
26600WAT     H180042   8.303   3.347   2.179
26600WAT     H280043   8.433   3.305   2.088
26601WAT      O80044   7.807   4.410   4.354
26601WAT     H180045   7.794   4.451   4.444
26601WAT     H280046   7.898   4.434   4.320
26602WAT      O80047   6.687   9.501   0.751
26602WAT     H180048   6.642   9.524   0.665
26602WAT     H280049   6.652   9.560   0.824
26603WAT      O80050   5.635   8.967   5.528
26603WAT     H180051   5.661   8.994   5.620
26603WAT     H280052   5.652   8.870   5.515
26604WAT      O80053   2.163   7.665   5.992
26604WAT     H180054   2.174   7.748   5.937
26604WAT     H280055   2.251   7.638   6.030
26605WAT      O80056   4.157   8.054   2.141
26605WAT     H180057   4.102   8.041   2.058
26605WAT     H280058   4.096   8.075   2.218
26606WAT      O80059   2.523   0.403   7.076
26606WAT     H180060   2.440   0.348   7.084
26606WAT     H280061   2.587   0.379   7.149
26607WAT      O80062   8.979   2.347   1.004
26607WAT     H180063   9.066   2.310   0.970
26607WAT     H280064   8.978   2.446   0.993
26608WAT      O80065   0.132   8.503   7.466
26608WAT     H180066   0.091   8.510   7.558
26608WAT     H280067   0.153   8.407   7.447
26609WAT      O80068   3.706   8.837   8.708
26609WAT     H180069   3.715   8.768   8.780
26609WAT     H280070   3.786   8.898   8.710
26610WAT      O80071   5.231   8.312   0.803
26610WAT     H180072   5.222   8.316   0.704
26610WAT     H280073   5.318   8.352   0.830
26611WAT      O80074   9.881   0.610   7.551
26611WAT     H180075   9.978   0.628   7.568
26611WAT     H280076   9.825   0.667   7.611
26612WAT      O80077   8.083   0.259   3.528
26612WAT     H180078   8.126   0.340   3.486
26612WAT     H280079   8.098   0.262   3.627
26613WAT      O80080   0.184   5.940   1.248
26613WAT     H180081   0.212   6.013   1.186
26613WAT     H280082   0.088   5.916   1.230
26614WAT      O80083   1.731   6.448   0.406
26614WAT     H180084   1.686   6.386   0.342
26614WAT     H280085   1.674   6.461   0.487
26615WAT      O80086   6.683   9.174   7.712
26615WAT     H180087   6.587   9.148   7.719
26615WAT     H280088   6.689   9.272   7.690
26616WAT      O80089   1.423   4.775   1.427
26616WAT     H180090   1.396   4.680   1.411
26616WAT     H280091   1.370   4.835   1.366
26617WAT      O80092   2.012   7.265   5.818
26617WAT     H180093   1.981   7.172   5.841
26617WAT     H280094   1.933   7.327   5.820
26618WAT      O80095   3.192   1.395   5.619
26618WAT     H180096   3.168   1.492   5.617
26618WAT     H280097   3.114   1.342   5.654
26619WAT      O80098   4.054   1.759   5.087
26619WAT     H180099   3.981   1.740   5.153
26619WAT     H280100   4.049   1.854   5.058
26620WAT      O80101   9.075   2.048   9.609
26620WAT     H180102   9.163   2.046   9.656
26620WAT     H280103   9.048   1.955   9.584
26621WAT      O80104   0.721   6.657   1.392
26621WAT     H180105   0.668   6.702   1.463
26621WAT     H280106   0.813   6.696   1.389
26622WAT      O80107   3.488   7.058   8.341
26622WAT     H180108   3.502   6.959   8.348
26622WAT     H280109   3.538   7.093   8.262
26623WAT      O80110   7.692   3.010   5.195
26623WAT     H180111   7.635   3.009   5.277
26623WAT     H280112   7.671   3.090   5.140
26624WAT      O80113   3.030   3.413   0.486
26624WAT     H180114   2.946   3.447   0.528
26624WAT     H280115   3.109   3.456   0.530
26625WAT      O80116   1.910   0.234   8.215
26625WAT     H180117   1.835   0.205   8.156
26625WAT     H280118   1.997   0.212   8.170
26626WAT      O80119   8.604   9.109   2.078
26626WAT     H180120   8.640   9.019   2.057
26626WAT     H280121   8.519   9.123   2.027
26627WAT      O80122   1.946   8.574   2.320
26627WAT     H180123   2.038   8.535   2.312
26627WAT     H280124   1.879   8.508   2.286
26628WAT      O80125   4.915   5.311   2.185
26628WAT     H180126   4.981   5.354   2.247
26628WAT     H280127   4.836   5.279   2.237
26629WAT      O80128   0.062   8.067   7.513
26629WAT     H180129  -0.032   8.100   7.520
26629WAT     H280130   0.088   8.025   7.600
26630WAT      O80131   3.291   5.937   7.342
26630WAT     H180132   3.222   5.915   7.411
26630WAT     H280133   3.382   5.930   7.383
26631WAT      O80134   2.902   7.998   9.122
26631WAT     H180135   2.844   7.957   9.192
26631WAT     H280136   2.872   7.968   9.031
26632WAT      O80137   3.053   4.200   3.388
26632WAT     H180138   3.090   4.107   3.384
26632WAT     H280139   2.998   4.210   3.471
26633WAT      O80140   2.447   2.068   4.258
26633WAT     H180141   2.357   2.033   4.234
26633WAT     H280142   2.438   2.147   4.318
26634WAT      O80143   6.317   4.680   6.547
26634WAT     H180144   6.366   4.701   6.631
26634WAT     H280145   6.281   4.587   6.551
26635WAT      O80146   8.811   5.074   4.933
26635WAT     H180147   8.800   5.071   4.834
26635WAT     H280148   8.908   5.062   4.956
26636WAT      O80149   6.403   9.403   8.042
26636WAT     H180150   6.377   9.494   8.074
26636WAT     H280151   6.500   9.388   8.060
26637WAT      O80152   5.298   2.445   6.083
26637WAT     H180153   5.300   2.427   5.985
26637WAT     H280154   5.332   2.537   6.101
26638WAT      O80155   4.579   4.958   1.539
26638WAT     H180156   4.668   4.914   1.523
26638WAT     H280157   4.551   4.943   1.634
26639WAT      O80158   1.053   8.461   6.777
26639WAT     H180159   1.123   8.428   6.840
26639WAT     H280160   1.090   8.463   6.684
26640WAT      O80161   7.945   0.958   3.273
26640WAT     H180162   7.934   1.034   3.337
26640WAT     H280163   7.864   0.952   3.214
26641WAT      O80164   2.646   5.591   6.743
26641WAT     H180165   2.649   5.676   6.795
26641WAT     H280166   2.613   5.610   6.650
26642WAT      O80167   2.648   2.815   7.527
26642WAT     H180168   2.741   2.777   7.525
26642WAT     H280169   2.620   2.830   7.622
26643WAT      O80170   5.896   3.846   8.057
26643WAT     H180171   5.866   3.779   7.989
26643WAT     H280172   5.993   3.865   8.045
26644WAT      O80173   7.131   7.745   2.974
26644WAT     H180174   7.090   7.665   2.930
26644WAT     H280175   7.096   7.753   3.067
26645WAT      O80176   0.680   4.935   8.085
26645WAT     H180177   0.652   5.015   8.033
26645WAT     H280178   0.636   4.936   8.175
26646WAT      O80179   1.668   8.987   6.898
26646WAT     H180180   1.614   8.956   6.975
26646WAT     H280181   1.627   8.954   6.813
26647WAT      O80182   5.974   8.201   4.717
26647WAT     H180183   5.984   8.281   4.777
26647WAT     H280184   6.061   8.151   4.715
26648WAT      O80185   9.255   5.567   1.857
26648WAT     H180186   9.170   5.514   1.851
26648WAT     H280187   9.255   5.639   1.787
26649WAT      O80188   1.857   2.328   2.289
26649WAT     H180189   1.820   2.346   2.198
26649WAT     H280190   1.789   2.280   2.344
26650WAT      O80191   4.866   8.468   6.503
26650WAT     H180192   4.883   8.514   6.416
26650WAT     H280193   4.856   8.370   6.488
26651WAT      O80194   1.090   1.593   3.579
26651WAT     H180195   1.096   1.605   3.480
26651WAT     H280196   1.116   1.677   3.625
26652WAT      O80197   4.427   1.205   7.276
26652WAT     H180198   4.494   1.235   7.343
26652WAT     H280199   4.392   1.285   7.225
26653WAT      O80200   4.179   7.189   3.512
26653WAT     H180201   4.167   7.189   3.413
26653WAT     H280202   4.175   7.095   3.546
26654WAT      O80203   8.012   8.488   2.416
26654WAT     H180204   7.978   8.430   2.490
26654WAT     H280205   7.954   8.477   2.336
26655WAT      O80206   2.311   0.657   4.516
26655WAT     H180207   2.346   0.591   4.450
26655WAT     H280208   2.360   0.743   4.507
26656WAT      O80209   3.391   1.680   6.183
26656WAT     H180210   3.368   1.601   6.240
26656WAT     H280211   3.324   1.753   6.197
26657WAT      O80212   6.859   9.674   3.861
26657WAT     H180213   6.823   9.580   3.858
26657WAT     H280214   6.953   9.672   3.895
26658WAT      O80215   5.312   8.088   6.306
26658WAT     H180216   5.361   8.091   6.393
26658WAT     H280217   5.238   8.155   6.306
26659WAT      O80218   4.287   6.255   9.595
26659WAT     H180219   4.234   6.182   9.639
26659WAT     H280220   4.295   6.234   9.497
26660WAT      O80221   3.899   2.332   1.170
26660WAT     H180222   3.905   2.424   1.132
26660WAT     H280223   3.989   2.303   1.202
26661WAT      O80224   1.264   8.086   6.183
26661WAT     H180225   1.303   8.106   6.093
26661WAT     H280226   1.164   8.092   6.178
26662WAT      O80227   3.457   2.320   9.581
26662WAT     H180228   3.512   2.392   9.623
26662WAT     H280229   3.361   2.330   9.608
26663WAT      O80230   9.187   7.858   0.290
26663WAT     H180231   9.126   7.838   0.213
26663WAT     H280232   9.249   7.932   0.264
26664WAT      O80233   9.240   5.953   1.238
26664WAT     H180234   9.266   5.913   1.326
26664WAT     H280235   9.261   5.888   1.164
26665WAT      O80236   4.615   1.038   8.990
26665WAT     H180237   4.551   1.000   8.923
26665WAT     H280238   4.602   1.137   8.996
26666WAT      O80239   7.816   7.335   2.873
26666WAT     H180240   7.863   7.420   2.898
26666WAT     H280241   7.878   7.277   2.820
26667WAT      O80242   2.969   3.772   1.268
26667WAT     H180243   2.928   3.860   1.293
26667WAT     H280244   2.901   3.700   1.277
26668WAT      O80245   4.587   6.014   7.961
26668WAT     H180246   4.519   6.061   7.904
26668WAT     H280247   4.630   6.079   8.024
26669WAT      O80248   7.890   9.223   6.572
26669WAT     H180249   7.817   9.154   6.571
26669WAT     H280250   7.882   9.279   6.654
26670WAT      O80251   4.268   4.659   1.444
26670WAT     H180252   4.335   4.590   1.418
26670WAT     H280253   4.274   4.676   1.542
26671WAT      O80254   3.690   4.232   5.272
26671WAT     H180255   3.644   4.254   5.358
26671WAT     H280256   3.673   4.304   5.205
26672WAT      O80257   3.760   8.496   7.122
26672WAT     H180258   3.802   8.408   7.098
26672WAT     H280259   3.822   8.548   7.180
26673WAT      O80260   1.623   9.496   6.672
26673WAT     H180261   1.525   9.479   6.660
26673WAT     H280262   1.673   9.459   6.594
26674WAT      O80263   3.488   8.454   0.233
26674WAT     H180264   3.481   8.422   0.139
26674WAT     H280265   3.550   8.532   0.237
26675WAT      O80266   3.941   2.723   0.155
26675WAT     H180267   3.992   2.694   0.074
26675WAT     H280268   3.996   2.705   0.237
26676WAT      O80269   6.205   3.214   6.133
26676WAT     H180270   6.164   3.228   6.043
26676WAT     H280271   6.172   3.284   6.196
26677WAT      O80272   5.808   5.734   1.875
26677WAT     H180273   5.852   5.646   1.861
26677WAT     H280274   5.775   5.740   1.970
26678WAT      O80275   8.148   6.108   4.113
26678WAT     H180276   8.178   6.190   4.161
26678WAT     H280277   8.153   6.123   4.015
26679WAT      O80278   1.484   6.295   6.249
26679WAT     H180279   1.469   6.392   6.271
26679WAT     H280280   1.530   6.251   6.326
26680WAT      O80281   1.292   1.337   8.799
26680WAT     H180282   1.246   1.344   8.710
26680WAT     H280283   1.312   1.429   8.833
26681WAT      O80284   5.613   9.445   1.830
26681WAT     H180285   5.655   9.357   1.810
26681WAT     H280286   5.633   9.471   1.925
26682WAT      O80287   6.024   4.073   0.982
26682WAT     H180288   5.964   4.115   1.050
26682WAT     H280289   5.994   4.099   0.890
26683WAT      O80290   0.043   7.537   0.790
26683WAT     H180291  -0.008   7.553   0.875
26683WAT     H280292  -0.014   7.564   0.712
26684WAT      O80293   3.517   9.766   7.436
26684WAT     H180294   3.615   9.765   7.418
26684WAT     H280295   3.485   9.861   7.438
26685WAT      O80296   4.030   3.647   7.123
26685WAT     H180297   3.938   3.666   7.089
26685WAT     H280298   4.074   3.732   7.148
26686WAT      O80299   8.229   8.928   4.732
26686WAT     H180300   8.279   8.980   4.663
26686WAT     H280301   8.183   8.991   4.795
26687WAT      O80302   9.536   4.176   3.046
26687WAT     H180303   9.440   4.203   3.052
26687WAT     H280304   9.555   4.102   3.110
26688WAT      O80305   7.457   5.630   5.093
26688WAT     H180306   7.424   5.552   5.040
26688WAT     H280307   7.484   5.704   5.030
26689WAT      O80308   3.034   0.587   5.101
26689WAT     H180309   2.979   0.639   5.166
26689WAT     H280310   3.043   0.639   5.016
26690WAT      O80311   9.220   6.205   4.053
26690WAT     H180312   9.301   6.191   3.996
26690WAT     H280313   9.180   6.116   4.076
26691WAT      O80314   5.337   9.515   8.031
26691WAT     H180315   5.242   9.534   8.009
26691WAT     H280316   5.382   9.598   8.064
26692WAT      O80317   7.415   4.212   1.961
26692WAT     H180318   7.404   4.214   2.060
26692WAT     H280319   7.381   4.125   1.926
26693WAT      O80320   3.996   5.537   4.669
26693WAT     H180321   3.920   5.473   4.679
26693WAT     H280322   4.027   5.538   4.574
26694WAT      O80323   5.225   3.672   0.304
26694WAT     H180324   5.274   3.755   0.331
26694WAT     H280325   5.277   3.624   0.234
26695WAT      O80326   2.316   4.881   1.374
26695WAT     H180327   2.318   4.808   1.306
26695WAT     H280328   2.235   4.938   1.360
26696WAT      O80329   8.723   9.819   6.660
26696WAT     H180330   8.646   9.777   6.709
26696WAT     H280331   8.688   9.868   6.580
26697WAT      O80332   8.371   4.712   0.387
26697WAT     H180333   8.380   4.810   0.374
26697WAT     H280334   8.438   4.664   0.330
26698WAT      O80335   8.669   1.087   7.267
26698WAT     H180336   8.574   1.112   7.251
26698WAT     H280337   8.697   1.116   7.358
26699WAT      O80338   1.202   0.287   2.140
26699WAT     H180339   1.114   0.239   2.139
26699WAT     H280340   1.245   0.278   2.050
26700WAT      O80341   8.226   6.274   5.043
26700WAT     H180342   8.284   6.227   5.109
26700WAT     H280343   8.223   6.220   4.958
26701WAT      O80344   7.203   6.500   3.851
26701WAT     H180345   7.136   6.559   3.805
26701WAT     H280346   7.253   6.552   3.919
26702WAT      O80347   4.487   4.249   6.186
26702WAT     H180348   4.510   4.338   6.227
26702WAT     H280349   4.571   4.205   6.154
26703WAT      O80350   3.097   8.058   1.511
26703WAT     H180351   3.094   8.158   1.511
26703WAT     H280352   3.035   8.023   1.442
26704WAT      O80353   2.865   8.121   2.754
26704WAT     H180354   2.825   8.031   2.769
26704WAT     H280355   2.809   8.191   2.799
26705WAT      O80356   5.152   8.576   0.516
26705WAT     H180357   5.118   8.591   0.423
26705WAT     H280358   5.079   8.535   0.571
26706WAT      O80359   8.659   3.081   2.537
26706WAT     H180360   8.562   3.100   2.524
26706WAT     H280361   8.675   2.982   2.529
26707WAT      O80362   5.047   1.529   9.261
26707WAT     H180363   5.112   1.520   9.336
26707WAT     H280364   5.048   1.623   9.227
26708WAT      O80365   6.010   3.064   7.778
26708WAT     H180366   6.029   3.159   7.801
26708WAT     H280367   6.074   3.032   7.708
26709WAT      O80368   5.087   8.338   9.252
26709WAT     H180369   5.184   8.332   9.275
26709WAT     H280370   5.066   8.432   9.223
26710WAT      O80371   9.806   6.134   1.993
26710WAT     H180372   9.836   6.042   2.017
26710WAT     H280373   9.846   6.160   1.905
26711WAT      O80374   6.035   6.504   9.138
26711WAT     H180375   6.103   6.451   9.187
26711WAT     H280376   5.948   6.500   9.187
26712WAT      O80377   3.703   8.887   2.633
26712WAT     H180378   3.603   8.886   2.638
26712WAT     H280379   3.741   8.875   2.724
26713WAT      O80380   1.849   4.335   6.664
26713WAT     H180381   1.802   4.396   6.600
26713WAT     H280382   1.947   4.353   6.661
26714WAT      O80383   9.662   4.786   4.646
26714WAT     H180384   9.593   4.808   4.715
26714WAT     H280385   9.715   4.707   4.676
26715WAT      O80386   1.239   7.293   0.275
26715WAT     H180387   1.298   7.366   0.310
26715WAT     H280388   1.155   7.333   0.238
26716WAT      O80389   3.791   8.111   1.573
26716WAT     H180390   3.731   8.161   1.635
26716WAT     H280391   3.737   8.049   1.517
26717WAT      O80392   3.431   1.756   0.759
26717WAT     H180393   3.429   1.685   0.688
26717WAT     H280394   3.494   1.728   0.832
26718WAT      O80395   6.179   1.084   4.415
26718WAT     H180396   6.237   1.149   4.465
26718WAT     H280397   6.162   1.003   4.471
26719WAT      O80398   8.909   0.076   2.403
26719WAT     H180399   8.811   0.068   2.390
26719WAT     H280400   8.956   0.061   2.316
26720WAT      O80401   0.526   5.201   5.882
26720WAT     H180402   0.479   5.121   5.846
26720WAT     H280403   0.622   5.200   5.853
26721WAT      O80404   8.182   1.118   4.030
26721WAT     H180405   8.142   1.162   3.949
26721WAT     H280406   8.276   1.092   4.010
26722WAT      O80407   5.695   8.428   3.666
26722WAT     H180408   5.717   8.331   3.680
26722WAT     H280409   5.705   8.451   3.569
26723WAT      O80410   4.484   2.512   0.854
26723WAT     H180411   4.419   2.439   0.832
26723WAT     H280412   4.441   2.577   0.916
26724WAT      O80413   4.974   7.578   3.311
26724WAT     H180414   4.961   7.622   3.222
26724WAT     H280415   4.896   7.517   3.330
26725WAT      O80416   1.749   4.082   6.730
26725WAT     H180417   1.790   4.173   6.727
26725WAT     H280418   1.688   4.071   6.651
26726WAT      O80419   2.219   2.246   6.056
26726WAT     H180420   2.253   2.208   5.970
26726WAT     H280421   2.254   2.193   6.133
26727WAT      O80422   7.829   8.675   1.728
26727WAT     H180423   7.893   8.669   1.805
26727WAT     H280424   7.877   8.653   1.644
26728WAT      O80425   6.075   1.340   0.251
26728WAT     H180426   6.145   1.382   0.309
26728WAT     H280427   5.996   1.315   0.307
26729WAT      O80428   5.024   2.569   7.739
26729WAT     H180429   4.962   2.531   7.671
26729WAT     H280430   4.980   2.566   7.829
26730WAT      O80431   5.436   1.943   9.103
26730WAT     H180432   5.493   1.999   9.163
26730WAT     H280433   5.349   1.923   9.148
26731WAT      O80434   1.871   9.396   8.004
26731WAT     H180435   1.797   9.366   8.064
26731WAT     H280436   1.950   9.423   8.059
26732WAT      O80437   2.467   2.146   8.053
26732WAT     H180438   2.562   2.115   8.065
26732WAT     H280439   2.406   2.081   8.098
26733WAT      O80440   3.266   1.272   2.432
26733WAT     H180441   3.247   1.356   2.382
26733WAT     H280442   3.228   1.194   2.382
26734WAT      O80443   7.666   6.250   3.278
26734WAT     H180444   7.714   6.264   3.191
26734WAT     H280445   7.730   6.213   3.346
26735WAT      O80446   1.122   7.381   9.710
26735WAT     H180447   1.072   7.450   9.657
26735WAT     H280448   1.068   7.354   9.789
26736WAT      O80449   6.964   1.548   8.375
26736WAT     H180450   7.042   1.591   8.331
26736WAT     H280451   6.895   1.618   8.397
26737WAT      O80452   4.332   0.281   4.781
26737WAT     H180453   4.319   0.310   4.876
26737WAT     H280454   4.248   0.299   4.729
26738WAT      O80455   3.336   3.644   4.435
26738WAT     H180456   3.303   3.580   4.365
26738WAT     H280457   3.376   3.724   4.391
26739WAT      O80458   5.052   0.819   0.219
26739WAT     H180459   5.063   0.812   0.120
26739WAT     H280460   5.103   0.898   0.253
26740WAT      O80461   6.158   3.726   4.439
26740WAT     H180462   6.147   3.781   4.356
26740WAT     H280463   6.169   3.787   4.518
26741WAT      O80464   6.192   4.463   0.174
26741WAT     H180465   6.146   4.374   0.171
26741WAT     H280466   6.147   4.521   0.242
26742WAT      O80467   6.377   6.133   7.521
26742WAT     H180468   6.469   6.147   7.485
26742WAT     H280469   6.312   6.192   7.473
26743WAT      O80470   9.629   6.713   4.918
26743WAT     H180471   9.681   6.628   4.907
26743WAT     H280472   9.535   6.691   4.947
26744WAT      O80473   9.541   0.545   3.146
26744WAT     H180474   9.568   0.639   3.168
26744WAT     H280475   9.502   0.542   3.054
26745WAT      O80476   5.650   7.516   6.964
26745WAT     H180477   5.626   7.518   6.866
26745WAT     H280478   5.708   7.437   6.983
26746WAT      O80479   3.868   6.008   5.102
26746WAT     H180480   3.780   5.984   5.059
26746WAT     H280481   3.864   6.102   5.136
26747WAT      O80482   0.940   4.316   6.433
26747WAT     H180483   0.914   4.391   6.372
26747WAT     H280484   1.036   4.292   6.417
26748WAT      O80485   3.278   4.030   1.517
26748WAT     H180486   3.263   3.968   1.594
26748WAT     H280487   3.278   3.978   1.432
26749WAT      O80488   4.496   2.570   9.024
26749WAT     H180489   4.436   2.597   9.100
26749WAT     H280490   4.582   2.537   9.061
26750WAT      O80491   2.274   4.006   0.946
26750WAT     H180492   2.357   4.007   1.001
26750WAT     H280493   2.211   3.937   0.982
26751WAT      O80494   1.219   7.816   5.053
26751WAT     H180495   1.148   7.837   5.120
26751WAT     H280496   1.203   7.724   5.015
26752WAT      O80497   7.015   7.342   1.126
26752WAT     H180498   7.022   7.420   1.064
26752WAT     H280499   6.940   7.283   1.096
26753WAT      O80500   4.805   9.374   1.715
26753WAT     H180501   4.751   9.292   1.695
26753WAT     H280502   4.745   9.452   1.728
26754WAT      O80503   9.717   4.103   1.747
26754WAT     H180504   9.777   4.182   1.756
26754WAT     H280505   9.711   4.056   1.836
26755WAT      O80506   2.496   3.783   7.687
26755WAT     H180507   2.527   3.876   7.663
26755WAT     H280508   2.407   3.788   7.732
26756WAT      O80509   2.185   5.104   3.315
26756WAT     H180510   2.282   5.109   3.293
26756WAT     H280511   2.174   5.063   3.406
26757WAT      O80512   5.693   5.566   4.012
26757WAT     H180513   5.711   5.472   3.984
26757WAT     H280514   5.598   5.590   3.989
26758WAT      O80515   8.296   8.367   2.039
26758WAT     H180516   8.295   8.267   2.034
26758WAT     H280517   8.390   8.399   2.042
26759WAT      O80518   6.289   9.524   5.002
26759WAT     H180519   6.309   9.491   4.909
26759WAT     H280520   6.207   9.479   5.036
26760WAT      O80521   7.963   5.228   1.573
26760WAT     H180522   8.056   5.255   1.550
26760WAT     H280523   7.935   5.150   1.516
26761WAT      O80524   0.707   3.529   5.449
26761WAT     H180525   0.676   3.448   5.400
26761WAT     H280526   0.655   3.539   5.533
26762WAT      O80527   2.055   0.551   5.860
26762WAT     H180528   1.998   0.563   5.779
26762WAT     H280529   2.028   0.468   5.908
26763WAT      O80530   5.612   5.603   0.988
26763WAT     H180531   5.664   5.619   0.904
26763WAT     H280532   5.640   5.669   1.057
26764WAT      O80533   3.094   1.185   1.078
26764WAT     H180534   3.000   1.207   1.103
26764WAT     H280535   3.101   1.088   1.053
26765WAT      O80536   9.149   5.425   0.113
26765WAT     H180537   9.182   5.341   0.069
26765WAT     H280538   9.162   5.502   0.052
26766WAT      O80539   2.866   7.041   4.963
26766WAT     H180540   2.966   7.040   4.960
26766WAT     H280541   2.834   7.005   5.050
26767WAT      O80542   8.752   1.523   9.887
26767WAT     H180543   8.680   1.589   9.865
26767WAT     H280544   8.817   1.564   9.950
26768WAT      O80545   4.775   7.332   0.512
26768WAT     H180546   4.871   7.308   0.497
26768WAT     H280547   4.731   7.353   0.424
26769WAT      O80548   6.385   2.827   3.223
26769WAT     H180549   6.312   2.759   3.234
26769WAT     H280550   6.403   2.870   3.311
26770WAT      O80551   2.223   5.404   9.064
26770WAT     H180552   2.212   5.369   9.157
26770WAT     H280553   2.270   5.492   9.067
26771WAT      O80554   8.990   2.866   7.376
26771WAT     H180555   9.035   2.952   7.354
26771WAT     H280556   8.968   2.817   7.292
26772WAT      O80557   4.839   5.189   0.995
26772WAT     H180558   4.891   5.269   1.026
26772WAT     H280559   4.900   5.110   0.989
26773WAT      O80560   8.613   1.942   3.010
26773WAT     H180561   8.583   1.990   3.092
26773WAT     H280562   8.562   1.857   3.000
26774WAT      O80563   9.846   9.563   3.431
26774WAT     H180564   9.789   9.517   3.499
26774WAT     H280565   9.914   9.499   3.396
26775WAT      O80566   5.668   0.862   7.180
26775WAT     H180567   5.607   0.855   7.101
26775WAT     H280568   5.618   0.899   7.258
26776WAT      O80569   4.031   6.932   1.324
26776WAT     H180570   4.124   6.966   1.310
26776WAT     H280571   3.969   6.976   1.259
26777WAT      O80572   7.023   2.450   6.566
26777WAT     H180573   6.966   2.528   6.594
26777WAT     H280574   6.983   2.407   6.485
26778WAT      O80575   6.447   3.438   3.027
26778WAT     H180576   6.410   3.370   3.090
26778WAT     H280577   6.541   3.414   3.003
26779WAT      O80578   6.617   7.490   0.324
26779WAT     H180579   6.638   7.416   0.261
26779WAT     H280580   6.523   7.522   0.308
26780WAT      O80581   0.487   6.355   7.867
26780WAT     H180582   0.406   6.319   7.912
26780WAT     H280583   0.463   6.437   7.815
26781WAT      O80584   9.001   7.868   0.100
26781WAT     H180585   8.907   7.832   0.100
26781WAT     H280586   9.037   7.867   0.007
26782WAT      O80587   8.253   8.508   5.117
26782WAT     H180588   8.205   8.422   5.136
26782WAT     H280589   8.208   8.583   5.166
26783WAT      O80590   6.496   5.279   2.352
26783WAT     H180591   6.483   5.183   2.328
26783WAT     H280592   6.533   5.328   2.273
26784WAT      O80593   2.384   9.586   9.174
26784WAT     H180594   2.409   9.614   9.081
26784WAT     H280595   2.463   9.595   9.234
26785WAT      O80596   9.802   4.278   9.751
26785WAT     H180597   9.876   4.278   9.684
26785WAT     H280598   9.837   4.245   9.839
26786WAT      O80599   7.123   7.490   4.581
26786WAT     H180600   7.099   7.580   4.617
26786WAT     H280601   7.161   7.434   4.654
26787WAT      O80602   3.114   9.660   8.981
26787WAT     H180603   3.016   9.641   8.992
26787WAT     H280604   3.126   9.749   8.938
26788WAT      O80605   3.389   0.558   8.008
26788WAT     H180606   3.472   0.568   7.953
26788WAT     H280607   3.358   0.463   8.004
26789WAT      O80608   5.713   7.747   6.436
26789WAT     H180609   5.711   7.735   6.535
26789WAT     H280610   5.678   7.664   6.392
26790WAT      O80611   5.507   7.142   0.963
26790WAT     H180612   5.488   7.227   0.914
26790WAT     H280613   5.577   7.090   0.914
26791WAT      O80614   2.641   1.486   1.315
26791WAT     H180615   2.623   1.408   1.257
26791WAT     H280616   2.734   1.481   1.351
26792WAT      O80617   6.764   5.534   7.753
26792WAT     H180618   6.863   5.539   7.740
26792WAT     H280619   6.721   5.619   7.723
26793WAT      O80620   1.411   1.913   7.922
26793WAT     H180621   1.384   1.869   8.008
26793WAT     H280622   1.332   1.920   7.862
26794WAT      O80623   1.294   9.804   0.714
26794WAT     H180624   1.380   9.770   0.750
26794WAT     H280625   1.276   9.895   0.751
26795WAT      O80626   5.647   5.510   5.481
26795WAT     H180627   5.615   5.418   5.457
26795WAT     H280628   5.702   5.505   5.564
26796WAT      O80629   5.058   3.925   0.919
26796WAT     H180630   5.007   3.966   0.995
26796WAT     H280631   4.994   3.877   0.859
26797WAT      O80632   7.746   6.428   9.568
26797WAT     H180633   7.691   6.364   9.514
26797WAT     H280634   7.840   6.428   9.534
26798WAT      O80635   7.826   9.523   2.453
26798WAT     H180636   7.802   9.564   2.365
26798WAT     H280637   7.749   9.468   2.486
26799WAT      O80638   7.107   6.189   4.482
26799WAT     H180639   7.167   6.258   4.440
26799WAT     H280640   7.046   6.151   4.413
26800WAT      O80641   7.925   3.190   7.642
26800WAT     H180642   8.019   3.168   7.669
26800WAT     H280643   7.895   3.272   7.690
26801WAT      O80644   4.472   4.613   8.762
26801WAT     H180645   4.476   4.532   8.704
26801WAT     H280646   4.515   4.690   8.715
26802WAT      O80647   7.014   4.166   8.594
26802WAT     H180648   7.023   4.071   8.623
26802WAT     H280649   7.104   4.211   8.600
26803WAT      O80650   0.858   0.806   2.892
26803WAT     H180651   0.790   0.871   2.856
26803WAT     H280652   0.949   0.846   2.886
26804WAT      O80653   0.988   2.171   7.431
26804WAT     H180654   0.988   2.205   7.525
26804WAT     H280655   1.051   2.226   7.376
26805WAT      O80656   7.108   0.619   0.554
26805WAT     H180657   7.145   0.526   0.562
26805WAT     H280658   7.031   0.630   0.616
26806WAT      O80659   5.716   4.776   5.096
26806WAT     H180660   5.808   4.812   5.079
26806WAT     H280661   5.649   4.848   5.077
26807WAT      O80662   7.728   6.997   8.700
26807WAT     H180663   7.789   6.978   8.777
26807WAT     H280664   7.693   7.090   8.707
26808WAT      O80665   5.696   7.621   1.483
26808WAT     H180666   5.610   7.663   1.456
26808WAT     H280667   5.715   7.543   1.424
26809WAT      O80668   4.160   3.101   0.219
26809WAT     H180669   4.253   3.085   0.254
26809WAT     H280670   4.094   3.058   0.280
26810WAT      O80671   5.743   0.044   8.798
26810WAT     H180672   5.682   0.116   8.829
26810WAT     H280673   5.806   0.019   8.872
26811WAT      O80674   1.569   7.915   5.170
26811WAT     H180675   1.522   7.912   5.082
26811WAT     H280676   1.575   8.010   5.202
26812WAT      O80677   5.923   3.888   7.043
26812WAT     H180678   5.846   3.931   6.995
26812WAT     H280679   5.952   3.807   6.992
26813WAT      O80680   9.766   1.643   5.143
26813WAT     H180681   9.807   1.587   5.214
26813WAT     H280682   9.672   1.613   5.127
26814WAT      O80683   4.394   0.650   4.460
26814WAT     H180684   4.377   0.739   4.502
26814WAT     H280685   4.442   0.591   4.525
26815WAT      O80686   6.119   3.259   0.638
26815WAT     H180687   6.133   3.271   0.736
26815WAT     H280688   6.205   3.229   0.595
26816WAT      O80689   4.539   4.980   9.673
26816WAT     H180690   4.627   4.999   9.717
26816WAT     H280691   4.547   4.989   9.574
26817WAT      O80692   4.700   7.137   1.561
26817WAT     H180693   4.757   7.218   1.567
26817WAT     H280694   4.694   7.106   1.466
26818WAT      O80695   7.674   2.463   7.028
26818WAT     H180696   7.624   2.397   7.084
26818WAT     H280697   7.610   2.528   6.988
26819WAT      O80698   9.039   0.364   0.120
26819WAT     H180699   9.043   0.431   0.046
26819WAT     H280700   8.965   0.387   0.182
26820WAT      O80701   4.984   6.209   2.499
26820WAT     H180702   5.043   6.248   2.569
26820WAT     H280703   4.898   6.259   2.496
26821WAT      O80704   1.168   3.086   3.947
26821WAT     H180705   1.232   3.066   4.021
26821WAT     H280706   1.097   3.149   3.981
26822WAT      O80707   5.331   3.115   4.701
26822WAT     H180708   5.419   3.162   4.688
26822WAT     H280709   5.301   3.076   4.614
26823WAT      O80710   6.753   8.213   2.637
26823WAT     H180711   6.738   8.122   2.676
26823WAT     H280712   6.681   8.233   2.569
26824WAT      O80713   1.946   0.511   4.382
26824WAT     H180714   1.950   0.604   4.420
26824WAT     H280715   2.038   0.484   4.352
26825WAT      O80716   2.499   5.028   5.007
26825WAT     H180717   2.520   5.102   5.071
26825WAT     H280718   2.578   4.967   4.999
26826WAT      O80719   7.199   8.409   6.439
26826WAT     H180720   7.283   8.434   6.391
26826WAT     H280721   7.122   8.418   6.377
26827WAT      O80722   5.154   0.189   3.976
26827WAT     H180723   5.122   0.273   3.932
26827WAT     H280724   5.162   0.117   3.907
26828WAT      O80725   2.108   5.552   3.079
26828WAT     H180726   2.061   5.464   3.066
26828WAT     H280727   2.131   5.590   2.989
26829WAT      O80728   4.907   9.262   2.305
26829WAT     H180729   4.859   9.305   2.228
26829WAT     H280730   4.977   9.200   2.270
26830WAT      O80731   3.379   0.106   8.163
26830WAT     H180732   3.362   0.184   8.103
26830WAT     H280733   3.293   0.078   8.206
26831WAT      O80734   1.770   8.633   5.513
26831WAT     H180735   1.797   8.538   5.497
26831WAT     H280736   1.673   8.637   5.534
26832WAT      O80737   9.715   1.150   7.732
26832WAT     H180738   9.777   1.154   7.810
26832WAT     H280739   9.639   1.213   7.747
26833WAT      O80740   6.239   4.719   8.641
26833WAT     H180741   6.203   4.809   8.617
26833WAT     H280742   6.201   4.690   8.729
26834WAT      O80743   6.908   4.122   4.249
26834WAT     H180744   6.958   4.082   4.326
26834WAT     H280745   6.953   4.095   4.163
26835WAT      O80746   7.327   0.423   7.250
26835WAT     H180747   7.401   0.490   7.249
26835WAT     H280748   7.239   0.470   7.253
26836WAT      O80749   6.283   7.099   9.854
26836WAT     H180750   6.289   7.192   9.890
26836WAT     H280751   6.339   7.092   9.772
26837WAT      O80752   3.343   4.314   2.601
26837WAT     H180753   3.295   4.398   2.627
26837WAT     H280754   3.371   4.320   2.505
26838WAT      O80755   4.465   0.754   7.514
26838WAT     H180756   4.383   0.733   7.462
26838WAT     H280757   4.450   0.835   7.570
26839WAT      O80758   3.417   1.619   0.496
26839WAT     H180759   3.432   1.655   0.404
26839WAT     H280760   3.350   1.544   0.493
26840WAT      O80761   9.135   2.921   4.883
26840WAT     H180762   9.137   2.914   4.783
26840WAT     H280763   9.040   2.926   4.914
26841WAT      O80764   6.740   3.558   0.870
26841WAT     H180765   6.699   3.639   0.912
26841WAT     H280766   6.711   3.477   0.920
26842WAT      O80767   5.010   6.281   1.394
26842WAT     H180768   5.063   6.270   1.310
26842WAT     H280769   4.923   6.232   1.385
26843WAT      O80770   8.886   2.695   6.383
26843WAT     H180771   8.969   2.711   6.329
26843WAT     H280772   8.846   2.607   6.357
26844WAT      O80773   6.645   8.938   5.551
26844WAT     H180774   6.642   8.964   5.455
26844WAT     H280775   6.699   9.005   5.602
26845WAT      O80776   6.514   1.539   4.729
26845WAT     H180777   6.444   1.565   4.662
26845WAT     H280778   6.512   1.440   4.743
26846WAT      O80779   7.886   9.693   0.838
26846WAT     H180780   7.977   9.653   0.831
26846WAT     H280781   7.818   9.621   0.850
26847WAT      O80782   0.782   5.831   8.299
26847WAT     H180783   0.881   5.849   8.306
26847WAT     H280784   0.736   5.872   8.378
26848WAT      O80785   5.879   3.980   3.732
26848WAT     H180786   5.887   4.052   3.801
26848WAT     H280787   5.839   4.018   3.649
26849WAT      O80788   7.298   8.493   9.364
26849WAT     H180789   7.279   8.542   9.450
26849WAT     H280790   7.212   8.473   9.318
26850WAT      O80791   7.949   7.088   2.423
26850WAT     H180792   7.896   7.036   2.356
26850WAT     H280793   7.945   7.185   2.400
26851WAT      O80794   5.130   9.385   3.957
26851WAT     H180795   5.061   9.331   3.909
26851WAT     H280796   5.085   9.454   4.014
26852WAT      O80797   0.392   9.724   2.455
26852WAT     H180798   0.301   9.711   2.417
26852WAT     H280799   0.397   9.815   2.497
26853WAT      O80800   5.577   7.827   8.032
26853WAT     H180801   5.567   7.784   7.942
26853WAT     H280802   5.538   7.919   8.029
26854WAT      O80803   0.833   2.028   4.770
26854WAT     H180804   0.883   1.944   4.793
26854WAT     H280805   0.775   2.054   4.847
26855WAT      O80806   5.552   9.646   1.644
26855WAT     H180807   5.557   9.588   1.726
26855WAT     H280808   5.630   9.708   1.642
26856WAT      O80809   6.218   1.034   9.630
26856WAT     H180810   6.173   0.968   9.570
26856WAT     H280811   6.300   0.993   9.670
26857WAT      O80812   3.685   1.198   2.736
26857WAT     H180813   3.764   1.242   2.692
26857WAT     H280814   3.612   1.185   2.669
26858WAT      O80815   7.562   5.185   9.275
26858WAT     H180816   7.603   5.114   9.218
26858WAT     H280817   7.552   5.269   9.222
26859WAT      O80818   4.898   3.962   0.540
26859WAT     H180819   4.922   3.962   0.443
26859WAT     H280820   4.799   3.966   0.550
26860WAT      O80821   4.948   1.615   4.861
26860WAT     H180822   4.904   1.678   4.924
26860WAT     H280823   5.048   1.621   4.872
26861WAT      O80824   0.937   6.036   0.722
26861WAT     H180825   0.869   5.995   0.662
26861WAT     H280826   0.906   6.028   0.817
26862WAT      O80827   6.678   2.807   2.161
26862WAT     H180828   6.635   2.765   2.241
26862WAT     H280829   6.764   2.850   2.189
26863WAT      O80830   1.968   4.839   6.390
26863WAT     H180831   1.981   4.938   6.384
26863WAT     H280832   2.051   4.795   6.424
26864WAT      O80833   8.791   0.064   8.905
26864WAT     H180834   8.797   0.013   8.819
26864WAT     H280835   8.832   0.011   8.979
26865WAT      O80836   0.374   4.681   1.955
26865WAT     H180837   0.319   4.731   2.022
26865WAT     H280838   0.313   4.638   1.888
26866WAT      O80839   6.659   5.546   6.712
26866WAT     H180840   6.560   5.563   6.717
26866WAT     H280841   6.695   5.536   6.804
26867WAT      O80842   1.395   8.771   6.897
26867WAT     H180843   1.454   8.696   6.867
26867WAT     H280844   1.437   8.816   6.976
26868WAT      O80845   5.847   5.520   3.053
26868WAT     H180846   5.883   5.600   3.102
26868WAT     H280847   5.806   5.457   3.118
26869WAT      O80848   4.554   1.716   8.658
26869WAT     H180849   4.651   1.698   8.673
26869WAT     H280850   4.544   1.801   8.605
26870WAT      O80851   8.646   2.862   3.644
26870WAT     H180852   8.726   2.814   3.608
26870WAT     H280853   8.676   2.935   3.705
26871WAT      O80854   2.017   0.295   2.447
26871WAT     H180855   1.943   0.229   2.462
26871WAT     H280856   2.009   0.336   2.357
26872WAT      O80857   4.060   6.596   0.810
26872WAT     H180858   4.064   6.502   0.843
26872WAT     H280859   4.083   6.659   0.884
26873WAT      O80860   1.994   7.016   9.825
26873WAT     H180861   2.002   7.068   9.910
26873WAT     H280862   2.002   6.918   9.845
26874WAT      O80863   5.517   8.737   3.598
26874WAT     H180864   5.528   8.831   3.628
26874WAT     H280865   5.483   8.681   3.674
26875WAT      O80866   9.864   4.751   4.413
26875WAT     H180867   9.782   4.714   4.459
26875WAT     H280868   9.940   4.754   4.478
26876WAT      O80869   6.357   1.982   6.929
26876WAT     H180870   6.270   2.012   6.889
26876WAT     H280871   6.339   1.925   7.009
26877WAT      O80872   0.873   0.370   5.935
26877WAT     H180873   0.776   0.393   5.939
26877WAT     H280874   0.913   0.407   5.851
26878WAT      O80875   5.781   8.875   0.950
26878WAT     H180876   5.703   8.903   0.895
26878WAT     H280877   5.802   8.779   0.934
26879WAT      O80878   0.440   1.457   7.561
26879WAT     H180879   0.418   1.494   7.651
26879WAT     H280880   0.514   1.390   7.569
26880WAT      O80881   6.879   5.062   0.211
26880WAT     H180882   6.972   5.041   0.181
26880WAT     H280883   6.881   5.100   0.303
26881WAT      O80884   1.939   5.842   5.982
26881WAT     H180885   1.966   5.768   6.044
26881WAT     H280886   1.982   5.828   5.893
26882WAT      O80887   5.984   4.921   7.949
26882WAT     H180888   6.021   4.919   8.042
26882WAT     H280889   6.010   5.007   7.905
26883WAT      O80890   5.910   2.886   9.766
26883WAT     H180891   5.940   2.796   9.733
26883WAT     H280892   5.971   2.916   9.840
26884WAT      O80893   4.241   7.167   1.250
26884WAT     H180894   4.223   7.222   1.168
26884WAT     H280895   4.227   7.224   1.331
26885WAT      O80896   4.969   5.957   9.747
26885WAT     H180897   4.966   5.913   9.837
26885WAT     H280898   4.993   5.890   9.677
26886WAT      O80899   3.182   5.324   1.703
26886WAT     H180900   3.245   5.308   1.628
26886WAT     H280901   3.190   5.251   1.771
26887WAT      O80902   8.428   8.527   4.894
26887WAT     H180903   8.389   8.499   4.981
26887WAT     H280904   8.447   8.625   4.895
26888WAT      O80905   1.692   0.199   8.020
26888WAT     H180906   1.723   0.214   7.926
26888WAT     H280907   1.670   0.103   8.032
26889WAT      O80908   1.277   6.292   2.718
26889WAT     H180909   1.347   6.269   2.650
26889WAT     H280910   1.221   6.367   2.682
26890WAT      O80911   3.002   3.392   5.999
26890WAT     H180912   3.043   3.392   6.091
26890WAT     H280913   2.904   3.408   6.006
26891WAT      O80914   2.129   1.736   1.885
26891WAT     H180915   2.089   1.824   1.859
26891WAT     H280916   2.224   1.733   1.855
26892WAT      O80917   0.358   1.128   6.676
26892WAT     H180918   0.424   1.071   6.627
26892WAT     H280919   0.386   1.137   6.772
26893WAT      O80920   3.342   5.479   4.769
26893WAT     H180921   3.294   5.567   4.770
26893WAT     H280922   3.423   5.485   4.827
26894WAT      O80923   9.764   7.779   9.086
26894WAT     H180924   9.692   7.709   9.083
26894WAT     H280925   9.733   7.857   9.140
26895WAT      O80926   9.236   6.548   3.266
26895WAT     H180927   9.267   6.519   3.176
26895WAT     H280928   9.137   6.540   3.272
26896WAT      O80929   6.614   9.774   4.215
26896WAT     H180930   6.617   9.748   4.119
26896WAT     H280931   6.647   9.868   4.226
26897WAT      O80932   1.811   8.591   9.462
26897WAT     H180933   1.887   8.585   9.398
26897WAT     H280934   1.767   8.502   9.470
26898WAT      O80935   2.277   9.620   2.005
26898WAT     H180936   2.338   9.542   1.994
26898WAT     H280937   2.186   9.587   2.030
26899WAT      O80938   3.942   0.069   8.378
26899WAT     H180939   3.999   0.039   8.302
26899WAT     H280940   3.905   0.160   8.358
26900WAT      O80941   3.971   8.299   1.834
26900WAT     H180942   4.069   8.320   1.842
26900WAT     H280943   3.949   8.221   1.893
26901WAT      O80944   4.774   7.583   2.794
26901WAT     H180945   4.846   7.589   2.863
26901WAT     H280946   4.697   7.529   2.830
26902WAT      O80947   5.045   2.624   8.993
26902WAT     H180948   5.029   2.581   9.082
26902WAT     H280949   5.071   2.554   8.926
26903WAT      O80950   2.593   7.180   5.157
26903WAT     H180951   2.583   7.278   5.174
26903WAT     H280952   2.651   7.166   5.077
26904WAT      O80953   6.129   9.268   4.659
26904WAT     H180954   6.129   9.368   4.651
26904WAT     H280955   6.141   9.242   4.755
26905WAT      O80956   4.204   5.095   4.350
26905WAT     H180957   4.256   5.153   4.414
26905WAT     H280958   4.113   5.134   4.336
26906WAT      O80959   3.386   3.151   8.656
26906WAT     H180960   3.341   3.138   8.568
26906WAT     H280961   3.373   3.069   8.712
26907WAT      O80962   2.506   0.706   4.148
26907WAT     H180963   2.442   0.745   4.081
26907WAT     H280964   2.547   0.780   4.200
26908WAT      O80965   1.500   8.831   2.807
26908WAT     H180966   1.441   8.825   2.726
26908WAT     H280967   1.588   8.788   2.788
26909WAT      O80968   8.988   5.323   4.403
26909WAT     H180969   8.890   5.310   4.383
26909WAT     H280970   9.006   5.295   4.497
26910WAT      O80971   8.356   7.490   7.160
26910WAT     H180972   8.280   7.551   7.137
26910WAT     H280973   8.443   7.538   7.150
26911WAT      O80974   8.736   1.578   7.272
26911WAT     H180975   8.704   1.654   7.328
26911WAT     H280976   8.784   1.512   7.329
26912WAT      O80977   8.322   3.364   2.381
26912WAT     H180978   8.279   3.432   2.441
26912WAT     H280979   8.408   3.401   2.345
26913WAT      O80980   3.136   5.074   0.029
26913WAT     H180981   3.155   5.167  -0.003
26913WAT     H280982   3.067   5.078   0.102
26914WAT      O80983   7.298   0.567   6.104
26914WAT     H180984   7.268   0.641   6.164
26914WAT     H280985   7.368   0.601   6.041
26915WAT      O80986   2.120   5.306   9.447
26915WAT     H180987   2.065   5.302   9.530
26915WAT     H280988   2.079   5.249   9.376
26916WAT      O80989   0.616   3.010   7.922
26916WAT     H180990   0.685   3.018   7.850
26916WAT     H280991   0.553   3.088   7.918
26917WAT      O80992   6.292   5.096   9.804
26917WAT     H180993   6.207   5.149   9.810
26917WAT     H280994   6.271   4.999   9.793
26918WAT      O80995   4.607   3.200   0.463
26918WAT     H180996   4.703   3.172   0.457
26918WAT     H280997   4.597   3.270   0.534
26919WAT      O80998   6.761   4.603   9.545
26919WAT     H180999   6.839   4.541   9.546
26919WAT     H281000   6.718   4.601   9.455
26920WAT      O81001   4.506   5.386   2.792
26920WAT     H181002   4.473   5.300   2.752
26920WAT     H281003   4.465   5.463   2.743
26921WAT      O81004   7.114   4.293   1.633
26921WAT     H181005   7.082   4.387   1.618
26921WAT     H281006   7.214   4.293   1.637
26922WAT      O81007   0.297   8.161   9.202
26922WAT     H181008   0.209   8.176   9.157
26922WAT     H281009   0.291   8.083   9.264
26923WAT      O81010   7.029   4.495   6.084
26923WAT     H181011   6.992   4.585   6.059
26923WAT     H281012   7.059   4.447   6.002
26924WAT      O81013   6.572   3.456   3.931
26924WAT     H181014   6.623   3.537   3.903
26924WAT     H281015   6.615   3.374   3.892
26925WAT      O81016   7.795   3.382   5.906
26925WAT     H181017   7.697   3.370   5.886
26925WAT     H281018   7.825   3.471   5.872
26926WAT      O81019   7.446   8.512   8.477
26926WAT     H181020   7.535   8.481   8.446
26926WAT     H281021   7.448   8.524   8.576
26927WAT      O81022   4.991   9.674   0.420
26927WAT     H181023   4.897   9.650   0.399
26927WAT     H281024   5.001   9.684   0.519
26928WAT      O81025   0.417   5.453   4.185
26928WAT     H181026   0.450   5.541   4.218
26928WAT     H281027   0.323   5.439   4.216
26929WAT      O81028   0.896   6.972   4.000
26929WAT     H181029   0.950   7.044   4.044
26929WAT     H281030   0.932   6.883   4.027
26930WAT      O81031   1.477   0.090   3.712
26930WAT     H181032   1.399   0.145   3.738
26930WAT     H281033   1.544   0.089   3.787
26931WAT      O81034   6.401   5.461   6.597
26931WAT     H181035   6.382   5.517   6.516
26931WAT     H281036   6.327   5.395   6.610
26932WAT      O81037   5.268   2.346   3.415
26932WAT     H181038   5.180   2.334   3.460
26932WAT     H281039   5.256   2.398   3.331
26933WAT      O81040   4.316   0.049   7.206
26933WAT     H181041   4.325   0.066   7.108
26933WAT     H281042   4.390   0.095   7.256
26934WAT      O81043   4.878   7.886   6.096
26934WAT     H181044   4.889   7.982   6.068
26934WAT     H281045   4.820   7.881   6.177
26935WAT      O81046   1.358   2.820   6.189
26935WAT     H181047   1.442   2.839   6.241
26935WAT     H281048   1.382   2.775   6.103
26936WAT      O81049   7.459   3.475   4.137
26936WAT     H181050   7.466   3.377   4.117
26936WAT     H281051   7.546   3.506   4.177
26937WAT      O81052   8.086   9.392   7.372
26937WAT     H181053   8.139   9.324   7.422
26937WAT     H281054   8.106   9.386   7.274
26938WAT      O81055   0.383   8.491   0.553
26938WAT     H181056   0.462   8.551   0.541
26938WAT     H281057   0.407   8.399   0.524
26939WAT      O81058   1.045   1.204   5.701
26939WAT     H181059   1.097   1.227   5.618
26939WAT     H281060   1.010   1.288   5.742
26940WAT      O81061   5.681   9.575   2.992
26940WAT     H181062   5.622   9.656   2.994
26940WAT     H281063   5.637   9.503   2.939
26941WAT      O81064   5.320   4.043   4.240
26941WAT     H181065   5.381   3.983   4.292
26941WAT     H281066   5.321   4.015   4.144
26942WAT      O81067   2.049   6.485   2.951
26942WAT     H181068   2.077   6.547   2.877
26942WAT     H281069   2.085   6.518   3.038
26943WAT      O81070   0.029   8.233   3.783
26943WAT     H181071   0.019   8.297   3.707
26943WAT     H281072  -0.060   8.216   3.825
26944WAT      O81073   4.927   9.593   2.023
26944WAT     H181074   4.892   9.684   1.997
26944WAT     H281075   4.865   9.523   1.989
26945WAT      O81076   5.918   7.869   8.855
26945WAT     H181077   5.895   7.900   8.947
26945WAT     H281078   6.000   7.917   8.823
26946WAT      O81079   8.055   6.101   5.887
26946WAT     H181080   7.989   6.166   5.849
26946WAT     H281081   8.147   6.136   5.875
26947WAT      O81082   1.923   5.823   4.295
26947WAT     H181083   1.860   5.856   4.366
26947WAT     H281084   1.976   5.746   4.331
26948WAT      O81085   7.924   7.297   4.872
26948WAT     H181086   7.895   7.388   4.902
26948WAT     H281087   8.012   7.304   4.825
26949WAT      O81088   8.464   7.225   2.549
26949WAT     H181089   8.459   7.153   2.618
26949WAT     H281090   8.379   7.278   2.550
26950WAT      O81091   6.928   1.113   0.182
26950WAT     H181092   6.880   1.025   0.187
26950WAT     H281093   6.862   1.186   0.197
26951WAT      O81094   4.894   7.399   5.784
26951WAT     H181095   4.933   7.379   5.694
26951WAT     H281096   4.968   7.420   5.849
26952WAT      O81097   6.777   3.952   9.624
26952WAT     H181098   6.774   3.892   9.544
26952WAT     H281099   6.803   4.044   9.596
26953WAT      O81100   3.434   7.784   7.256
26953WAT     H181101   3.439   7.883   7.274
26953WAT     H281102   3.424   7.735   7.342
26954WAT      O81103   9.335   7.500   9.259
26954WAT     H181104   9.398   7.511   9.181
26954WAT     H281105   9.278   7.420   9.243
26955WAT      O81106   7.273   7.316   2.878
26955WAT     H181107   7.371   7.330   2.862
26955WAT     H281108   7.249   7.348   2.969
26956WAT      O81109   9.555   6.915   2.101
26956WAT     H181110   9.515   6.850   2.036
26956WAT     H281111   9.482   6.970   2.142
26957WAT      O81112   6.908   5.290   6.980
26957WAT     H181113   6.985   5.328   6.929
26957WAT     H281114   6.842   5.252   6.917
26958WAT      O81115   3.975   0.861   5.783
26958WAT     H181116   3.982   0.872   5.882
26958WAT     H281117   4.037   0.925   5.737
26959WAT      O81118   3.346   5.316   3.846
26959WAT     H181119   3.294   5.316   3.932
26959WAT     H281120   3.436   5.275   3.862
26960WAT      O81121   2.637   7.469   4.095
26960WAT     H181122   2.550   7.517   4.083
26960WAT     H281123   2.624   7.389   4.153
26961WAT      O81124   5.378   6.293   6.719
26961WAT     H181125   5.315   6.228   6.676
26961WAT     H281126   5.430   6.246   6.790
26962WAT      O81127   6.316   2.359   7.215
26962WAT     H181128   6.357   2.330   7.128
26962WAT     H281129   6.322   2.285   7.281
26963WAT      O81130   8.890   9.134   0.343
26963WAT     H181131   8.872   9.201   0.270
26963WAT     H281132   8.946   9.060   0.307
26964WAT      O81133   5.366   0.991   2.431
26964WAT     H181134   5.409   0.985   2.521
26964WAT     H281135   5.436   1.004   2.361
26965WAT      O81136   2.689   5.987   5.759
26965WAT     H181137   2.759   5.951   5.821
26965WAT     H281138   2.730   6.009   5.671
26966WAT      O81139   0.595   6.755   0.921
26966WAT     H181140   0.510   6.705   0.909
26966WAT     H281141   0.634   6.777   0.831
26967WAT      O81142   6.467   1.367   1.363
26967WAT     H181143   6.521   1.380   1.280
26967WAT     H281144   6.467   1.452   1.416
26968WAT      O81145   6.101   6.015   1.979
26968WAT     H181146   6.071   6.025   2.073
26968WAT     H281147   6.185   5.959   1.976
26969WAT      O81148   0.099   1.461   9.028
26969WAT     H181149   0.020   1.493   8.977
26969WAT     H281150   0.140   1.537   9.078
26970WAT      O81151   9.093   7.767   2.932
26970WAT     H181152   9.115   7.785   3.028
26970WAT     H281153   9.016   7.825   2.905
26971WAT      O81154   8.668   5.741   7.538
26971WAT     H181155   8.633   5.676   7.470
26971WAT     H281156   8.768   5.745   7.533
26972WAT      O81157   7.814   0.718   7.571
26972WAT     H181158   7.735   0.662   7.544
26972WAT     H281159   7.881   0.719   7.498
26973WAT      O81160   0.230   2.758   2.933
26973WAT     H181161   0.299   2.783   3.000
26973WAT     H281162   0.147   2.730   2.979
26974WAT      O81163   6.794   1.286   5.320
26974WAT     H181164   6.718   1.327   5.370
26974WAT     H281165   6.763   1.259   5.229
26975WAT      O81166   2.534   1.574   3.964
26975WAT     H181167   2.610   1.637   3.982
26975WAT     H281168   2.457   1.598   4.024
26976WAT      O81169   0.078   6.731   0.914
26976WAT     H181170   0.019   6.679   0.852
26976WAT     H281171   0.087   6.682   1.001
26977WAT      O81172   0.625   5.348   8.786
26977WAT     H181173   0.660   5.281   8.720
26977WAT     H281174   0.613   5.303   8.875
26978WAT      O81175   2.725   3.445   1.211
26978WAT     H181176   2.811   3.402   1.182
26978WAT     H281177   2.742   3.506   1.288
26979WAT      O81178   2.956   2.925   6.205
26979WAT     H181179   2.864   2.946   6.172
26979WAT     H281180   2.958   2.929   6.305
26980WAT      O81181   8.027   4.346   1.961
26980WAT     H181182   7.986   4.437   1.971
26980WAT     H281183   8.064   4.336   1.869
26981WAT      O81184   1.136   2.038   3.334
26981WAT     H181185   1.070   1.965   3.315
26981WAT     H281186   1.227   2.008   3.305
26982WAT      O81187   2.904   1.495   1.415
26982WAT     H181188   2.941   1.578   1.372
26982WAT     H281189   2.879   1.515   1.510
26983WAT      O81190   1.588   7.854   2.350
26983WAT     H181191   1.536   7.872   2.434
26983WAT     H281192   1.569   7.762   2.318
26984WAT      O81193   7.110   8.752   4.802
26984WAT     H181194   7.031   8.788   4.753
26984WAT     H281195   7.172   8.827   4.825
26985WAT      O81196   8.291   3.541   7.934
26985WAT     H181197   8.246   3.580   8.014
26985WAT     H281198   8.235   3.559   7.853
26986WAT      O81199   6.307   7.483   8.925
26986WAT     H181200   6.237   7.414   8.909
26986WAT     H281201   6.319   7.538   8.842
26987WAT      O81202   1.180   0.441   6.644
26987WAT     H181203   1.254   0.403   6.700
26987WAT     H281204   1.144   0.370   6.583
26988WAT      O81205   5.889   7.564   5.710
26988WAT     H181206   5.877   7.531   5.803
26988WAT     H281207   5.802   7.598   5.675
26989WAT      O81208   9.364   2.879   3.613
26989WAT     H181209   9.298   2.924   3.553
26989WAT     H281210   9.319   2.855   3.699
26990WAT      O81211   3.547   1.779   4.803
26990WAT     H181212   3.459   1.826   4.803
26990WAT     H281213   3.558   1.730   4.889
26991WAT      O81214   8.325   4.104   5.835
26991WAT     H181215   8.423   4.121   5.845
26991WAT     H281216   8.284   4.087   5.924
26992WAT      O81217   2.769   3.083   7.031
26992WAT     H181218   2.790   2.986   7.016
26992WAT     H281219   2.788   3.135   6.948
26993WAT      O81220   3.072   6.518   8.078
26993WAT     H181221   3.161   6.515   8.126
26993WAT     H281222   3.032   6.609   8.089
26994WAT      O81223   4.298   8.561   0.382
26994WAT     H181224   4.198   8.563   0.373
26994WAT     H281225   4.331   8.653   0.407
26995WAT      O81226   2.662   0.035   3.828
26995WAT     H181227   2.607   0.115   3.803
26995WAT     H281228   2.608  -0.024   3.888
26996WAT      O81229   7.747   9.328   5.901
26996WAT     H181230   7.695   9.346   5.818
26996WAT     H281231   7.827   9.388   5.904
26997WAT      O81232   6.819   0.538   9.275
26997WAT     H181233   6.826   0.581   9.365
26997WAT     H281234   6.723   0.533   9.248
26998WAT      O81235   5.115   6.671   0.170
26998WAT     H181236   5.179   6.656   0.095
26998WAT     H281237   5.160   6.723   0.243
26999WAT      O81238   1.635   4.090   0.105
26999WAT     H181239   1.711   4.084   0.170
26999WAT     H281240   1.667   4.067   0.013
27000WAT      O81241   5.076   9.306   7.890
27000WAT     H181242   4.994   9.267   7.850
27000WAT     H281243   5.153   9.242   7.879
27001WAT      O81244   2.248   4.260   4.886
27001WAT     H181245   2.261   4.348   4.841
27001WAT     H281246   2.165   4.216   4.852
27002WAT      O81247   8.302   7.930   9.308
27002WAT     H181248   8.377   7.870   9.280
27002WAT     H281249   8.296   7.931   9.408
27003WAT      O81250   3.396   0.288   5.191
27003WAT     H181251   3.429   0.318   5.101
27003WAT     H281252   3.299   0.309   5.199
27004WAT      O81253   7.677   5.120   6.331
27004WAT     H181254   7.747   5.071   6.382
27004WAT     H281255   7.704   5.216   6.320
27005WAT      O81256   2.691   3.635   1.436
27005WAT     H181257   2.623   3.701   1.403
27005WAT     H281258   2.701   3.643   1.535
27006WAT      O81259   4.429   3.875   5.953
27006WAT     H181260   4.508   3.842   6.004
27006WAT     H281261   4.458   3.947   5.889
27007WAT      O81262   4.516   8.175   7.950
27007WAT     H181263   4.575   8.146   7.875
27007WAT     H281264   4.517   8.106   8.022
27008WAT      O81265   7.349   6.758   1.599
27008WAT     H181266   7.348   6.703   1.516
27008WAT     H281267   7.405   6.714   1.668
27009WAT      O81268   3.048   5.507   6.613
27009WAT     H181269   3.097   5.555   6.540
27009WAT     H281270   3.105   5.431   6.647
27010WAT      O81271   8.369   1.056   7.511
27010WAT     H181272   8.404   1.047   7.417
27010WAT     H281273   8.358   1.153   7.533
27011WAT      O81274   8.412   1.591   1.662
27011WAT     H181275   8.409   1.659   1.588
27011WAT     H281276   8.327   1.595   1.714
27012WAT      O81277   5.363   3.230   5.453
27012WAT     H181278   5.331   3.146   5.409
27012WAT     H281279   5.310   3.308   5.420
27013WAT      O81280   4.178   2.060   6.545
27013WAT     H181281   4.185   2.026   6.638
27013WAT     H281282   4.107   2.009   6.496
27014WAT      O81283   8.347   2.853   8.130
27014WAT     H181284   8.304   2.941   8.152
27014WAT     H281285   8.446   2.863   8.134
27015WAT      O81286   3.722   5.770   8.117
27015WAT     H181287   3.640   5.714   8.113
27015WAT     H281288   3.771   5.752   8.203
27016WAT      O81289   3.440   8.347   6.969
27016WAT     H181290   3.375   8.280   7.002
27016WAT     H281291   3.397   8.438   6.968
27017WAT      O81292   7.594   0.559   0.462
27017WAT     H181293   7.691   0.580   0.459
27017WAT     H281294   7.541   0.644   0.452
27018WAT      O81295   6.547   5.779   4.517
27018WAT     H181296   6.449   5.801   4.513
27018WAT     H281297   6.599   5.864   4.519
27019WAT      O81298   2.402   5.398   5.554
27019WAT     H181299   2.459   5.457   5.497
27019WAT     H281300   2.306   5.422   5.541
27020WAT      O81301   1.933   3.876   3.758
27020WAT     H181302   1.890   3.950   3.809
27020WAT     H281303   1.975   3.811   3.821
27021WAT      O81304   6.326   5.737   3.291
27021WAT     H181305   6.320   5.833   3.262
27021WAT     H281306   6.311   5.678   3.212
27022WAT      O81307   6.497   4.517   5.443
27022WAT     H181308   6.503   4.503   5.344
27022WAT     H281309   6.426   4.457   5.481
27023WAT      O81310   8.266   5.579   1.724
27023WAT     H181311   8.346   5.620   1.768
27023WAT     H281312   8.296   5.501   1.668
27024WAT      O81313   6.394   2.893   2.552
27024WAT     H181314   6.442   2.963   2.499
27024WAT     H281315   6.330   2.936   2.615
27025WAT      O81316   1.507   7.538   3.548
27025WAT     H181317   1.545   7.630   3.556
27025WAT     H281318   1.469   7.526   3.456
27026WAT      O81319   0.505   6.645   7.934
27026WAT     H181320   0.437   6.682   7.997
27026WAT     H281321   0.459   6.617   7.849
27027WAT      O81322   2.257   4.089   2.508
27027WAT     H181323   2.217   4.180   2.494
27027WAT     H281324   2.311   4.089   2.592
27028WAT      O81325   3.529   4.079   6.724
27028WAT     H181326   3.454   4.059   6.787
27028WAT     H281327   3.498   4.066   6.630
27029WAT      O81328   7.979   5.171   1.201
27029WAT     H181329   7.972   5.260   1.156
27029WAT     H281330   8.075   5.147   1.212
27030WAT      O81331   3.777   3.193   1.181
27030WAT     H181332   3.779   3.276   1.125
27030WAT     H281333   3.790   3.217   1.277
27031WAT      O81334   9.839   2.491   0.946
27031WAT     H181335   9.761   2.435   0.918
27031WAT     H281336   9.868   2.465   1.038
27032WAT      O81337   7.716   8.024   3.230
27032WAT     H181338   7.675   8.110   3.261
27032WAT     H281339   7.805   8.011   3.275
27033WAT      O81340   7.601   0.773   0.713
27033WAT     H181341   7.678   0.773   0.649
27033WAT     H281342   7.515   0.769   0.661
27034WAT      O81343   7.581   1.913   0.667
27034WAT     H181344   7.582   1.817   0.638
27034WAT     H281345   7.561   1.918   0.765
27035WAT      O81346   8.457   4.825   1.484
27035WAT     H181347   8.528   4.806   1.552
27035WAT     H281348   8.371   4.785   1.514
27036WAT      O81349   5.028   9.079   1.623
27036WAT     H181350   4.960   9.027   1.674
27036WAT     H281351   5.013   9.068   1.525
27037WAT      O81352   4.709   4.411   7.542
27037WAT     H181353   4.748   4.331   7.587
27037WAT     H281354   4.784   4.472   7.512
27038WAT      O81355   2.204   2.548   9.220
27038WAT     H181356   2.160   2.614   9.160
27038WAT     H281357   2.246   2.595   9.297
27039WAT      O81358   8.574   7.266   1.772
27039WAT     H181359   8.663   7.289   1.811
27039WAT     H281360   8.580   7.264   1.672
27040WAT      O81361   0.887   8.452   9.680
27040WAT     H181362   0.818   8.467   9.609
27040WAT     H281363   0.850   8.478   9.769
27041WAT      O81364   8.121   5.766   1.105
27041WAT     H181365   8.056   5.698   1.138
27041WAT     H281366   8.131   5.839   1.172
27042WAT      O81367   0.670   9.075   6.915
27042WAT     H181368   0.579   9.056   6.877
27042WAT     H281369   0.691   9.007   6.986
27043WAT      O81370   3.204   6.157   8.366
27043WAT     H181371   3.303   6.164   8.358
27043WAT     H281372   3.177   6.165   8.462
27044WAT      O81373   1.922   0.435   1.673
27044WAT     H181374   1.953   0.340   1.668
27044WAT     H281375   1.822   0.438   1.674
27045WAT      O81376   0.318   9.838   6.175
27045WAT     H181377   0.221   9.845   6.200
27045WAT     H281378   0.352   9.747   6.199
27046WAT      O81379   5.394   4.638   7.298
27046WAT     H181380   5.403   4.539   7.307
27046WAT     H281381   5.355   4.676   7.381
27047WAT      O81382   3.770   0.190   7.580
27047WAT     H181383   3.819   0.266   7.538
27047WAT     H281384   3.672   0.207   7.576
27048WAT      O81385   9.666   2.025   4.393
27048WAT     H181386   9.645   2.047   4.298
27048WAT     H281387   9.753   2.067   4.419
27049WAT      O81388   2.033   5.963   0.962
27049WAT     H181389   2.127   5.934   0.975
27049WAT     H281390   2.017   5.983   0.865
27050WAT      O81391   8.199   4.810   3.448
27050WAT     H181392   8.231   4.876   3.516
27050WAT     H281393   8.179   4.723   3.492
27051WAT      O81394   5.498   5.959   2.951
27051WAT     H181395   5.545   5.871   2.952
27051WAT     H281396   5.402   5.945   2.973
27052WAT      O81397   1.280   3.321   9.030
27052WAT     H181398   1.359   3.275   8.989
27052WAT     H281399   1.311   3.381   9.104
27053WAT      O81400   4.286   1.436   7.780
27053WAT     H181401   4.232   1.493   7.719
27053WAT     H281402   4.372   1.411   7.736
27054WAT      O81403   9.665   2.414   9.880
27054WAT     H181404   9.567   2.421   9.862
27054WAT     H281405   9.704   2.506   9.884
27055WAT      O81406   6.021   9.552   7.959
27055WAT     H181407   5.974   9.532   7.874
27055WAT     H281408   5.982   9.497   8.033
27056WAT      O81409   9.689   1.858   8.008
27056WAT     H181410   9.716   1.919   7.935
27056WAT     H281411   9.627   1.905   8.071
27057WAT      O81412   6.608   1.318   9.793
27057WAT     H181413   6.523   1.360   9.825
27057WAT     H281414   6.681   1.386   9.792
27058WAT      O81415   1.623   4.240   1.322
27058WAT     H181416   1.670   4.175   1.263
27058WAT     H281417   1.542   4.197   1.362
27059WAT      O81418   4.695   1.912   2.495
27059WAT     H181419   4.744   1.989   2.453
27059WAT     H281420   4.607   1.899   2.449
27060WAT      O81421   9.549   1.542   4.262
27060WAT     H181422   9.591   1.603   4.330
27060WAT     H281423   9.562   1.447   4.291
27061WAT      O81424   4.351   9.045   1.123
27061WAT     H181425   4.345   9.129   1.176
27061WAT     H281426   4.367   9.066   1.027
27062WAT      O81427   5.893   7.471   6.346
27062WAT     H181428   5.985   7.454   6.381
27062WAT     H281429   5.881   7.421   6.260
27063WAT      O81430   3.425   3.367   8.834
27063WAT     H181431   3.466   3.316   8.910
27063WAT     H281432   3.453   3.326   8.747
27064WAT      O81433   1.609   5.151   5.657
27064WAT     H181434   1.646   5.165   5.749
27064WAT     H281435   1.602   5.240   5.611
27065WAT      O81436   1.658   3.825   8.134
27065WAT     H181437   1.748   3.799   8.169
27065WAT     H281438   1.668   3.867   8.044
27066WAT      O81439   9.704   7.556   4.164
27066WAT     H181440   9.766   7.486   4.128
27066WAT     H281441   9.757   7.635   4.194
27067WAT      O81442   0.511   5.207   8.008
27067WAT     H181443   0.419   5.170   7.995
27067WAT     H281444   0.509   5.273   8.084
27068WAT      O81445   3.113   6.028   0.975
27068WAT     H181446   3.144   6.025   1.070
27068WAT     H281447   3.193   6.034   0.915
27069WAT      O81448   0.886   4.386   0.255
27069WAT     H181449   0.874   4.485   0.264
27069WAT     H281450   0.828   4.338   0.320
27070WAT      O81451   7.527   3.363   6.499
27070WAT     H181452   7.481   3.301   6.562
27070WAT     H281453   7.504   3.458   6.522
27071WAT      O81454   7.937   5.525   2.793
27071WAT     H181455   7.900   5.584   2.720
27071WAT     H281456   8.036   5.519   2.783
27072WAT      O81457   7.759   7.831   8.733
27072WAT     H181458   7.692   7.758   8.740
27072WAT     H281459   7.763   7.881   8.819
27073WAT      O81460   6.633   8.938   9.264
27073WAT     H181461   6.659   8.949   9.168
27073WAT     H281462   6.632   9.027   9.309
27074WAT      O81463   1.709   9.785   7.950
27074WAT     H181464   1.643   9.710   7.950
27074WAT     H281465   1.786   9.761   8.010
27075WAT      O81466   6.805   7.679   0.348
27075WAT     H181467   6.807   7.643   0.441
27075WAT     H281468   6.741   7.626   0.293
27076WAT      O81469   9.124   6.534   1.515
27076WAT     H181470   9.061   6.508   1.443
27076WAT     H281471   9.197   6.592   1.477
27077WAT      O81472   5.960   9.825   7.639
27077WAT     H181473   5.944   9.886   7.561
27077WAT     H281474   5.874   9.811   7.688
27078WAT      O81475   5.390   6.956   1.380
27078WAT     H181476   5.389   6.873   1.323
27078WAT     H281477   5.402   6.931   1.476
27079WAT      O81478   7.888   3.345   8.141
27079WAT     H181479   7.849   3.266   8.093
27079WAT     H281480   7.925   3.315   8.228
27080WAT      O81481   9.732   1.390   3.091
27080WAT     H181482   9.725   1.291   3.100
27080WAT     H281483   9.666   1.423   3.023
27081WAT      O81484   1.886   4.484   3.880
27081WAT     H181485   1.933   4.572   3.875
27081WAT     H281486   1.915   4.426   3.804
27082WAT      O81487   4.483   5.371   0.763
27082WAT     H181488   4.527   5.344   0.677
27082WAT     H281489   4.386   5.392   0.746
27083WAT      O81490   1.482   7.810   7.435
27083WAT     H181491   1.521   7.868   7.363
27083WAT     H281492   1.391   7.780   7.407
27084WAT      O81493   3.612   5.430   6.236
27084WAT     H181494   3.588   5.518   6.195
27084WAT     H281495   3.575   5.424   6.328
27085WAT      O81496   3.741   9.738   8.319
27085WAT     H181497   3.699   9.692   8.398
27085WAT     H281498   3.813   9.800   8.351
27086WAT      O81499   0.857   5.917   7.688
27086WAT     H181500   0.894   5.964   7.608
27086WAT     H281501   0.915   5.838   7.709
27087WAT      O81502   3.272   4.541   1.334
27087WAT     H181503   3.346   4.606   1.320
27087WAT     H281504   3.215   4.572   1.410
27088WAT      O81505   6.187   6.527   3.156
27088WAT     H181506   6.151   6.617   3.131
27088WAT     H281507   6.274   6.537   3.204
27089WAT      O81508   5.559   3.196   8.292
27089WAT     H181509   5.477   3.245   8.323
27089WAT     H281510   5.533   3.113   8.244
27090WAT      O81511   6.657   9.838   3.941
27090WAT     H181512   6.730   9.776   3.913
27090WAT     H281513   6.694   9.930   3.954
27091WAT      O81514   0.339   2.088   1.924
27091WAT     H181515   0.426   2.042   1.940
27091WAT     H281516   0.354   2.171   1.870
27092WAT      O81517   9.837   7.202   9.014
27092WAT     H181518   9.935   7.201   8.994
27092WAT     H281519   9.806   7.108   9.029
27093WAT      O81520   8.648   1.060   6.317
27093WAT     H181521   8.641   1.111   6.403
27093WAT     H281522   8.683   0.968   6.336
27094WAT      O81523   9.220   4.008   9.254
27094WAT     H181524   9.155   4.058   9.312
27094WAT     H281525   9.286   3.960   9.312
27095WAT      O81526   1.998   5.781   3.603
27095WAT     H181527   2.014   5.877   3.582
27095WAT     H281528   1.926   5.772   3.671
27096WAT      O81529   8.018   0.477   6.151
27096WAT     H181530   7.937   0.458   6.097
27096WAT     H281531   8.061   0.392   6.179
27097WAT      O81532   0.128   4.071   2.317
27097WAT     H181533   0.126   3.986   2.265
27097WAT     H281534   0.222   4.101   2.330
27098WAT      O81535   4.701   3.665   4.573
27098WAT     H181536   4.652   3.745   4.608
27098WAT     H281537   4.725   3.604   4.648
27099WAT      O81538   2.171   5.486   4.302
27099WAT     H181539   2.117   5.542   4.364
27099WAT     H281540   2.261   5.529   4.288
27100WAT      O81541   4.041   3.213   6.345
27100WAT     H181542   3.979   3.163   6.285
27100WAT     H281543   4.113   3.255   6.290
27101WAT      O81544   5.888   6.128   2.239
27101WAT     H181545   5.879   6.228   2.236
27101WAT     H281546   5.803   6.087   2.205
27102WAT      O81547   8.701   2.997   8.546
27102WAT     H181548   8.779   2.972   8.488
27102WAT     H281549   8.622   2.942   8.520
27103WAT      O81550   4.351   8.211   7.695
27103WAT     H181551   4.301   8.241   7.614
27103WAT     H281552   4.436   8.263   7.704
27104WAT      O81553   2.901   3.702   4.861
27104WAT     H181554   2.983   3.717   4.805
27104WAT     H281555   2.924   3.711   4.957
27105WAT      O81556   0.935   4.231   7.571
27105WAT     H181557   0.892   4.302   7.515
27105WAT     H281558   1.030   4.219   7.543
27106WAT      O81559   5.566   9.588   7.851
27106WAT     H181560   5.540   9.492   7.839
27106WAT     H281561   5.557   9.613   7.948
27107WAT      O81562   2.311   0.696   2.333
27107WAT     H181563   2.395   0.662   2.291
27107WAT     H281564   2.321   0.793   2.354
27108WAT      O81565   2.025   7.578   9.126
27108WAT     H181566   1.962   7.655   9.127
27108WAT     H281567   1.974   7.493   9.143
27109WAT      O81568   9.032   0.280   0.907
27109WAT     H181569   8.992   0.194   0.875
27109WAT     H281570   9.132   0.271   0.909
27110WAT      O81571   8.011   8.485   0.787
27110WAT     H181572   7.972   8.479   0.879
27110WAT     H281573   8.109   8.467   0.791
27111WAT      O81574   0.562   7.812   0.819
27111WAT     H181575   0.660   7.803   0.807
27111WAT     H281576   0.541   7.823   0.917
27112WAT      O81577   0.343   9.155   8.997
27112WAT     H181578   0.300   9.220   9.061
27112WAT     H281579   0.344   9.064   9.038
27113WAT      O81580   8.896   0.371   2.433
27113WAT     H181581   8.926   0.276   2.441
27113WAT     H281582   8.932   0.411   2.348
27114WAT      O81583   8.710   6.258   2.335
27114WAT     H181584   8.644   6.196   2.377
27114WAT     H281585   8.795   6.209   2.318
27115WAT      O81586   3.635   1.871   9.543
27115WAT     H181587   3.674   1.939   9.481
27115WAT     H281588   3.588   1.917   9.618
27116WAT      O81589   9.290   0.986   7.084
27116WAT     H181590   9.286   1.066   7.024
27116WAT     H281591   9.199   0.946   7.092
27117WAT      O81592   1.190   6.069   4.258
27117WAT     H181593   1.241   6.072   4.172
27117WAT     H281594   1.224   6.139   4.320
27118WAT      O81595   1.707   4.370   5.240
27118WAT     H181596   1.779   4.302   5.230
27118WAT     H281597   1.741   4.446   5.297
27119WAT      O81598   1.665   0.206   6.844
27119WAT     H181599   1.657   0.207   6.944
27119WAT     H281600   1.651   0.112   6.811
27120WAT      O81601   2.940   7.524   8.408
27120WAT     H181602   2.918   7.620   8.390
27120WAT     H281603   3.036   7.507   8.383
27121WAT      O81604   7.046   3.564   4.193
27121WAT     H181605   7.047   3.519   4.103
27121WAT     H281606   7.028   3.496   4.264
27122WAT      O81607   2.962   8.163   3.545
27122WAT     H181608   3.048   8.147   3.496
27122WAT     H281609   2.972   8.136   3.640
27123WAT      O81610   1.837   9.116   1.451
27123WAT     H181611   1.831   9.043   1.520
27123WAT     H281612   1.815   9.204   1.494
27124WAT      O81613   1.709   1.960   8.553
27124WAT     H181614   1.771   1.887   8.524
27124WAT     H281615   1.758   2.047   8.551
27125WAT      O81616   9.126   4.203   1.273
27125WAT     H181617   9.186   4.123   1.277
27125WAT     H281618   9.074   4.203   1.188
27126WAT      O81619   4.566   0.865   0.507
27126WAT     H181620   4.521   0.845   0.420
27126WAT     H281621   4.660   0.893   0.490
27127WAT      O81622   8.146   7.198   8.071
27127WAT     H181623   8.185   7.277   8.024
27127WAT     H281624   8.217   7.128   8.084
27128WAT      O81625   6.934   7.683   3.939
27128WAT     H181626   6.964   7.770   3.900
27128WAT     H281627   6.933   7.688   4.038
27129WAT      O81628   2.279   4.281   8.596
27129WAT     H181629   2.367   4.305   8.557
27129WAT     H281630   2.292   4.217   8.671
27130WAT      O81631   5.298   5.064   1.688
27130WAT     H181632   5.254   4.975   1.673
27130WAT     H281633   5.228   5.134   1.703
27131WAT      O81634   8.232   7.204   2.247
27131WAT     H181635   8.271   7.131   2.303
27131WAT     H281636   8.302   7.240   2.185
27132WAT      O81637   1.106   9.232   3.588
27132WAT     H181638   1.037   9.168   3.553
27132WAT     H281639   1.161   9.265   3.511
27133WAT      O81640   1.377   3.582   1.859
27133WAT     H181641   1.374   3.677   1.829
27133WAT     H281642   1.460   3.538   1.824
27134WAT      O81643   5.505   5.847   8.378
27134WAT     H181644   5.524   5.939   8.412
27134WAT     H281645   5.407   5.839   8.356
27135WAT      O81646   3.297   4.212   9.020
27135WAT     H181647   3.390   4.190   8.991
27135WAT     H281648   3.268   4.147   9.091
27136WAT      O81649   4.887   0.461   8.727
27136WAT     H181650   4.985   0.475   8.741
27136WAT     H281651   4.842   0.548   8.710
27137WAT      O81652   3.541   5.514   7.002
27137WAT     H181653   3.598   5.596   7.000
27137WAT     H281654   3.529   5.480   6.908
27138WAT      O81655   5.201   1.776   0.958
27138WAT     H181656   5.288   1.825   0.952
27138WAT     H281657   5.128   1.832   0.919
27139WAT      O81658   3.167   9.338   7.039
27139WAT     H181659   3.243   9.333   6.974
27139WAT     H281660   3.172   9.262   7.103
27140WAT      O81661   0.157   6.414   4.653
27140WAT     H181662   0.069   6.376   4.623
27140WAT     H281663   0.182   6.374   4.741
27141WAT      O81664   6.068   5.490   5.447
27141WAT     H181665   6.003   5.484   5.372
27141WAT     H281666   6.087   5.399   5.483
27142WAT      O81667   1.086   8.995   7.581
27142WAT     H181668   1.027   9.062   7.536
27142WAT     H281669   1.085   9.010   7.680
27143WAT      O81670   3.849   7.237   6.921
27143WAT     H181671   3.816   7.155   6.967
27143WAT     H281672   3.775   7.280   6.871
27144WAT      O81673   4.093   5.131   4.940
27144WAT     H181674   4.147   5.112   5.022
27144WAT     H281675   4.019   5.194   4.963
27145WAT      O81676   2.004   0.931   1.474
27145WAT     H181677   1.979   0.861   1.540
27145WAT     H281678   1.927   0.995   1.462
27146WAT      O81679   2.467   8.309   8.220
27146WAT     H181680   2.460   8.407   8.240
27146WAT     H281681   2.405   8.285   8.146
27147WAT      O81682   2.745   3.705   1.974
27147WAT     H181683   2.731   3.750   2.062
27147WAT     H281684   2.660   3.662   1.945
27148WAT      O81685   8.777   1.538   3.720
27148WAT     H181686   8.745   1.480   3.796
27148WAT     H281687   8.866   1.576   3.744
27149WAT      O81688   8.060   4.061   5.415
27149WAT     H181689   8.044   3.975   5.464
27149WAT     H281690   8.141   4.106   5.452
27150WAT      O81691   3.092   6.718   7.009
27150WAT     H181692   3.078   6.620   7.001
27150WAT     H281693   3.054   6.751   7.096
27151WAT      O81694   7.226   0.436   4.317
27151WAT     H181695   7.279   0.427   4.233
27151WAT     H281696   7.135   0.396   4.303
27152WAT      O81697   1.030   5.668   3.848
27152WAT     H181698   1.115   5.615   3.841
27152WAT     H281699   0.970   5.627   3.917
27153WAT      O81700   9.609   3.966   7.626
27153WAT     H181701   9.630   3.885   7.680
27153WAT     H281702   9.583   3.938   7.533
27154WAT      O81703   0.041   7.897   9.758
27154WAT     H181704  -0.008   7.866   9.677
27154WAT     H281705   0.116   7.958   9.731
27155WAT      O81706   9.047   5.379   1.866
27155WAT     H181707   9.082   5.346   1.954
27155WAT     H281708   8.950   5.401   1.874
27156WAT      O81709   4.162   2.553   6.719
27156WAT     H181710   4.127   2.459   6.723
27156WAT     H281711   4.260   2.553   6.740
27157WAT      O81712   6.556   6.702   2.322
27157WAT     H181713   6.457   6.686   2.329
27157WAT     H281714   6.598   6.626   2.273
27158WAT      O81715   1.578   3.401   8.980
27158WAT     H181716   1.535   3.363   8.899
27158WAT     H281717   1.577   3.501   8.976
27159WAT      O81718   5.321   1.996   3.498
27159WAT     H181719   5.370   1.915   3.530
27159WAT     H281720   5.387   2.065   3.468
27160WAT      O81721   2.932   4.891   7.269
27160WAT     H181722   3.000   4.951   7.228
27160WAT     H281723   2.841   4.928   7.254
27161WAT      O81724   0.459   3.798   9.856
27161WAT     H181725   0.482   3.868   9.924
27161WAT     H281726   0.386   3.832   9.796
27162WAT      O81727   9.616   5.933   6.301
27162WAT     H181728   9.552   5.861   6.329
27162WAT     H281729   9.610   5.946   6.202
27163WAT      O81730   9.756   9.038   3.060
27163WAT     H181731   9.759   9.118   3.120
27163WAT     H281732   9.794   8.959   3.108
27164WAT      O81733   4.208   1.583   0.551
27164WAT     H181734   4.276   1.626   0.491
27164WAT     H281735   4.254   1.540   0.629
27165WAT      O81736   3.142   1.498   2.299
27165WAT     H181737   3.161   1.500   2.201
27165WAT     H281738   3.050   1.463   2.314
27166WAT      O81739   4.800   7.880   7.374
27166WAT     H181740   4.747   7.941   7.434
27166WAT     H281741   4.886   7.924   7.350
27167WAT      O81742   0.472   2.092   0.161
27167WAT     H181743   0.453   2.187   0.139
27167WAT     H281744   0.565   2.084   0.197
27168WAT      O81745   0.692   3.310   9.204
27168WAT     H181746   0.777   3.328   9.253
27168WAT     H281747   0.708   3.313   9.106
27169WAT      O81748   6.868   5.558   8.556
27169WAT     H181749   6.794   5.619   8.588
27169WAT     H281750   6.936   5.548   8.628
27170WAT      O81751   6.256   4.421   6.522
27170WAT     H181752   6.256   4.356   6.599
27170WAT     H281753   6.167   4.419   6.477
27171WAT      O81754   5.786   3.857   7.692
27171WAT     H181755   5.843   3.939   7.680
27171WAT     H281756   5.690   3.884   7.699
27172WAT      O81757   7.023   2.562   0.328
27172WAT     H181758   7.108   2.545   0.279
27172WAT     H281759   6.967   2.479   0.330
27173WAT      O81760   2.613   4.966   0.777
27173WAT     H181761   2.533   4.964   0.837
27173WAT     H281762   2.667   5.048   0.795
27174WAT      O81763   8.416   0.242   3.595
27174WAT     H181764   8.379   0.258   3.504
27174WAT     H281765   8.342   0.248   3.662
27175WAT      O81766   2.447   7.214   1.289
27175WAT     H181767   2.511   7.141   1.262
27175WAT     H281768   2.440   7.217   1.388
27176WAT      O81769   1.247   9.371   4.321
27176WAT     H181770   1.201   9.284   4.301
27176WAT     H281771   1.345   9.362   4.303
27177WAT      O81772   7.616   6.735   3.850
27177WAT     H181773   7.602   6.698   3.758
27177WAT     H281774   7.686   6.681   3.897
27178WAT      O81775   9.104   6.633   2.684
27178WAT     H181776   9.162   6.655   2.606
27178WAT     H281777   9.090   6.715   2.740
27179WAT      O81778   4.969   2.819   4.333
27179WAT     H181779   4.951   2.745   4.398
27179WAT     H281780   4.883   2.856   4.299
27180WAT      O81781   1.459   8.749   5.788
27180WAT     H181782   1.527   8.736   5.860
27180WAT     H281783   1.368   8.757   5.828
27181WAT      O81784   8.865   4.188   5.104
27181WAT     H181785   8.941   4.135   5.140
27181WAT     H281786   8.890   4.225   5.014
27182WAT      O81787   4.773   5.765   9.151
27182WAT     H181788   4.770   5.822   9.069
27182WAT     H281789   4.695   5.702   9.151
27183WAT      O81790   8.953   0.875   6.203
27183WAT     H181791   8.909   0.869   6.293
27183WAT     H281792   9.016   0.952   6.202
27184WAT      O81793   1.378   4.863   3.643
27184WAT     H181794   1.440   4.929   3.600
27184WAT     H281795   1.319   4.823   3.574
27185WAT      O81796   1.732   4.737   6.472
27185WAT     H181797   1.816   4.767   6.425
27185WAT     H281798   1.658   4.728   6.405
27186WAT      O81799   1.615   5.443   2.397
27186WAT     H181800   1.628   5.539   2.419
27186WAT     H281801   1.702   5.394   2.404
27187WAT      O81802   4.452   5.512   0.420
27187WAT     H181803   4.431   5.518   0.323
27187WAT     H281804   4.505   5.428   0.438
27188WAT      O81805   6.063   7.059   5.829
27188WAT     H181806   5.970   7.078   5.798
27188WAT     H281807   6.115   7.016   5.755
27189WAT      O81808   6.785   5.421   5.542
27189WAT     H181809   6.747   5.508   5.575
27189WAT     H281810   6.881   5.415   5.567
27190WAT      O81811   6.954   4.277   6.372
27190WAT     H181812   6.902   4.340   6.429
27190WAT     H281813   7.038   4.322   6.341
27191WAT      O81814   5.210   5.524   9.444
27191WAT     H181815   5.233   5.459   9.516
27191WAT     H281816   5.294   5.559   9.402
27192WAT      O81817   7.150   5.113   5.971
27192WAT     H181818   7.078   5.046   5.950
27192WAT     H281819   7.205   5.129   5.889
27193WAT      O81820   0.672   4.648   2.615
27193WAT     H181821   0.766   4.641   2.581
27193WAT     H281822   0.609   4.615   2.545
27194WAT      O81823   8.944   9.220   5.234
27194WAT     H181824   8.979   9.294   5.292
27194WAT     H281825   9.021   9.172   5.192
27195WAT      O81826   9.005   7.050   0.202
27195WAT     H181827   9.062   7.010   0.273
27195WAT     H281828   9.061   7.071   0.122
27196WAT      O81829   7.790   3.821   8.084
27196WAT     H181830   7.699   3.807   8.124
27196WAT     H281831   7.820   3.915   8.104
27197WAT      O81832   5.951   8.392   6.118
27197WAT     H181833   6.036   8.444   6.109
27197WAT     H281834   5.972   8.294   6.124
27198WAT      O81835   5.162   5.671   4.083
27198WAT     H181836   5.251   5.631   4.105
27198WAT     H281837   5.120   5.620   4.008
27199WAT      O81838   4.982   9.132   4.347
27199WAT     H181839   4.998   9.174   4.436
27199WAT     H281840   5.031   9.184   4.276
27200WAT      O81841   5.097   4.534   2.566
27200WAT     H181842   5.075   4.493   2.655
27200WAT     H281843   5.111   4.632   2.578
27201WAT      O81844   2.815   6.375   9.841
27201WAT     H181845   2.875   6.424   9.904
27201WAT     H281846   2.787   6.435   9.767
27202WAT      O81847   2.400   3.276   8.889
27202WAT     H181848   2.367   3.304   8.980
27202WAT     H281849   2.373   3.344   8.821
27203WAT      O81850   6.595   1.419   6.296
27203WAT     H181851   6.527   1.493   6.302
27203WAT     H281852   6.629   1.398   6.387
27204WAT      O81853   8.306   8.359   8.592
27204WAT     H181854   8.306   8.456   8.566
27204WAT     H281855   8.398   8.331   8.615
27205WAT      O81856   0.673   9.134   3.266
27205WAT     H181857   0.692   9.112   3.170
27205WAT     H281858   0.617   9.217   3.270
27206WAT      O81859   0.170   6.721   1.767
27206WAT     H181860   0.090   6.696   1.821
27206WAT     H281861   0.151   6.805   1.716
27207WAT      O81862   6.805   2.288   3.811
27207WAT     H181863   6.892   2.298   3.860
27207WAT     H281864   6.746   2.367   3.832
27208WAT      O81865   0.931   5.459   7.868
27208WAT     H181866   1.029   5.440   7.872
27208WAT     H281867   0.887   5.421   7.950
27209WAT      O81868   4.460   0.580   9.617
27209WAT     H181869   4.471   0.488   9.655
27209WAT     H281870   4.362   0.599   9.605
27210WAT      O81871   6.847   7.916   2.872
27210WAT     H181872   6.844   7.949   2.966
27210WAT     H281873   6.940   7.923   2.836
27211WAT      O81874   9.117   3.456   4.500
27211WAT     H181875   9.122   3.498   4.590
27211WAT     H281876   9.112   3.527   4.430
27212WAT      O81877   4.023   7.405   0.216
27212WAT     H181878   4.035   7.492   0.264
27212WAT     H281879   3.987   7.337   0.279
27213WAT      O81880   2.268   5.976   4.130
27213WAT     H181881   2.221   6.031   4.061
27213WAT     H281882   2.220   5.985   4.217
27214WAT      O81883   1.058   2.774   3.930
27214WAT     H181884   1.089   2.865   3.903
27214WAT     H281885   1.062   2.713   3.851
27215WAT      O81886   9.736   5.573   0.547
27215WAT     H181887   9.768   5.478   0.553
27215WAT     H281888   9.807   5.634   0.581
27216WAT      O81889   4.042   3.183   8.637
27216WAT     H181890   4.066   3.216   8.545
27216WAT     H281891   4.054   3.084   8.641
27217WAT      O81892   3.975   9.629   2.444
27217WAT     H181893   3.886   9.672   2.425
27217WAT     H281894   4.020   9.607   2.358
27218WAT      O81895   0.533   8.831   2.686
27218WAT     H181896   0.599   8.762   2.716
27218WAT     H281897   0.580   8.899   2.629
27219WAT      O81898   0.566   4.382   7.396
27219WAT     H181899   0.527   4.464   7.354
27219WAT     H281900   0.531   4.374   7.489
27220WAT      O81901   0.572   3.492   2.447
27220WAT     H181902   0.502   3.467   2.381
27220WAT     H281903   0.538   3.565   2.507
27221WAT      O81904   7.994   5.623   4.067
27221WAT     H181905   7.937   5.705   4.071
27221WAT     H281906   8.074   5.636   4.126
27222WAT      O81907   6.271   6.375   7.362
27222WAT     H181908   6.361   6.414   7.378
27222WAT     H281909   6.275   6.314   7.283
27223WAT      O81910   3.703   7.015   5.302
27223WAT     H181911   3.704   7.060   5.213
27223WAT     H281912   3.786   7.038   5.353
27224WAT      O81913   2.399   9.388   0.150
27224WAT     H181914   2.465   9.459   0.124
27224WAT     H281915   2.448   9.308   0.185
27225WAT      O81916   9.157   4.678   3.091
27225WAT     H181917   9.149   4.655   3.188
27225WAT     H281918   9.214   4.759   3.080
27226WAT      O81919   3.093   3.619   7.640
27226WAT     H181920   3.186   3.650   7.659
27226WAT     H281921   3.028   3.691   7.664
27227WAT      O81922   0.759   9.101   7.897
27227WAT     H181923   0.778   9.199   7.892
27227WAT     H281924   0.663   9.087   7.922
27228WAT      O81925   0.040   0.764   1.332
27228WAT     H181926   0.086   0.773   1.421
27228WAT     H281927   0.094   0.810   1.262
27229WAT      O81928   8.092   5.977   6.138
27229WAT     H181929   8.007   6.008   6.095
27229WAT     H281930   8.165   6.044   6.120
27230WAT      O81931   4.242   8.321   1.923
27230WAT     H181932   4.332   8.358   1.897
27230WAT     H281933   4.255   8.244   1.985
27231WAT      O81934   0.132   3.525   9.365
27231WAT     H181935   0.205   3.594   9.359
27231WAT     H281936   0.089   3.514   9.275
27232WAT      O81937   8.300   6.979   1.436
27232WAT     H181938   8.220   7.033   1.409
27232WAT     H281939   8.319   6.994   1.533
27233WAT      O81940   7.903   1.739   9.337
27233WAT     H181941   7.974   1.806   9.316
27233WAT     H281942   7.834   1.780   9.396
27234WAT      O81943   5.576   7.688   0.181
27234WAT     H181944   5.561   7.677   0.083
27234WAT     H281945   5.660   7.740   0.197
27235WAT      O81946   9.163   5.305   5.362
27235WAT     H181947   9.188   5.385   5.308
27235WAT     H281948   9.189   5.222   5.313
27236WAT      O81949   8.732   3.626   6.547
27236WAT     H181950   8.751   3.551   6.610
27236WAT     H281951   8.635   3.626   6.523
27237WAT      O81952   1.795   7.730   5.470
27237WAT     H181953   1.893   7.738   5.454
27237WAT     H281954   1.746   7.733   5.383
27238WAT      O81955   5.972   8.715   4.155
27238WAT     H181956   5.901   8.785   4.161
27238WAT     H281957   6.029   8.731   4.075
27239WAT      O81958   8.979   1.712   3.525
27239WAT     H181959   8.928   1.633   3.491
27239WAT     H281960   9.050   1.736   3.459
27240WAT      O81961   0.771   2.393   7.368
27240WAT     H181962   0.858   2.428   7.333
27240WAT     H281963   0.758   2.299   7.336
27241WAT      O81964   7.544   2.286   9.391
27241WAT     H181965   7.560   2.375   9.434
27241WAT     H281966   7.495   2.299   9.305
27242WAT      O81967   1.861   2.868   5.761
27242WAT     H181968   1.893   2.872   5.666
27242WAT     H281969   1.930   2.823   5.818
27243WAT      O81970   5.264   5.694   0.122
27243WAT     H181971   5.334   5.671   0.189
27243WAT     H281972   5.298   5.673   0.030
27244WAT      O81973   1.371   7.745   3.238
27244WAT     H181974   1.342   7.658   3.280
27244WAT     H281975   1.426   7.726   3.157
27245WAT      O81976   7.599   4.637   2.586
27245WAT     H181977   7.525   4.603   2.645
27245WAT     H281978   7.646   4.560   2.544
27246WAT      O81979   9.321   2.591   6.893
27246WAT     H181980   9.278   2.681   6.891
27246WAT     H281981   9.257   2.525   6.934
27247WAT      O81982   2.021   3.151   1.718
27247WAT     H181983   1.955   3.212   1.674
27247WAT     H281984   2.042   3.185   1.809
27248WAT      O81985   3.527   7.339   3.000
27248WAT     H181986   3.543   7.241   3.014
27248WAT     H281987   3.540   7.362   2.904
27249WAT      O81988   7.886   5.626   8.028
27249WAT     H181989   7.819   5.658   8.095
27249WAT     H281990   7.887   5.688   7.950
27250WAT      O81991   4.774   1.507   9.301
27250WAT     H181992   4.730   1.436   9.356
27250WAT     H281993   4.872   1.507   9.319
27251WAT      O81994   6.588   8.939   1.674
27251WAT     H181995   6.688   8.940   1.685
27251WAT     H281996   6.547   9.005   1.737
27252WAT      O81997   8.498   7.219   8.498
27252WAT     H181998   8.533   7.311   8.511
27252WAT     H281999   8.573   7.157   8.474
27253WAT      O82000   3.973   1.945   7.114
27253WAT     H182001   3.997   1.898   7.199
27253WAT     H282002   4.051   2.001   7.085
27254WAT      O82003   2.406   1.015   0.691
27254WAT     H182004   2.310   1.009   0.718
27254WAT     H282005   2.450   1.089   0.742
27255WAT      O82006   6.459   8.880   2.107
27255WAT     H182007   6.459   8.939   2.026
27255WAT     H282008   6.527   8.914   2.173
27256WAT      O82009   9.022   4.678   9.695
27256WAT     H182010   9.108   4.670   9.645
27256WAT     H282011   8.949   4.631   9.644
27257WAT      O82012   2.919   7.610   6.019
27257WAT     H182013   2.969   7.645   5.939
27257WAT     H282014   2.976   7.618   6.100
27258WAT      O82015   3.884   4.809   9.581
27258WAT     H182016   3.984   4.807   9.590
27258WAT     H282017   3.854   4.732   9.525
27259WAT      O82018   9.253   4.779   4.155
27259WAT     H182019   9.153   4.784   4.155
27259WAT     H282020   9.287   4.816   4.242
27260WAT      O82021   3.485   2.559   4.301
27260WAT     H182022   3.512   2.655   4.299
27260WAT     H282023   3.541   2.507   4.237
27261WAT      O82024   8.600   7.972   3.281
27261WAT     H182025   8.537   7.905   3.320
27261WAT     H282026   8.562   8.006   3.195
27262WAT      O82027   0.235   3.728   0.573
27262WAT     H182028   0.281   3.738   0.661
27262WAT     H282029   0.178   3.646   0.574
27263WAT      O82030   6.258   4.525   3.434
27263WAT     H182031   6.302   4.441   3.401
27263WAT     H282032   6.165   4.530   3.398
27264WAT      O82033   3.912   4.971   5.158
27264WAT     H182034   3.989   4.907   5.160
27264WAT     H282035   3.866   4.966   5.069
27265WAT      O82036   6.409   6.393   3.750
27265WAT     H182037   6.358   6.370   3.667
27265WAT     H282038   6.403   6.317   3.815
27266WAT      O82039   0.182   8.175   4.817
27266WAT     H182040   0.252   8.107   4.795
27266WAT     H282041   0.166   8.175   4.916
27267WAT      O82042   9.630   2.371   6.103
27267WAT     H182043   9.688   2.428   6.161
27267WAT     H282044   9.672   2.281   6.093
27268WAT      O82045   4.789   7.214   7.878
27268WAT     H182046   4.692   7.193   7.878
27268WAT     H282047   4.837   7.151   7.817
27269WAT      O82048   9.055   5.287   5.978
27269WAT     H182049   9.020   5.280   6.071
27269WAT     H282050   9.125   5.358   5.974
27270WAT      O82051   1.575   3.558   0.260
27270WAT     H182052   1.579   3.524   0.354
27270WAT     H282053   1.638   3.635   0.251
27271WAT      O82054   4.402   6.199   9.341
27271WAT     H182055   4.396   6.182   9.243
27271WAT     H282056   4.415   6.112   9.389
27272WAT      O82057   4.465   0.399   9.207
27272WAT     H182058   4.488   0.493   9.186
27272WAT     H282059   4.518   0.337   9.150
27273WAT      O82060   6.512   7.397   2.497
27273WAT     H182061   6.458   7.477   2.524
27273WAT     H282062   6.607   7.424   2.480
27274WAT      O82063   9.338   4.818   5.227
27274WAT     H182064   9.301   4.733   5.265
27274WAT     H282065   9.438   4.812   5.225
27275WAT      O82066   7.158   2.900   2.303
27275WAT     H182067   7.183   2.823   2.361
27275WAT     H282068   7.170   2.985   2.354
27276WAT      O82069   4.066   7.587   6.450
27276WAT     H182070   4.118   7.508   6.419
27276WAT     H282071   4.076   7.596   6.549
27277WAT      O82072   3.916   6.663   4.996
27277WAT     H182073   3.906   6.569   4.966
27277WAT     H282074   4.010   6.678   5.028
27278WAT      O82075   4.145   5.970   7.827
27278WAT     H182076   4.128   5.920   7.742
27278WAT     H282077   4.196   5.912   7.891
27279WAT      O82078   3.858   9.195   1.860
27279WAT     H182079   3.884   9.253   1.937
27279WAT     H282080   3.850   9.100   1.891
27280WAT      O82081   1.848   6.411   7.096
27280WAT     H182082   1.789   6.492   7.102
27280WAT     H282083   1.944   6.441   7.090
27281WAT      O82084   1.626   0.793   6.553
27281WAT     H182085   1.540   0.844   6.551
27281WAT     H282086   1.646   0.766   6.647
27282WAT      O82087   5.130   6.182   0.059
27282WAT     H182088   5.127   6.098   0.004
27282WAT     H282089   5.062   6.247   0.024
27283WAT      O82090   6.975   0.261   3.127
27283WAT     H182091   6.920   0.198   3.182
27283WAT     H282092   7.016   0.211   3.051
27284WAT      O82093   9.614   0.723   8.534
27284WAT     H182094   9.668   0.762   8.608
27284WAT     H282095   9.539   0.785   8.511
27285WAT      O82096   6.247   1.977   7.587
27285WAT     H182097   6.250   1.877   7.578
27285WAT     H282098   6.167   2.003   7.641
27286WAT      O82099   2.429   6.812   7.951
27286WAT     H182100   2.484   6.747   7.896
27286WAT     H282101   2.420   6.777   8.044
27287WAT      O82102   3.142   0.659   6.525
27287WAT     H182103   3.042   0.662   6.531
27287WAT     H282104   3.173   0.705   6.442
27288WAT      O82105   3.830   4.784   4.177
27288WAT     H182106   3.917   4.749   4.212
27288WAT     H282107   3.775   4.818   4.254
27289WAT      O82108   3.746   8.015   6.077
27289WAT     H182109   3.746   7.918   6.102
27289WAT     H282110   3.827   8.035   6.021
27290WAT      O82111   3.457   7.918   8.464
27290WAT     H182112   3.418   8.000   8.421
27290WAT     H282113   3.398   7.889   8.539
27291WAT      O82114   7.057   8.614   3.831
27291WAT     H182115   7.126   8.607   3.903
27291WAT     H282116   7.004   8.530   3.827
27292WAT      O82117   5.091   7.916   7.361
27292WAT     H182118   5.093   8.013   7.336
27292WAT     H282119   5.120   7.905   7.456
27293WAT      O82120   2.023   1.077   4.398
27293WAT     H182121   2.109   1.129   4.396
27293WAT     H282122   2.019   1.024   4.483
27294WAT      O82123   3.780   3.606   4.570
27294WAT     H182124   3.868   3.559   4.576
27294WAT     H282125   3.707   3.539   4.563
27295WAT      O82126   5.340   3.567   4.183
27295WAT     H182127   5.382   3.636   4.242
27295WAT     H282128   5.400   3.550   4.105
27296WAT      O82129   6.329   8.814   5.946
27296WAT     H182130   6.339   8.913   5.955
27296WAT     H282131   6.419   8.772   5.940
27297WAT      O82132   1.836   2.984   9.548
27297WAT     H182133   1.820   3.017   9.641
27297WAT     H282134   1.843   3.062   9.486
27298WAT      O82135   7.057   4.793   8.322
27298WAT     H182136   7.011   4.805   8.410
27298WAT     H282137   7.019   4.714   8.274
27299WAT      O82138   1.892   7.920   9.264
27299WAT     H182139   1.952   7.939   9.186
27299WAT     H282140   1.948   7.898   9.344
27300WAT      O82141   9.892   0.902   0.228
27300WAT     H182142   9.829   0.825   0.242
27300WAT     H282143   9.851   0.986   0.264
27301WAT      O82144   9.832   1.949   3.948
27301WAT     H182145   9.862   1.891   3.873
27301WAT     H282146   9.864   2.043   3.934
27302WAT      O82147   3.940   7.810   1.387
27302WAT     H182148   3.884   7.868   1.327
27302WAT     H282149   3.898   7.720   1.395
27303WAT      O82150   2.244   4.860   9.421
27303WAT     H182151   2.152   4.823   9.417
27303WAT     H282152   2.268   4.900   9.332
27304WAT      O82153   2.340   8.670   3.709
27304WAT     H182154   2.346   8.684   3.610
27304WAT     H282155   2.366   8.576   3.731
27305WAT      O82156   2.495   2.350   8.529
27305WAT     H182157   2.564   2.399   8.477
27305WAT     H282158   2.435   2.415   8.576
27306WAT      O82159   6.248   5.986   3.134
27306WAT     H182160   6.305   6.054   3.088
27306WAT     H282161   6.189   6.032   3.201
27307WAT      O82162   7.374   5.166   2.021
27307WAT     H182163   7.290   5.200   1.978
27307WAT     H282164   7.437   5.135   1.951
27308WAT      O82165   8.753   6.492   2.462
27308WAT     H182166   8.819   6.553   2.417
27308WAT     H282167   8.756   6.402   2.418
27309WAT      O82168   3.717   9.118   4.550
27309WAT     H182169   3.752   9.183   4.617
27309WAT     H282170   3.658   9.165   4.485
27310WAT      O82171   2.607   0.348   0.468
27310WAT     H182172   2.525   0.404   0.480
27310WAT     H282173   2.624   0.296   0.551
27311WAT      O82174   1.650   4.241   3.655
27311WAT     H182175   1.615   4.286   3.573
27311WAT     H282176   1.740   4.277   3.677
27312WAT      O82177   8.467   9.582   0.150
27312WAT     H182178   8.479   9.625   0.061
27312WAT     H282179   8.421   9.494   0.139
27313WAT      O82180   0.880   1.884   3.088
27313WAT     H182181   0.868   1.865   3.186
27313WAT     H282182   0.831   1.815   3.035
27314WAT      O82183   8.847   4.104   2.437
27314WAT     H182184   8.831   4.020   2.488
27314WAT     H282185   8.775   4.170   2.457
27315WAT      O82186   9.875   2.280   9.791
27315WAT     H182187   9.930   2.350   9.744
27315WAT     H282188   9.788   2.319   9.820
27316WAT      O82189   8.671   6.130   3.484
27316WAT     H182190   8.726   6.148   3.402
27316WAT     H282191   8.703   6.045   3.527
27317WAT      O82192   8.772   5.150   7.026
27317WAT     H182193   8.704   5.144   7.099
27317WAT     H282194   8.745   5.089   6.951
27318WAT      O82195   5.194   4.772   9.874
27318WAT     H182196   5.145   4.688   9.853
27318WAT     H282197   5.202   4.782   9.973
27319WAT      O82198   5.203   1.508   1.997
27319WAT     H182199   5.142   1.575   2.041
27319WAT     H282200   5.291   1.551   1.978
27320WAT      O82201   3.694   1.508   6.721
27320WAT     H182202   3.742   1.504   6.634
27320WAT     H282203   3.625   1.435   6.725
27321WAT      O82204   8.299   5.664   0.736
27321WAT     H182205   8.231   5.730   0.767
27321WAT     H282206   8.272   5.629   0.646
27322WAT      O82207   4.842   0.293   1.712
27322WAT     H182208   4.783   0.308   1.632
27322WAT     H282209   4.931   0.335   1.696
27323WAT      O82210   2.788   1.104   4.320
27323WAT     H182211   2.820   1.158   4.242
27323WAT     H282212   2.860   1.041   4.349
27324WAT      O82213   1.257   9.301   8.670
27324WAT     H182214   1.317   9.280   8.748
27324WAT     H282215   1.162   9.287   8.696
27325WAT      O82216   9.492   2.782   2.466
27325WAT     H182217   9.434   2.788   2.385
27325WAT     H282218   9.561   2.854   2.463
27326WAT      O82219   3.938   2.615   9.080
27326WAT     H182220   3.955   2.613   9.178
27326WAT     H282221   3.971   2.701   9.042
27327WAT      O82222   2.222   6.490   5.107
27327WAT     H182223   2.133   6.461   5.142
27327WAT     H282224   2.255   6.567   5.162
27328WAT      O82225   3.936   8.218   5.927
27328WAT     H182226   4.027   8.184   5.906
27328WAT     H282227   3.871   8.183   5.860
27329WAT      O82228   3.152   0.005   8.230
27329WAT     H182229   3.140  -0.048   8.146
27329WAT     H282230   3.070   0.060   8.247
27330WAT      O82231   8.668   3.681   0.329
27330WAT     H182232   8.664   3.740   0.409
27330WAT     H282233   8.754   3.697   0.280
27331WAT      O82234   3.091   2.227   4.570
27331WAT     H182235   3.158   2.294   4.537
27331WAT     H282236   3.102   2.142   4.518
27332WAT      O82237   4.638   7.451   0.306
27332WAT     H182238   4.632   7.550   0.299
27332WAT     H282239   4.638   7.411   0.215
27333WAT      O82240   4.443   3.493   5.759
27333WAT     H182241   4.536   3.455   5.755
27333WAT     H282242   4.442   3.583   5.715
27334WAT      O82243   1.203   5.587   4.072
27334WAT     H182244   1.219   5.662   4.136
27334WAT     H282245   1.112   5.548   4.088
27335WAT      O82246   0.965   0.840   7.874
27335WAT     H182247   0.942   0.933   7.845
27335WAT     H282248   1.062   0.823   7.856
27336WAT      O82249   8.109   3.606   3.177
27336WAT     H182250   8.075   3.699   3.164
27336WAT     H282251   8.088   3.574   3.269
27337WAT      O82252   6.309   1.347   3.966
27337WAT     H182253   6.293   1.283   4.041
27337WAT     H282254   6.382   1.312   3.908
27338WAT      O82255   2.826   1.643   0.348
27338WAT     H182256   2.774   1.687   0.274
27338WAT     H282257   2.768   1.636   0.430
27339WAT      O82258   6.451   5.926   5.028
27339WAT     H182259   6.356   5.893   5.029
27339WAT     H282260   6.476   5.958   5.119
27340WAT      O82261   4.372   8.217   2.289
27340WAT     H182262   4.350   8.312   2.309
27340WAT     H282263   4.289   8.170   2.257
27341WAT      O82264   1.866   2.360   4.167
27341WAT     H182265   1.860   2.296   4.091
27341WAT     H282266   1.913   2.317   4.244
27342WAT      O82267   0.110   7.584   3.108
27342WAT     H182268   0.013   7.601   3.094
27342WAT     H282269   0.154   7.667   3.143
27343WAT      O82270   8.027   6.816   7.575
27343WAT     H182271   7.987   6.847   7.489
27343WAT     H282272   7.980   6.860   7.651
27344WAT      O82273   2.161   8.534   8.560
27344WAT     H182274   2.191   8.601   8.628
27344WAT     H282275   2.063   8.547   8.541
27345WAT      O82276   9.835   0.219   6.793
27345WAT     H182277   9.931   0.244   6.798
27345WAT     H282278   9.796   0.255   6.708
27346WAT      O82279   9.831   8.153   0.801
27346WAT     H182280   9.885   8.078   0.838
27346WAT     H282281   9.797   8.128   0.710
27347WAT      O82282   2.509   4.637   3.855
27347WAT     H182283   2.448   4.645   3.933
27347WAT     H282284   2.594   4.591   3.883
27348WAT      O82285   9.366   0.094   3.362
27348WAT     H182286   9.315   0.130   3.284
27348WAT     H282287   9.452   0.056   3.330
27349WAT      O82288   2.876   9.822   9.102
27349WAT     H182289   2.782   9.845   9.126
27349WAT     H282290   2.938   9.856   9.173
27350WAT      O82291   2.076   6.080   5.268
27350WAT     H182292   1.983   6.117   5.277
27350WAT     H282293   2.134   6.116   5.341
27351WAT      O82294   0.925   1.690   8.286
27351WAT     H182295   0.992   1.755   8.253
27351WAT     H282296   0.851   1.681   8.219
27352WAT      O82297   6.363   0.682   7.441
27352WAT     H182298   6.287   0.679   7.376
27352WAT     H282299   6.386   0.590   7.470
27353WAT      O82300   1.494   2.971   0.315
27353WAT     H182301   1.406   3.014   0.297
27353WAT     H282302   1.563   3.042   0.330
27354WAT      O82303   4.519   9.465   1.353
27354WAT     H182304   4.556   9.554   1.378
27354WAT     H282305   4.595   9.400   1.339
27355WAT      O82306   1.373   0.327   4.681
27355WAT     H182307   1.368   0.337   4.780
27355WAT     H282308   1.341   0.236   4.654
27356WAT      O82309   0.041   4.280   0.845
27356WAT     H182310  -0.030   4.276   0.915
27356WAT     H282311   0.036   4.369   0.799
27357WAT      O82312   2.522   5.869   7.363
27357WAT     H182313   2.439   5.904   7.409
27357WAT     H282314   2.561   5.941   7.307
27358WAT      O82315   7.676   4.696   6.660
27358WAT     H182316   7.774   4.712   6.671
27358WAT     H282317   7.641   4.646   6.740
27359WAT      O82318   6.245   2.216   8.635
27359WAT     H182319   6.306   2.201   8.557
27359WAT     H282320   6.173   2.281   8.610
27360WAT      O82321   2.366   8.390   0.255
27360WAT     H182322   2.354   8.468   0.316
27360WAT     H282323   2.389   8.422   0.163
27361WAT      O82324   7.083   9.406   9.848
27361WAT     H182325   6.984   9.407   9.834
27361WAT     H282326   7.128   9.459   9.776
27362WAT      O82327   0.889   0.809   5.893
27362WAT     H182328   0.983   0.775   5.883
27362WAT     H282329   0.832   0.773   5.819
27363WAT      O82330   7.146   8.941   5.458
27363WAT     H182331   7.144   8.956   5.359
27363WAT     H282332   7.214   9.001   5.499
27364WAT      O82333   2.039   2.716   5.887
27364WAT     H182334   2.134   2.687   5.870
27364WAT     H282335   2.014   2.694   5.981
27365WAT      O82336   9.506   1.950   2.981
27365WAT     H182337   9.533   2.030   2.927
27365WAT     H282338   9.550   1.868   2.945
27366WAT      O82339   3.633   9.617   4.024
27366WAT     H182340   3.607   9.648   4.115
27366WAT     H282341   3.685   9.532   4.031
27367WAT      O82342   9.874   3.902   5.649
27367WAT     H182343   9.819   3.819   5.639
27367WAT     H282344   9.952   3.884   5.709
27368WAT      O82345   5.592   6.791   9.200
27368WAT     H182346   5.557   6.884   9.184
27368WAT     H282347   5.549   6.753   9.282
27369WAT      O82348   2.810   6.100   8.453
27369WAT     H182349   2.822   6.193   8.420
27369WAT     H282350   2.848   6.091   8.545
27370WAT      O82351   9.007   4.323   6.543
27370WAT     H182352   8.972   4.239   6.585
27370WAT     H282353   9.106   4.329   6.559
27371WAT      O82354   5.160   3.883   0.093
27371WAT     H182355   5.171   3.825   0.173
27371WAT     H282356   5.207   3.841   0.015
27372WAT      O82357   4.504   6.149   6.885
27372WAT     H182358   4.550   6.140   6.797
27372WAT     H282359   4.429   6.214   6.877
27373WAT      O82360   5.698   1.798   5.951
27373WAT     H182361   5.683   1.790   5.853
27373WAT     H282362   5.750   1.881   5.970
27374WAT      O82363   7.849   0.069   9.063
27374WAT     H182364   7.828   0.166   9.067
27374WAT     H282365   7.767   0.017   9.040
27375WAT      O82366   5.361   3.221   4.249
27375WAT     H182367   5.283   3.203   4.189
27375WAT     H282368   5.440   3.248   4.194
27376WAT      O82369   0.689   1.651   2.600
27376WAT     H182370   0.781   1.688   2.611
27376WAT     H282371   0.624   1.727   2.592
27377WAT      O82372   2.112   0.134   8.569
27377WAT     H182373   2.165   0.201   8.517
27377WAT     H282374   2.016   0.163   8.571
27378WAT      O82375   1.510   2.134   9.256
27378WAT     H182376   1.588   2.186   9.222
27378WAT     H282377   1.434   2.141   9.192
27379WAT      O82378   9.109   5.778   5.173
27379WAT     H182379   9.073   5.821   5.090
27379WAT     H282380   9.034   5.758   5.236
27380WAT      O82381   4.613   8.585   6.361
27380WAT     H182382   4.703   8.628   6.364
27380WAT     H282383   4.623   8.488   6.339
27381WAT      O82384   0.049   6.716   3.024
27381WAT     H182385   0.061   6.637   2.964
27381WAT     H282386  -0.045   6.717   3.060
27382WAT      O82387   2.889   5.852   0.938
27382WAT     H182388   2.851   5.878   0.849
27382WAT     H282389   2.958   5.919   0.965
27383WAT      O82390   8.804   2.895   0.590
27383WAT     H182391   8.858   2.831   0.645
27383WAT     H282392   8.852   2.914   0.504
27384WAT      O82393   4.663   5.952   1.245
27384WAT     H182394   4.594   5.880   1.254
27384WAT     H282395   4.738   5.920   1.187
27385WAT      O82396   6.654   9.182   8.802
27385WAT     H182397   6.730   9.236   8.767
27385WAT     H282398   6.584   9.172   8.731
27386WAT      O82399   2.398   2.270   2.534
27386WAT     H182400   2.322   2.303   2.477
27386WAT     H282401   2.473   2.336   2.530
27387WAT      O82402   1.711   4.046   1.172
27387WAT     H182403   1.670   4.029   1.083
27387WAT     H282404   1.711   3.962   1.226
27388WAT      O82405   7.720   9.681   8.630
27388WAT     H182406   7.697   9.601   8.575
27388WAT     H282407   7.774   9.652   8.709
27389WAT      O82408   4.314   8.162   9.735
27389WAT     H182409   4.250   8.183   9.661
27389WAT     H282410   4.276   8.195   9.822
27390WAT      O82411   6.420   6.194   2.585
27390WAT     H182412   6.511   6.168   2.619
27390WAT     H282413   6.425   6.282   2.539
27391WAT      O82414   6.932   0.339   9.119
27391WAT     H182415   7.021   0.364   9.080
27391WAT     H282416   6.898   0.416   9.173
27392WAT      O82417   8.896   2.123   4.884
27392WAT     H182418   8.952   2.082   4.813
27392WAT     H282419   8.927   2.092   4.974
27393WAT      O82420   8.537   4.759   3.210
27393WAT     H182421   8.602   4.828   3.239
27393WAT     H282422   8.451   4.803   3.184
27394WAT      O82423   4.476   2.943   5.661
27394WAT     H182424   4.505   2.890   5.741
27394WAT     H282425   4.480   2.884   5.580
27395WAT      O82426   0.348   7.731   7.215
27395WAT     H182427   0.412   7.735   7.292
27395WAT     H282428   0.255   7.738   7.249
27396WAT      O82429   9.171   8.583   6.948
27396WAT     H182430   9.234   8.564   6.872
27396WAT     H282431   9.117   8.664   6.926
27397WAT      O82432   7.694   3.306   5.390
27397WAT     H182433   7.723   3.389   5.438
27397WAT     H282434   7.744   3.228   5.427
27398WAT      O82435   7.633   6.375   7.498
27398WAT     H182436   7.557   6.336   7.551
27398WAT     H282437   7.709   6.395   7.559
27399WAT      O82438   2.268   7.553   3.191
27399WAT     H182439   2.231   7.620   3.127
27399WAT     H282440   2.316   7.481   3.140
27400WAT      O82441   8.172   6.679   5.469
27400WAT     H182442   8.255   6.628   5.447
27400WAT     H282443   8.188   6.735   5.550
27401WAT      O82444   3.941   4.992   1.415
27401WAT     H182445   3.926   4.898   1.444
27401WAT     H282446   3.909   5.054   1.487
27402WAT      O82447   3.864   3.905   8.171
27402WAT     H182448   3.883   3.811   8.196
27402WAT     H282449   3.903   3.967   8.238
27403WAT      O82450   9.385   0.091   0.299
27403WAT     H182451   9.473   0.052   0.325
27403WAT     H282452   9.312   0.049   0.354
27404WAT      O82453   5.134   6.154   5.732
27404WAT     H182454   5.224   6.155   5.776
27404WAT     H282455   5.104   6.248   5.716
27405WAT      O82456   9.776   7.566   0.583
27405WAT     H182457   9.811   7.563   0.490
27405WAT     H282458   9.695   7.508   0.591
27406WAT      O82459   2.670   1.620   5.690
27406WAT     H182460   2.748   1.561   5.669
27406WAT     H282461   2.704   1.709   5.724
27407WAT      O82462   8.094   1.855   4.073
27407WAT     H182463   8.038   1.773   4.060
27407WAT     H282464   8.121   1.862   4.169
27408WAT      O82465   4.166   2.022   4.007
27408WAT     H182466   4.203   2.069   3.927
27408WAT     H282467   4.076   2.060   4.029
27409WAT      O82468   1.931   0.855   7.427
27409WAT     H182469   2.026   0.867   7.452
27409WAT     H282470   1.925   0.834   7.329
27410WAT      O82471   9.362   6.168   9.016
27410WAT     H182472   9.358   6.267   9.003
27410WAT     H282473   9.440   6.144   9.073
27411WAT      O82474   5.052   2.916   4.592
27411WAT     H182475   5.052   2.899   4.493
27411WAT     H282476   4.985   2.988   4.612
27412WAT      O82477   2.635   0.230   6.444
27412WAT     H182478   2.562   0.246   6.377
27412WAT     H282479   2.611   0.151   6.501
27413WAT      O82480   6.054   9.721   9.079
27413WAT     H182481   6.113   9.721   8.998
27413WAT     H282482   6.108   9.697   9.160
27414WAT      O82483   0.287   0.997   8.624
27414WAT     H182484   0.379   0.974   8.656
27414WAT     H282485   0.274   1.095   8.630
27415WAT      O82486   7.301   3.903   2.033
27415WAT     H182487   7.225   3.864   2.084
27415WAT     H282488   7.274   3.914   1.937
27416WAT      O82489   1.123   6.380   3.337
27416WAT     H182490   1.152   6.439   3.262
27416WAT     H282491   1.028   6.352   3.324
27417WAT      O82492   9.106   3.574   2.732
27417WAT     H182493   9.014   3.613   2.741
27417WAT     H282494   9.173   3.634   2.776
27418WAT      O82495   9.847   5.512   2.765
27418WAT     H182496   9.756   5.499   2.804
27418WAT     H282497   9.839   5.527   2.667
27419WAT      O82498   9.450   4.023   1.819
27419WAT     H182499   9.375   4.075   1.860
27419WAT     H282500   9.531   4.082   1.813
27420WAT      O82501   9.332   7.835   1.708
27420WAT     H182502   9.271   7.800   1.779
27420WAT     H282503   9.293   7.918   1.668
27421WAT      O82504   7.370   2.073   9.153
27421WAT     H182505   7.395   2.168   9.139
27421WAT     H282506   7.342   2.032   9.067
27422WAT      O82507   1.312   4.297   4.407
27422WAT     H182508   1.213   4.300   4.415
27422WAT     H282509   1.352   4.379   4.447
27423WAT      O82510   6.196   1.139   0.553
27423WAT     H182511   6.198   1.119   0.455
27423WAT     H282512   6.254   1.074   0.601
27424WAT      O82513   1.942   5.484   9.273
27424WAT     H182514   2.040   5.481   9.292
27424WAT     H282515   1.910   5.579   9.280
27425WAT      O82516   6.172   5.243   8.263
27425WAT     H182517   6.242   5.172   8.265
27425WAT     H282518   6.187   5.308   8.338
27426WAT      O82519   2.497   0.377   2.829
27426WAT     H182520   2.501   0.438   2.908
27426WAT     H282521   2.588   0.371   2.786
27427WAT      O82522   2.496   5.886   9.201
27427WAT     H182523   2.551   5.930   9.130
27427WAT     H282524   2.531   5.794   9.219
27428WAT      O82525   5.401   1.134   0.922
27428WAT     H182526   5.390   1.052   0.867
27428WAT     H282527   5.331   1.201   0.898
27429WAT      O82528   6.899   8.189   8.574
27429WAT     H182529   6.932   8.224   8.662
27429WAT     H282530   6.809   8.229   8.554
27430WAT      O82531   2.021   1.661   7.448
27430WAT     H182532   1.938   1.620   7.487
27430WAT     H282533   2.063   1.597   7.384
27431WAT      O82534   6.781   8.118   9.674
27431WAT     H182535   6.836   8.152   9.598
27431WAT     H282536   6.836   8.113   9.757
27432WAT      O82537   5.898   0.133   8.585
27432WAT     H182538   5.825   0.155   8.520
27432WAT     H282539   5.857   0.097   8.670
27433WAT      O82540   9.275   2.281   4.861
27433WAT     H182541   9.346   2.213   4.845
27433WAT     H282542   9.264   2.294   4.960
27434WAT      O82543   2.891   7.868   1.621
27434WAT     H182544   2.823   7.936   1.644
27434WAT     H282545   2.980   7.912   1.607
27435WAT      O82546   0.872   4.459   5.055
27435WAT     H182547   0.799   4.527   5.042
27435WAT     H282548   0.960   4.502   5.036
27436WAT      O82549   9.275   3.643   9.534
27436WAT     H182550   9.188   3.650   9.585
27436WAT     H282551   9.349   3.677   9.592
27437WAT      O82552   8.279   7.516   1.338
27437WAT     H182553   8.294   7.417   1.337
27437WAT     H282554   8.243   7.543   1.428
27438WAT      O82555   9.336   3.397   0.629
27438WAT     H182556   9.281   3.422   0.709
27438WAT     H282557   9.431   3.381   0.658
27439WAT      O82558   1.255   1.540   3.112
27439WAT     H182559   1.247   1.637   3.088
27439WAT     H282560   1.349   1.509   3.096
27440WAT      O82561   9.295   0.695   3.227
27440WAT     H182562   9.230   0.698   3.152
27440WAT     H282563   9.250   0.660   3.309
27441WAT      O82564   4.054   7.732   9.451
27441WAT     H182565   4.080   7.644   9.490
27441WAT     H282566   4.134   7.777   9.410
27442WAT      O82567   7.781   9.000   1.562
27442WAT     H182568   7.701   8.963   1.514
27442WAT     H282569   7.795   8.949   1.647
27443WAT      O82570   4.337   9.328   0.009
27443WAT     H182571   4.258   9.339   0.069
27443WAT     H282572   4.314   9.364  -0.082
27444WAT      O82573   2.554   0.805   3.084
27444WAT     H182574   2.647   0.783   3.055
27444WAT     H282575   2.533   0.900   3.061
27445WAT      O82576   6.336   2.591   0.781
27445WAT     H182577   6.243   2.610   0.750
27445WAT     H282578   6.396   2.666   0.754
27446WAT      O82579   1.410   0.583   1.747
27446WAT     H182580   1.455   0.635   1.820
27446WAT     H282581   1.393   0.643   1.669
27447WAT      O82582   9.157   4.850   4.996
27447WAT     H182583   9.062   4.845   5.025
27447WAT     H282584   9.214   4.800   5.062
27448WAT      O82585   6.953   8.841   1.958
27448WAT     H182586   6.955   8.771   2.029
27448WAT     H282587   7.032   8.902   1.969
27449WAT      O82588   8.102   5.975   4.442
27449WAT     H182589   8.058   5.894   4.479
27449WAT     H282590   8.033   6.037   4.404
27450WAT      O82591   2.418   5.670   0.391
27450WAT     H182592   2.402   5.669   0.490
27450WAT     H282593   2.433   5.577   0.359
27451WAT      O82594   8.850   1.099   8.071
27451WAT     H182595   8.857   1.039   8.151
27451WAT     H282596   8.760   1.142   8.069
27452WAT      O82597   3.278   8.045   1.838
27452WAT     H182598   3.366   8.064   1.883
27452WAT     H282599   3.231   7.971   1.887
27453WAT      O82600   7.883   3.430   6.201
27453WAT     H182601   7.884   3.330   6.190
27453WAT     H282602   7.828   3.470   6.127
27454WAT      O82603   1.284   1.079   7.618
27454WAT     H182604   1.198   1.046   7.578
27454WAT     H282605   1.278   1.177   7.634
27455WAT      O82606   0.583   0.345   6.877
27455WAT     H182607   0.530   0.411   6.823
27455WAT     H282608   0.570   0.364   6.975
27456WAT      O82609   7.312   1.284   8.133
27456WAT     H182610   7.335   1.328   8.219
27456WAT     H282611   7.395   1.274   8.078
27457WAT      O82612   2.601   4.018   3.082
27457WAT     H182613   2.551   3.963   3.015
27457WAT     H282614   2.582   3.985   3.174
27458WAT      O82615   1.352   7.828   1.980
27458WAT     H182616   1.280   7.836   2.049
27458WAT     H282617   1.326   7.876   1.897
27459WAT      O82618   6.928   6.181   3.170
27459WAT     H182619   6.889   6.140   3.253
27459WAT     H282620   7.003   6.242   3.195
27460WAT      O82621   7.298   7.197   7.103
27460WAT     H182622   7.253   7.172   7.017
27460WAT     H282623   7.322   7.294   7.101
27461WAT      O82624   3.541   1.261   2.186
27461WAT     H182625   3.599   1.221   2.258
27461WAT     H282626   3.468   1.197   2.163
27462WAT      O82627   5.247   1.460   5.792
27462WAT     H182628   5.163   1.479   5.843
27462WAT     H282629   5.225   1.419   5.704
27463WAT      O82630   1.321   1.604   3.993
27463WAT     H182631   1.383   1.526   4.010
27463WAT     H282632   1.375   1.687   3.985
27464WAT      O82633   1.182   6.642   4.905
27464WAT     H182634   1.223   6.701   4.835
27464WAT     H282635   1.253   6.584   4.945
27465WAT      O82636   2.064   3.489   8.597
27465WAT     H182637   1.976   3.501   8.551
27465WAT     H282638   2.106   3.404   8.566
27466WAT      O82639   2.251   0.282   8.373
27466WAT     H182640   2.191   0.244   8.302
27466WAT     H282641   2.335   0.227   8.378
27467WAT      O82642   8.498   0.534   0.473
27467WAT     H182643   8.588   0.565   0.503
27467WAT     H282644   8.440   0.519   0.553
27468WAT      O82645   4.959   4.573   7.912
27468WAT     H182646   4.867   4.594   7.946
27468WAT     H282647   4.972   4.474   7.909
27469WAT      O82648   8.186   3.063   4.021
27469WAT     H182649   8.264   3.057   3.959
27469WAT     H282650   8.115   2.999   3.993
27470WAT      O82651   1.910   1.417   0.739
27470WAT     H182652   1.829   1.359   0.744
27470WAT     H282653   1.917   1.471   0.823
27471WAT      O82654   4.850   7.373   4.125
27471WAT     H182655   4.812   7.320   4.200
27471WAT     H282656   4.942   7.339   4.103
27472WAT      O82657   0.363   0.171   5.953
27472WAT     H182658   0.375   0.100   6.022
27472WAT     H282659   0.269   0.205   5.957
27473WAT      O82660   5.681   8.143   5.647
27473WAT     H182661   5.655   8.062   5.698
27473WAT     H282662   5.667   8.224   5.704
27474WAT      O82663   8.954   5.762   3.783
27474WAT     H182664   8.855   5.751   3.786
27474WAT     H282665   8.997   5.701   3.849
27475WAT      O82666   4.729   5.694   6.650
27475WAT     H182667   4.713   5.641   6.733
27475WAT     H282668   4.800   5.762   6.667
27476WAT      O82669   8.679   5.826   1.548
27476WAT     H182670   8.711   5.833   1.643
27476WAT     H282671   8.655   5.731   1.528
27477WAT      O82672   9.848   6.854   8.286
27477WAT     H182673   9.868   6.860   8.188
27477WAT     H282674   9.934   6.850   8.337
27478WAT      O82675   2.513   6.774   2.367
27478WAT     H182676   2.532   6.678   2.346
27478WAT     H282677   2.570   6.833   2.310
27479WAT      O82678   1.306   7.992   8.423
27479WAT     H182679   1.311   7.905   8.472
27479WAT     H282680   1.379   7.996   8.355
27480WAT      O82681   4.254   5.732   8.588
27480WAT     H182682   4.243   5.670   8.666
27480WAT     H282683   4.299   5.683   8.513
27481WAT      O82684   0.449   4.747   5.526
27481WAT     H182685   0.505   4.827   5.548
27481WAT     H282686   0.373   4.740   5.591
27482WAT      O82687   5.685   9.369   1.293
27482WAT     H182688   5.773   9.323   1.304
27482WAT     H282689   5.636   9.370   1.380
27483WAT      O82690   6.027   3.768   2.432
27483WAT     H182691   6.053   3.739   2.340
27483WAT     H282692   6.015   3.688   2.491
27484WAT      O82693   6.841   2.490   9.422
27484WAT     H182694   6.751   2.446   9.426
27484WAT     H282695   6.895   2.449   9.347
27485WAT      O82696   3.609   0.316   4.738
27485WAT     H182697   3.649   0.228   4.764
27485WAT     H282698   3.673   0.364   4.677
27486WAT      O82699   3.114   6.241   2.079
27486WAT     H182700   3.199   6.255   2.128
27486WAT     H282701   3.130   6.253   1.981
27487WAT      O82702   2.682   2.469   9.811
27487WAT     H182703   2.692   2.440   9.716
27487WAT     H282704   2.586   2.487   9.831
27488WAT      O82705   0.436   6.430   1.897
27488WAT     H182706   0.464   6.429   1.801
27488WAT     H282707   0.337   6.414   1.902
27489WAT      O82708   3.093   3.772   4.458
27489WAT     H182709   3.114   3.792   4.554
27489WAT     H282710   3.165   3.715   4.419
27490WAT      O82711   1.807   3.643   9.813
27490WAT     H182712   1.879   3.582   9.847
27490WAT     H282713   1.778   3.705   9.886
27491WAT      O82714   0.848   6.909   7.261
27491WAT     H182715   0.841   6.822   7.309
27491WAT     H282716   0.761   6.931   7.218
27492WAT      O82717   5.349   0.252   4.197
27492WAT     H182718   5.430   0.253   4.138
27492WAT     H282719   5.278   0.196   4.155
27493WAT      O82720   5.443   1.123   0.401
27493WAT     H182721   5.494   1.063   0.463
27493WAT     H282722   5.452   1.218   0.432
27494WAT      O82723   9.733   2.958   6.252
27494WAT     H182724   9.817   3.010   6.268
27494WAT     H282725   9.664   3.018   6.213
27495WAT      O82726   7.185   9.359   0.458
27495WAT     H182727   7.171   9.409   0.372
27495WAT     H282728   7.181   9.261   0.440
27496WAT      O82729   0.534   8.035   3.446
27496WAT     H182730   0.535   7.968   3.520
27496WAT     H282731   0.448   8.085   3.447
27497WAT      O82732   5.198   8.137   1.117
27497WAT     H182733   5.118   8.093   1.077
27497WAT     H282734   5.222   8.092   1.203
27498WAT      O82735   8.565   4.725   8.504
27498WAT     H182736   8.478   4.772   8.518
27498WAT     H282737   8.587   4.723   8.406
27499WAT      O82738   4.230   0.344   1.410
27499WAT     H182739   4.266   0.281   1.478
27499WAT     H282740   4.144   0.309   1.374
27500WAT      O82741   6.575   6.206   5.597
27500WAT     H182742   6.612   6.148   5.524
27500WAT     H282743   6.602   6.167   5.686
27501WAT      O82744   1.328   0.601   5.538
27501WAT     H182745   1.409   0.659   5.550
27501WAT     H282746   1.251   0.657   5.507
27502WAT      O82747   5.940   0.026   0.227
27502WAT     H182748   5.992  -0.059   0.229
27502WAT     H282749   5.855   0.014   0.279
27503WAT      O82750   8.952   1.310   6.546
27503WAT     H182751   8.898   1.254   6.483
27503WAT     H282752   8.981   1.254   6.624
27504WAT      O82753   8.992   7.111   8.556
27504WAT     H182754   8.921   7.071   8.614
27504WAT     H282755   9.061   7.155   8.614
27505WAT      O82756   5.006   9.344   0.805
27505WAT     H182757   5.090   9.393   0.826
27505WAT     H282758   4.934   9.372   0.868
27506WAT      O82759   0.797   6.931   6.867
27506WAT     H182760   0.801   6.988   6.785
27506WAT     H282761   0.701   6.915   6.891
27507WAT      O82762   2.498   4.939   4.184
27507WAT     H182763   2.425   4.873   4.169
27507WAT     H282764   2.552   4.950   4.100
27508WAT      O82765   7.407   7.228   2.037
27508WAT     H182766   7.461   7.296   1.987
27508WAT     H282767   7.439   7.224   2.131
27509WAT      O82768   3.238   7.675   5.032
27509WAT     H182769   3.141   7.680   5.053
27509WAT     H282770   3.291   7.670   5.117
27510WAT      O82771   3.645   0.634   9.136
27510WAT     H182772   3.631   0.535   9.131
27510WAT     H282773   3.562   0.677   9.172
27511WAT      O82774   1.096   1.471   3.951
27511WAT     H182775   1.032   1.502   4.020
27511WAT     H282776   1.170   1.537   3.942
27512WAT      O82777   3.468   6.541   2.218
27512WAT     H182778   3.558   6.527   2.177
27512WAT     H282779   3.412   6.598   2.157
27513WAT      O82780   2.747   5.489   3.157
27513WAT     H182781   2.841   5.456   3.170
27513WAT     H282782   2.697   5.426   3.099
27514WAT      O82783   1.075   7.745   3.150
27514WAT     H182784   1.166   7.732   3.189
27514WAT     H282785   1.082   7.792   3.062
27515WAT      O82786   5.988   0.743   8.499
27515WAT     H182787   5.975   0.775   8.405
27515WAT     H282788   5.913   0.775   8.556
27516WAT      O82789   4.036   4.517   2.242
27516WAT     H182790   3.942   4.521   2.206
27516WAT     H282791   4.074   4.426   2.226
27517WAT      O82792   7.512   3.434   2.151
27517WAT     H182793   7.458   3.392   2.078
27517WAT     H282794   7.451   3.482   2.214
27518WAT      O82795   8.712   6.578   1.907
27518WAT     H182796   8.662   6.533   1.981
27518WAT     H282797   8.698   6.529   1.821
27519WAT      O82798   8.318   6.146   6.095
27519WAT     H182799   8.407   6.104   6.075
27519WAT     H282800   8.301   6.220   6.030
27520WAT      O82801   1.548   2.220   0.803
27520WAT     H182802   1.526   2.242   0.898
27520WAT     H282803   1.496   2.280   0.742
27521WAT      O82804   7.549   3.914   6.831
27521WAT     H182805   7.640   3.927   6.869
27521WAT     H282806   7.550   3.934   6.733
27522WAT      O82807   9.162   1.515   2.411
27522WAT     H182808   9.086   1.453   2.392
27522WAT     H282809   9.221   1.522   2.330
27523WAT      O82810   7.735   7.284   2.265
27523WAT     H182811   7.636   7.284   2.276
27523WAT     H282812   7.758   7.283   2.167
27524WAT      O82813   3.650   8.020   3.800
27524WAT     H182814   3.553   8.027   3.827
27524WAT     H282815   3.702   7.978   3.875
27525WAT      O82816   5.079   9.778   2.947
27525WAT     H182817   5.063   9.710   3.018
27525WAT     H282818   5.114   9.732   2.864
27526WAT      O82819   5.859   5.637   3.540
27526WAT     H182820   5.929   5.635   3.612
27526WAT     H282821   5.806   5.553   3.542
27527WAT      O82822   5.715   6.727   6.204
27527WAT     H182823   5.739   6.757   6.112
27527WAT     H282824   5.653   6.649   6.199
27528WAT      O82825   4.371   5.513   7.906
27528WAT     H182826   4.324   5.599   7.924
27528WAT     H282827   4.432   5.492   7.983
27529WAT      O82828   5.075   3.098   1.880
27529WAT     H182829   5.127   3.018   1.848
27529WAT     H282830   5.106   3.179   1.830
27530WAT      O82831   1.142   8.572   8.017
27530WAT     H182832   1.133   8.570   8.117
27530WAT     H282833   1.233   8.607   7.993
27531WAT      O82834   6.461   1.553   2.545
27531WAT     H182835   6.504   1.572   2.457
27531WAT     H282836   6.468   1.634   2.604
27532WAT      O82837   7.297   6.243   6.671
27532WAT     H182838   7.322   6.315   6.736
27532WAT     H282839   7.267   6.162   6.721
27533WAT      O82840   6.478   7.117   6.173
27533WAT     H182841   6.502   7.200   6.222
27533WAT     H282842   6.405   7.138   6.107
27534WAT      O82843   7.757   6.658   4.449
27534WAT     H182844   7.696   6.654   4.370
27534WAT     H282845   7.704   6.654   4.533
27535WAT      O82846   2.097   9.696   3.899
27535WAT     H182847   2.150   9.779   3.882
27535WAT     H282848   2.101   9.638   3.818
27536WAT      O82849   4.155   4.106   7.841
27536WAT     H182850   4.234   4.167   7.831
27536WAT     H282851   4.079   4.157   7.880
27537WAT      O82852   4.689   3.486   1.920
27537WAT     H182853   4.633   3.458   1.999
27537WAT     H282854   4.710   3.406   1.864
27538WAT      O82855   0.295   2.524   5.223
27538WAT     H182856   0.255   2.441   5.184
27538WAT     H282857   0.293   2.597   5.154
27539WAT      O82858   8.516   7.257   2.084
27539WAT     H182859   8.566   7.238   2.000
27539WAT     H282860   8.455   7.335   2.071
27540WAT      O82861   8.932   5.746   8.122
27540WAT     H182862   8.849   5.801   8.119
27540WAT     H282863   9.009   5.801   8.089
27541WAT      O82864   8.082   9.125   8.180
27541WAT     H182865   8.099   9.135   8.278
27541WAT     H282866   8.090   9.215   8.136
27542WAT      O82867   9.248   3.487   4.967
27542WAT     H182868   9.343   3.514   4.956
27542WAT     H282869   9.237   3.391   4.939
27543WAT      O82870   4.345   6.686   7.827
27543WAT     H182871   4.372   6.607   7.773
27543WAT     H282872   4.284   6.657   7.901
27544WAT      O82873   6.563   0.445   0.391
27544WAT     H182874   6.469   0.472   0.413
27544WAT     H282875   6.561   0.366   0.330
27545WAT      O82876   6.890   2.342   0.282
27545WAT     H182877   6.863   2.247   0.296
27545WAT     H282878   6.832   2.384   0.213
27546WAT      O82879   8.254   5.670   4.556
27546WAT     H182880   8.325   5.741   4.552
27546WAT     H282881   8.168   5.711   4.589
27547WAT      O82882   5.551   0.113   9.329
27547WAT     H182883   5.535   0.152   9.239
27547WAT     H282884   5.597   0.025   9.321
27548WAT      O82885   3.574   0.445   2.959
27548WAT     H182886   3.593   0.382   2.883
27548WAT     H282887   3.539   0.394   3.037
27549WAT      O82888   9.688   2.465   6.440
27549WAT     H182889   9.671   2.561   6.417
27549WAT     H282890   9.765   2.431   6.386
27550WAT      O82891   9.694   1.544   9.615
27550WAT     H182892   9.745   1.462   9.641
27550WAT     H282893   9.747   1.625   9.638
27551WAT      O82894   3.884   6.493   3.096
27551WAT     H182895   3.899   6.512   3.193
27551WAT     H282896   3.834   6.407   3.087
27552WAT      O82897   6.221   9.151   7.540
27552WAT     H182898   6.213   9.138   7.441
27552WAT     H282899   6.201   9.246   7.563
27553WAT      O82900   1.211   4.774   9.746
27553WAT     H182901   1.302   4.732   9.750
27553WAT     H282902   1.181   4.795   9.839
27554WAT      O82903   5.996   1.135   3.842
27554WAT     H182904   6.021   1.223   3.803
27554WAT     H282905   5.937   1.085   3.779
27555WAT      O82906   6.484   2.612   6.572
27555WAT     H182907   6.527   2.541   6.628
27555WAT     H282908   6.405   2.573   6.525
27556WAT      O82909   5.803   5.305   8.926
27556WAT     H182910   5.851   5.341   8.846
27556WAT     H282911   5.853   5.330   9.009
27557WAT      O82912   9.583   4.801   8.269
27557WAT     H182913   9.553   4.812   8.364
27557WAT     H282914   9.679   4.830   8.262
27558WAT      O82915   0.193   7.428   6.777
27558WAT     H182916   0.172   7.388   6.688
27558WAT     H282917   0.171   7.362   6.849
27559WAT      O82918   6.969   0.568   7.002
27559WAT     H182919   6.966   0.513   6.919
27559WAT     H282920   6.877   0.578   7.040
27560WAT      O82921   9.654   4.003   2.822
27560WAT     H182922   9.671   4.050   2.909
27560WAT     H282923   9.741   3.982   2.778
27561WAT      O82924   2.220   7.860   5.062
27561WAT     H182925   2.168   7.780   5.093
27561WAT     H282926   2.311   7.859   5.103
27562WAT      O82927   7.285   7.186   2.515
27562WAT     H182928   7.227   7.106   2.499
27562WAT     H282929   7.242   7.267   2.476
27563WAT      O82930   2.926   4.046   4.041
27563WAT     H182931   2.954   3.971   4.101
27563WAT     H282932   2.851   4.015   3.982
27564WAT      O82933   6.861   2.350   4.843
27564WAT     H182934   6.765   2.347   4.814
27564WAT     H282935   6.875   2.433   4.898
27565WAT      O82936   9.058   4.101   5.274
27565WAT     H182937   9.120   4.035   5.316
27565WAT     H282938   9.109   4.182   5.246
27566WAT      O82939   2.717   0.301   0.847
27566WAT     H182940   2.722   0.281   0.945
27566WAT     H282941   2.806   0.335   0.816
27567WAT      O82942   9.158   7.432   4.370
27567WAT     H182943   9.136   7.429   4.272
27567WAT     H282944   9.140   7.342   4.410
27568WAT      O82945   7.046   5.391   3.378
27568WAT     H182946   7.111   5.315   3.376
27568WAT     H282947   7.000   5.397   3.290
27569WAT      O82948   1.127   9.577   1.750
27569WAT     H182949   1.032   9.551   1.736
27569WAT     H282950   1.149   9.657   1.695
27570WAT      O82951   6.535   8.933   3.969
27570WAT     H182952   6.606   8.960   3.904
27570WAT     H282953   6.502   8.841   3.946
27571WAT      O82954   3.776   6.594   9.500
27571WAT     H182955   3.873   6.570   9.507
27571WAT     H282956   3.738   6.604   9.592
27572WAT      O82957   7.520   8.519   3.788
27572WAT     H182958   7.505   8.556   3.880
27572WAT     H282959   7.433   8.516   3.739
27573WAT      O82960   7.201   1.098   0.641
27573WAT     H182961   7.271   1.080   0.711
27573WAT     H282962   7.231   1.061   0.554
27574WAT      O82963   0.237   1.453   9.785
27574WAT     H182964   0.138   1.452   9.800
27574WAT     H282965   0.279   1.519   9.847
27575WAT      O82966   6.426   3.473   0.431
27575WAT     H182967   6.414   3.561   0.478
27575WAT     H282968   6.340   3.446   0.387
27576WAT      O82969   3.626   2.764   8.222
27576WAT     H182970   3.594   2.671   8.203
27576WAT     H282971   3.662   2.769   8.315
27577WAT      O82972   9.698   8.885   8.134
27577WAT     H182973   9.631   8.937   8.187
27577WAT     H282974   9.696   8.789   8.163
27578WAT      O82975   5.465   7.662   8.583
27578WAT     H182976   5.528   7.725   8.628
27578WAT     H282977   5.414   7.709   8.512
27579WAT      O82978   9.009   2.064   7.259
27579WAT     H182979   9.081   2.030   7.199
27579WAT     H282980   9.042   2.143   7.310
27580WAT      O82981   5.352   6.820   2.118
27580WAT     H182982   5.264   6.802   2.161
27580WAT     H282983   5.344   6.810   2.019
27581WAT      O82984   6.115   8.797   3.912
27581WAT     H182985   6.111   8.891   3.944
27581WAT     H282986   6.031   8.774   3.863
27582WAT      O82987   8.604   7.941   1.230
27582WAT     H182988   8.622   8.000   1.309
27582WAT     H282989   8.593   7.997   1.148
27583WAT      O82990   0.946   0.176   4.820
27583WAT     H182991   1.035   0.221   4.825
27583WAT     H282992   0.873   0.244   4.831
27584WAT      O82993   2.213   4.039   7.207
27584WAT     H182994   2.258   4.013   7.292
27584WAT     H282995   2.116   4.014   7.211
27585WAT      O82996   9.133   9.351   0.040
27585WAT     H182997   9.099   9.445   0.036
27585WAT     H282998   9.228   9.351   0.071
27586WAT      O82999   3.035   4.831   9.032
27586WAT     H183000   3.128   4.851   9.061
27586WAT     H283001   2.989   4.915   9.006
27587WAT      O83002   5.965   7.634   7.353
27587WAT     H183003   6.037   7.700   7.333
27587WAT     H283004   6.001   7.541   7.348
27588WAT      O83005   6.799   0.444   7.389
27588WAT     H183006   6.857   0.427   7.469
27588WAT     H283007   6.703   0.431   7.415
27589WAT      O83008   2.235   1.445   6.525
27589WAT     H183009   2.169   1.446   6.450
27589WAT     H283010   2.261   1.351   6.545
27590WAT      O83011   2.078   4.703   4.124
27590WAT     H183012   1.984   4.700   4.158
27590WAT     H283013   2.091   4.784   4.067
27591WAT      O83014   2.507   9.840   5.519
27591WAT     H183015   2.487   9.742   5.511
27591WAT     H283016   2.481   9.871   5.610
27592WAT      O83017   1.648   6.944   2.185
27592WAT     H183018   1.674   7.002   2.108
27592WAT     H283019   1.724   6.884   2.209
27593WAT      O83020   7.737   9.753   4.545
27593WAT     H183021   7.676   9.823   4.507
27593WAT     H283022   7.811   9.735   4.481
27594WAT      O83023   2.276   3.109   7.030
27594WAT     H183024   2.268   3.169   7.110
27594WAT     H283025   2.370   3.075   7.023
27595WAT      O83026   7.029   4.025   6.465
27595WAT     H183027   7.040   4.042   6.563
27595WAT     H283028   6.976   4.099   6.424
27596WAT      O83029   0.011   4.735   0.237
27596WAT     H183030   0.059   4.815   0.203
27596WAT     H283031   0.052   4.652   0.197
27597WAT      O83032   6.717   5.903   6.907
27597WAT     H183033   6.638   5.965   6.904
27597WAT     H283034   6.720   5.849   6.823
27598WAT      O83035   9.763   2.277   6.823
27598WAT     H183036   9.725   2.185   6.825
27598WAT     H283037   9.863   2.272   6.833
27599WAT      O83038   4.514   0.243   7.225
27599WAT     H183039   4.497   0.266   7.129
27599WAT     H283040   4.611   0.224   7.238
27600WAT      O83041   0.034   1.198   0.039
27600WAT     H183042  -0.027   1.148   0.101
27600WAT     H283043   0.129   1.185   0.068
27601WAT      O83044   4.651   5.271   6.358
27601WAT     H183045   4.709   5.227   6.288
27601WAT     H283046   4.685   5.364   6.374
27602WAT      O83047   5.299   2.234   6.276
27602WAT     H183048   5.274   2.307   6.213
27602WAT     H283049   5.283   2.145   6.231
27603WAT      O83050   6.998   0.959   5.035
27603WAT     H183051   7.041   0.921   5.118
27603WAT     H283052   6.927   0.897   5.003
27604WAT      O83053   8.227   1.147   7.018
27604WAT     H183054   8.145   1.159   7.073
27604WAT     H283055   8.266   1.237   6.996
27605WAT      O83056   4.027   7.686   8.604
27605WAT     H183057   3.968   7.749   8.552
27605WAT     H283058   4.055   7.731   8.689
27606WAT      O83059   8.668   9.201   1.294
27606WAT     H183060   8.645   9.108   1.325
27606WAT     H283061   8.602   9.232   1.227
27607WAT      O83062   1.891   4.062   8.046
27607WAT     H183063   1.829   4.030   7.974
27607WAT     H283064   1.938   4.144   8.015
27608WAT      O83065   7.376   6.437   7.874
27608WAT     H183066   7.287   6.463   7.911
27608WAT     H283067   7.445   6.502   7.905
27609WAT      O83068   9.792   6.301   1.545
27609WAT     H183069   9.719   6.235   1.527
27609WAT     H283070   9.753   6.393   1.551
27610WAT      O83071   0.497   9.790   7.807
27610WAT     H183072   0.545   9.765   7.892
27610WAT     H283073   0.469   9.707   7.759
27611WAT      O83074   1.170   3.544   2.050
27611WAT     H183075   1.230   3.532   1.971
27611WAT     H283076   1.087   3.491   2.036
27612WAT      O83077   9.101   7.800   0.664
27612WAT     H183078   9.058   7.763   0.746
27612WAT     H283079   9.063   7.756   0.583
27613WAT      O83080   4.963   3.683   0.363
27613WAT     H183081   4.943   3.769   0.316
27613WAT     H283082   5.060   3.660   0.351
27614WAT      O83083   4.126   9.626   3.515
27614WAT     H183084   4.196   9.650   3.448
27614WAT     H283085   4.142   9.675   3.600
27615WAT      O83086   9.381   9.205   0.156
27615WAT     H183087   9.421   9.119   0.187
27615WAT     H283088   9.451   9.259   0.110
27616WAT      O83089   2.874   5.703   1.540
27616WAT     H183090   2.859   5.766   1.616
27616WAT     H283091   2.957   5.649   1.558
27617WAT      O83092   0.705   8.457   1.620
27617WAT     H183093   0.628   8.433   1.561
27617WAT     H283094   0.752   8.537   1.583
27618WAT      O83095   7.041   0.853   2.027
27618WAT     H183096   7.081   0.939   2.058
27618WAT     H283097   7.097   0.776   2.059
27619WAT      O83098   1.503   1.585   8.606
27619WAT     H183099   1.410   1.550   8.605
27619WAT     H283100   1.564   1.519   8.560
27620WAT      O83101   7.787   1.404   4.558
27620WAT     H183102   7.752   1.452   4.478
27620WAT     H283103   7.799   1.307   4.536
27621WAT      O83104   1.572   3.773   5.688
27621WAT     H183105   1.480   3.752   5.723
27621WAT     H283106   1.631   3.800   5.764
27622WAT      O83107   8.470   9.505   7.754
27622WAT     H183108   8.478   9.458   7.666
27622WAT     H283109   8.377   9.543   7.763
27623WAT      O83110   9.185   5.263   5.650
27623WAT     H183111   9.220   5.296   5.562
27623WAT     H283112   9.102   5.313   5.673
27624WAT      O83113   1.879   7.888   7.878
27624WAT     H183114   1.943   7.948   7.926
27624WAT     H283115   1.906   7.881   7.782
27625WAT      O83116   8.452   5.869   9.232
27625WAT     H183117   8.381   5.799   9.233
27625WAT     H283118   8.439   5.931   9.310
27626WAT      O83119   5.335   8.235   9.066
27626WAT     H183120   5.263   8.285   9.114
27626WAT     H283121   5.414   8.225   9.127
27627WAT      O83122   2.660   6.910   2.851
27627WAT     H183123   2.569   6.912   2.891
27627WAT     H283124   2.729   6.921   2.923
27628WAT      O83125   8.077   3.834   2.370
27628WAT     H183126   7.996   3.848   2.428
27628WAT     H283127   8.158   3.865   2.419
27629WAT      O83128   7.697   3.596   4.258
27629WAT     H183129   7.776   3.658   4.262
27629WAT     H283130   7.669   3.572   4.351
27630WAT      O83131   8.769   6.408   4.438
27630WAT     H183132   8.755   6.500   4.402
27630WAT     H283133   8.789   6.413   4.536
27631WAT      O83134   1.384   7.129   0.450
27631WAT     H183135   1.314   7.146   0.381
27631WAT     H283136   1.363   7.044   0.499
27632WAT      O83137   5.809   5.867   9.776
27632WAT     H183138   5.802   5.789   9.715
27632WAT     H283139   5.838   5.836   9.867
27633WAT      O83140   9.211   2.383   5.789
27633WAT     H183141   9.260   2.357   5.706
27633WAT     H283142   9.274   2.427   5.853
27634WAT      O83143   1.344   1.662   0.091
27634WAT     H183144   1.274   1.637   0.156
27634WAT     H283145   1.400   1.582   0.068
27635WAT      O83146   2.944   5.715   1.195
27635WAT     H183147   2.930   5.763   1.108
27635WAT     H283148   2.917   5.775   1.271
27636WAT      O83149   9.047   4.067   4.171
27636WAT     H183150   9.102   4.023   4.241
27636WAT     H283151   8.976   4.004   4.139
27637WAT      O83152   6.068   2.425   1.399
27637WAT     H183153   6.114   2.484   1.465
27637WAT     H283154   6.131   2.401   1.325
27638WAT      O83155   8.089   7.546   9.204
27638WAT     H183156   8.104   7.635   9.160
27638WAT     H283157   8.064   7.479   9.134
27639WAT      O83158   2.450   0.984   8.934
27639WAT     H183159   2.358   0.975   8.971
27639WAT     H283160   2.506   1.038   8.997
27640WAT      O83161   0.115   2.248   9.319
27640WAT     H183162   0.199   2.300   9.330
27640WAT     H283163   0.110   2.212   9.226
27641WAT      O83164   2.526   0.898   4.508
27641WAT     H183165   2.610   0.890   4.561
27641WAT     H283166   2.546   0.881   4.411
27642WAT      O83167   4.094   5.928   7.554
27642WAT     H183168   4.004   5.929   7.511
27642WAT     H283169   4.112   5.836   7.591
27643WAT      O83170   8.484   9.535   5.903
27643WAT     H183171   8.525   9.448   5.929
27643WAT     H283172   8.426   9.569   5.977
27644WAT      O83173   7.425   8.034   9.699
27644WAT     H183174   7.419   7.941   9.736
27644WAT     H283175   7.521   8.060   9.688
27645WAT      O83176   2.808   3.536   8.062
27645WAT     H183177   2.871   3.465   8.033
27645WAT     H283178   2.859   3.607   8.112
27646WAT      O83179   4.868   8.660   2.377
27646WAT     H183180   4.948   8.693   2.427
27646WAT     H283181   4.792   8.723   2.390
27647WAT      O83182   6.138   9.296   0.756
27647WAT     H183183   6.065   9.365   0.758
27647WAT     H283184   6.226   9.340   0.741
27648WAT      O83185   0.066   1.397   7.110
27648WAT     H183186   0.043   1.300   7.106
27648WAT     H283187  -0.011   1.451   7.076
27649WAT      O83188   3.519   1.733   1.229
27649WAT     H183189   3.598   1.782   1.267
27649WAT     H283190   3.540   1.705   1.135
27650WAT      O83191   0.930   5.138   8.812
27650WAT     H183192   1.001   5.167   8.748
27650WAT     H283193   0.937   5.190   8.896
27651WAT      O83194   0.320   6.011   3.007
27651WAT     H183195   0.391   5.959   3.053
27651WAT     H283196   0.360   6.065   2.933
27652WAT      O83197   5.458   5.680   0.617
27652WAT     H183198   5.369   5.662   0.659
27652WAT     H283199   5.451   5.672   0.518
27653WAT      O83200   3.731   0.235   8.444
27653WAT     H183201   3.747   0.162   8.510
27653WAT     H283202   3.634   0.241   8.423
27654WAT      O83203   8.705   7.009   4.841
27654WAT     H183204   8.748   6.991   4.753
27654WAT     H283205   8.610   7.037   4.827
27655WAT      O83206   5.143   0.905   8.979
27655WAT     H183207   5.147   0.817   9.027
27655WAT     H283208   5.050   0.942   8.985
27656WAT      O83209   9.732   9.561   7.502
27656WAT     H183210   9.691   9.639   7.547
27656WAT     H283211   9.810   9.591   7.447
27657WAT      O83212   7.711   5.349   9.455
27657WAT     H183213   7.676   5.294   9.378
27657WAT     H283214   7.648   5.424   9.474
27658WAT      O83215   2.078   6.747   4.380
27658WAT     H183216   2.067   6.790   4.290
27658WAT     H283217   1.992   6.755   4.431
27659WAT      O83218   6.130   6.543   0.189
27659WAT     H183219   6.127   6.640   0.165
27659WAT     H283220   6.171   6.533   0.280
27660WAT      O83221   0.379   1.977   7.136
27660WAT     H183222   0.421   1.964   7.226
27660WAT     H283223   0.360   1.887   7.096
27661WAT      O83224   6.263   5.297   1.079
27661WAT     H183225   6.177   5.311   1.030
27661WAT     H283226   6.253   5.219   1.141
27662WAT      O83227   7.716   3.723   9.134
27662WAT     H183228   7.650   3.649   9.126
27662WAT     H283229   7.716   3.777   9.049
27663WAT      O83230   3.742   9.626   5.972
27663WAT     H183231   3.740   9.585   5.880
27663WAT     H283232   3.649   9.631   6.008
27664WAT      O83233   6.985   4.453   9.510
27664WAT     H183234   7.034   4.378   9.466
27664WAT     H283235   7.042   4.535   9.509
27665WAT      O83236   8.152   9.248   6.496
27665WAT     H183237   8.192   9.320   6.553
27665WAT     H283238   8.052   9.260   6.493
27666WAT      O83239   5.256   7.033   0.980
27666WAT     H183240   5.203   7.108   0.941
27666WAT     H283241   5.352   7.060   0.987
27667WAT      O83242   1.578   5.086   2.601
27667WAT     H183243   1.641   5.108   2.527
27667WAT     H283244   1.543   4.993   2.588
27668WAT      O83245   3.839   6.385   6.295
27668WAT     H183246   3.771   6.359   6.363
27668WAT     H283247   3.923   6.332   6.311
27669WAT      O83248   8.199   6.904   2.338
27669WAT     H183249   8.143   6.974   2.382
27669WAT     H283250   8.212   6.827   2.401
27670WAT      O83251   7.320   4.743   4.973
27670WAT     H183252   7.243   4.754   5.035
27670WAT     H283253   7.380   4.670   5.006
27671WAT      O83254   8.990   8.808   6.434
27671WAT     H183255   9.030   8.852   6.353
27671WAT     H283256   8.991   8.873   6.510
27672WAT      O83257   4.944   8.914   3.954
27672WAT     H183258   4.966   8.856   4.032
27672WAT     H283259   4.877   8.983   3.981
27673WAT      O83260   9.864   0.015   3.840
27673WAT     H183261   9.912  -0.047   3.902
27673WAT     H283262   9.890   0.109   3.861
27674WAT      O83263   2.657   4.831   1.582
27674WAT     H183264   2.680   4.795   1.492
27674WAT     H283265   2.565   4.802   1.608
27675WAT      O83266   8.342   6.230   9.765
27675WAT     H183267   8.411   6.302   9.777
27675WAT     H283268   8.366   6.175   9.685
27676WAT      O83269   1.425   4.352   9.141
27676WAT     H183270   1.411   4.352   9.240
27676WAT     H283271   1.492   4.422   9.117
27677WAT      O83272   0.328   1.213   8.405
27677WAT     H183273   0.269   1.220   8.325
27677WAT     H283274   0.424   1.219   8.377
27678WAT      O83275   1.525   5.707   6.715
27678WAT     H183276   1.614   5.662   6.711
27678WAT     H283277   1.475   5.676   6.796
27679WAT      O83278   2.620   4.789   6.317
27679WAT     H183279   2.712   4.827   6.324
27679WAT     H283280   2.620   4.694   6.349
27680WAT      O83281   6.687   8.871   4.723
27680WAT     H183282   6.698   8.969   4.736
27680WAT     H283283   6.594   8.844   4.751
27681WAT      O83284   0.600   5.840   6.711
27681WAT     H183285   0.502   5.854   6.696
27681WAT     H283286   0.613   5.783   6.792
27682WAT      O83287   3.668   2.346   5.818
27682WAT     H183288   3.635   2.292   5.741
27682WAT     H283289   3.640   2.303   5.904
27683WAT      O83290   2.398   7.886   3.996
27683WAT     H183291   2.322   7.832   4.033
27683WAT     H283292   2.445   7.833   3.926
27684WAT      O83293   4.300   0.211   3.645
27684WAT     H183294   4.254   0.295   3.615
27684WAT     H283295   4.287   0.199   3.743
27685WAT      O83296   9.478   0.554   0.013
27685WAT     H183297   9.530   0.468   0.018
27685WAT     H283298   9.411   0.548  -0.060
27686WAT      O83299   0.680   0.873   2.045
27686WAT     H183300   0.670   0.840   2.139
27686WAT     H283301   0.774   0.857   2.014
27687WAT      O83302   4.594   5.067   6.079
27687WAT     H183303   4.607   5.111   5.991
27687WAT     H283304   4.671   5.088   6.139
27688WAT      O83305   9.362   6.821   5.972
27688WAT     H183306   9.335   6.875   5.892
27688WAT     H283307   9.461   6.819   5.980
27689WAT      O83308   1.981   8.183   6.485
27689WAT     H183309   2.001   8.130   6.568
27689WAT     H283310   1.953   8.276   6.511
27690WAT      O83311   0.150   4.988   5.497
27690WAT     H183312   0.215   5.064   5.491
27690WAT     H283313   0.057   5.024   5.503
27691WAT      O83314   0.284   2.823   5.218
27691WAT     H183315   0.360   2.863   5.269
27691WAT     H283316   0.255   2.886   5.146
27692WAT      O83317   3.480   8.417   3.940
27692WAT     H183318   3.471   8.411   3.841
27692WAT     H283319   3.404   8.469   3.977
27693WAT      O83320   1.608   2.832   5.442
27693WAT     H183321   1.574   2.792   5.357
27693WAT     H283322   1.600   2.765   5.516
27694WAT      O83323   9.021   8.460   0.090
27694WAT     H183324   9.056   8.373   0.123
27694WAT     H283325   8.922   8.463   0.102
27695WAT      O83326   8.104   6.835   8.457
27695WAT     H183327   8.136   6.805   8.368
27695WAT     H283328   8.181   6.866   8.512
27696WAT      O83329   0.525   5.001   1.510
27696WAT     H183330   0.573   4.993   1.422
27696WAT     H283331   0.502   4.910   1.544
27697WAT      O83332   4.174   0.513   3.938
27697WAT     H183333   4.196   0.434   3.881
27697WAT     H283334   4.162   0.483   4.033
27698WAT      O83335   7.246   4.681   8.106
27698WAT     H183336   7.212   4.705   8.197
27698WAT     H283337   7.313   4.608   8.114
27699WAT      O83338   4.676   0.497   5.954
27699WAT     H183339   4.613   0.574   5.956
27699WAT     H283340   4.626   0.414   5.929
27700WAT      O83341   0.943   1.150   8.800
27700WAT     H183342   1.009   1.127   8.871
27700WAT     H283343   0.959   1.093   8.720
27701WAT      O83344   7.868   0.167   5.995
27701WAT     H183345   7.832   0.204   6.080
27701WAT     H283346   7.888   0.070   6.006
27702WAT      O83347   8.891   7.686   7.150
27702WAT     H183348   8.871   7.657   7.057
27702WAT     H283349   8.906   7.785   7.152
27703WAT      O83350   0.665   3.958   3.899
27703WAT     H183351   0.586   3.947   3.959
27703WAT     H283352   0.735   3.891   3.923
27704WAT      O83353   3.944   0.262   1.421
27704WAT     H183354   3.882   0.261   1.500
27704WAT     H283355   3.904   0.319   1.349
27705WAT      O83356   4.227   3.460   8.123
27705WAT     H183357   4.214   3.365   8.094
27705WAT     H283358   4.292   3.505   8.061
27706WAT      O83359   4.524   1.265   1.494
27706WAT     H183360   4.475   1.350   1.477
27706WAT     H283361   4.496   1.196   1.427
27707WAT      O83362   0.621   5.779   4.050
27707WAT     H183363   0.562   5.787   3.970
27707WAT     H283364   0.566   5.789   4.133
27708WAT      O83365   8.410   4.096   5.196
27708WAT     H183366   8.423   4.067   5.101
27708WAT     H283367   8.492   4.142   5.228
27709WAT      O83368   7.063   8.192   3.603
27709WAT     H183369   7.118   8.165   3.525
27709WAT     H283370   6.966   8.188   3.578
27710WAT      O83371   2.620   5.997   4.793
27710WAT     H183372   2.593   6.087   4.758
27710WAT     H283373   2.547   5.962   4.852
27711WAT      O83374   3.641   7.746   3.744
27711WAT     H183375   3.628   7.845   3.745
27711WAT     H283376   3.560   7.702   3.706
27712WAT      O83377   2.727   1.192   7.856
27712WAT     H183378   2.662   1.181   7.931
27712WAT     H283379   2.715   1.281   7.813
27713WAT      O83380   6.517   1.288   2.135
27713WAT     H183381   6.583   1.342   2.082
27713WAT     H283382   6.544   1.288   2.231
27714WAT      O83383   3.916   9.331   7.923
27714WAT     H183384   3.926   9.232   7.912
27714WAT     H283385   3.909   9.374   7.832
27715WAT      O83386   6.143   9.584   3.441
27715WAT     H183387   6.060   9.623   3.403
27715WAT     H283388   6.164   9.498   3.393
27716WAT      O83389   8.678   9.323   2.766
27716WAT     H183390   8.591   9.278   2.742
27716WAT     H283391   8.714   9.370   2.685
27717WAT      O83392   8.021   4.030   9.332
27717WAT     H183393   7.991   4.036   9.237
27717WAT     H283394   8.049   4.120   9.364
27718WAT      O83395   2.803   2.724   8.467
27718WAT     H183396   2.860   2.805   8.449
27718WAT     H283397   2.726   2.723   8.403
27719WAT      O83398   4.672   3.268   8.053
27719WAT     H183399   4.727   3.316   7.984
27719WAT     H283400   4.632   3.335   8.116
27720WAT      O83401   8.744   7.898   5.184
27720WAT     H183402   8.799   7.884   5.266
27720WAT     H283403   8.650   7.919   5.210
27721WAT      O83404   6.647   1.710   6.013
27721WAT     H183405   6.641   1.785   5.947
27721WAT     H283406   6.675   1.626   5.966
27722WAT      O83407   3.590   7.475   8.433
27722WAT     H183408   3.558   7.386   8.465
27722WAT     H283409   3.511   7.530   8.403
27723WAT      O83410   9.491   3.032   8.232
27723WAT     H183411   9.563   3.031   8.163
27723WAT     H283412   9.505   2.957   8.297
27724WAT      O83413   1.393   5.741   3.228
27724WAT     H183414   1.362   5.649   3.252
27724WAT     H283415   1.338   5.776   3.151
27725WAT      O83416   2.657   6.153   4.455
27725WAT     H183417   2.698   6.240   4.427
27725WAT     H283418   2.605   6.166   4.539
27726WAT      O83419   1.012   7.055   6.984
27726WAT     H183420   0.943   6.996   6.942
27726WAT     H283421   1.037   7.019   7.074
27727WAT      O83422   9.551   1.925   7.585
27727WAT     H183423   9.540   1.843   7.641
27727WAT     H283424   9.484   1.925   7.511
27728WAT      O83425   6.400   9.079   7.103
27728WAT     H183426   6.401   9.039   7.194
27728WAT     H283427   6.432   9.011   7.036
27729WAT      O83428   2.957   8.426   5.045
27729WAT     H183429   2.972   8.327   5.057
27729WAT     H283430   3.034   8.465   4.995
27730WAT      O83431   8.084   2.249   7.808
27730WAT     H183432   8.099   2.293   7.896
27730WAT     H283433   8.081   2.149   7.820
27731WAT      O83434   0.383   0.903   9.358
27731WAT     H183435   0.449   0.969   9.394
27731WAT     H283436   0.290   0.939   9.369
27732WAT      O83437   9.859   8.124   7.850
27732WAT     H183438   9.827   8.123   7.944
27732WAT     H283439   9.905   8.037   7.830
27733WAT      O83440   9.804   7.421   6.548
27733WAT     H183441   9.904   7.427   6.553
27733WAT     H283442   9.765   7.469   6.627
27734WAT      O83443   4.390   1.727   3.350
27734WAT     H183444   4.305   1.755   3.394
27734WAT     H283445   4.462   1.717   3.418
27735WAT      O83446   2.664   4.714   9.390
27735WAT     H183447   2.585   4.772   9.367
27735WAT     H283448   2.686   4.655   9.312
27736WAT      O83449   5.990   6.562   6.247
27736WAT     H183450   5.940   6.484   6.285
27736WAT     H283451   5.927   6.639   6.235
27737WAT      O83452   4.334   7.519   4.250
27737WAT     H183453   4.339   7.548   4.345
27737WAT     H283454   4.245   7.547   4.211
27738WAT      O83455   5.403   6.270   4.410
27738WAT     H183456   5.422   6.367   4.422
27738WAT     H283457   5.349   6.256   4.327
27739WAT      O83458   3.600   6.340   6.487
27739WAT     H183459   3.521   6.297   6.445
27739WAT     H283460   3.620   6.295   6.574
27740WAT      O83461   6.113   5.245   1.555
27740WAT     H183462   6.066   5.164   1.589
27740WAT     H283463   6.156   5.294   1.631
27741WAT      O83464   0.919   0.396   8.276
27741WAT     H183465   0.856   0.410   8.352
27741WAT     H283466   0.879   0.332   8.211
27742WAT      O83467   7.425   6.506   5.154
27742WAT     H183468   7.334   6.472   5.176
27742WAT     H283469   7.475   6.528   5.238
27743WAT      O83470   7.615   6.693   1.336
27743WAT     H183471   7.678   6.619   1.362
27743WAT     H283472   7.522   6.670   1.366
27744WAT      O83473   3.023   6.666   7.284
27744WAT     H183474   3.078   6.601   7.336
27744WAT     H283475   3.052   6.759   7.306
27745WAT      O83476   5.215   1.543   0.654
27745WAT     H183477   5.124   1.531   0.695
27745WAT     H283478   5.207   1.542   0.554
27746WAT      O83479   6.910   3.200   9.432
27746WAT     H183480   6.999   3.208   9.386
27746WAT     H283481   6.860   3.122   9.394
27747WAT      O83482   7.908   8.567   5.324
27747WAT     H183483   8.000   8.562   5.365
27747WAT     H283484   7.901   8.499   5.251
27748WAT      O83485   1.530   7.744   8.310
27748WAT     H183486   1.501   7.831   8.270
27748WAT     H283487   1.466   7.672   8.283
27749WAT      O83488   5.507   4.055   4.554
27749WAT     H183489   5.508   3.973   4.497
27749WAT     H283490   5.413   4.075   4.582
27750WAT      O83491   5.037   7.588   1.514
27750WAT     H183492   4.953   7.636   1.539
27750WAT     H283493   5.022   7.537   1.429
27751WAT      O83494   2.276   1.186   5.332
27751WAT     H183495   2.367   1.154   5.307
27751WAT     H283496   2.237   1.126   5.402
27752WAT      O83497   5.706   3.168   6.853
27752WAT     H183498   5.678   3.120   6.936
27752WAT     H283499   5.631   3.167   6.787
27753WAT      O83500   5.350   8.319   9.347
27753WAT     H183501   5.362   8.415   9.322
27753WAT     H283502   5.429   8.266   9.316
27754WAT      O83503   3.646   0.480   3.903
27754WAT     H183504   3.602   0.390   3.906
27754WAT     H283505   3.607   0.539   3.974
27755WAT      O83506   6.733   2.499   7.985
27755WAT     H183507   6.672   2.501   7.906
27755WAT     H283508   6.680   2.508   8.069
27756WAT      O83509   7.898   3.053   3.709
27756WAT     H183510   7.800   3.033   3.706
27756WAT     H283511   7.950   2.968   3.700
27757WAT      O83512   1.409   5.712   0.611
27757WAT     H183513   1.405   5.694   0.709
27757WAT     H283514   1.467   5.791   0.593
27758WAT      O83515   2.969   2.697   2.438
27758WAT     H183516   2.931   2.717   2.348
27758WAT     H283517   3.022   2.775   2.471
27759WAT      O83518   8.506   8.654   7.541
27759WAT     H183519   8.516   8.556   7.557
27759WAT     H283520   8.596   8.695   7.527
27760WAT      O83521   6.058   4.918   4.730
27760WAT     H183522   6.065   4.926   4.631
27760WAT     H283523   6.035   5.006   4.769
27761WAT      O83524   8.938   9.127   1.236
27761WAT     H183525   8.850   9.166   1.262
27761WAT     H283526   8.967   9.165   1.148
27762WAT      O83527   9.414   3.695   0.897
27762WAT     H183528   9.478   3.630   0.939
27762WAT     H283529   9.414   3.682   0.797
27763WAT      O83530   3.715   1.071   1.101
27763WAT     H183531   3.649   1.007   1.060
27763WAT     H283532   3.670   1.160   1.114
27764WAT      O83533   8.599   7.173   6.720
27764WAT     H183534   8.634   7.117   6.795
27764WAT     H283535   8.563   7.258   6.757
27765WAT      O83536   1.914   9.405   5.900
27765WAT     H183537   1.987   9.370   5.842
27765WAT     H283538   1.860   9.328   5.935
27766WAT      O83539   7.741   3.839   3.445
27766WAT     H183540   7.726   3.920   3.503
27766WAT     H283541   7.676   3.768   3.469
27767WAT      O83542   0.727   9.487   8.384
27767WAT     H183543   0.680   9.400   8.369
27767WAT     H283544   0.777   9.484   8.471
27768WAT      O83545   3.130   0.066   8.870
27768WAT     H183546   3.221   0.102   8.851
27768WAT     H283547   3.081   0.129   8.930
27769WAT      O83548   8.124   6.341   1.675
27769WAT     H183549   8.063   6.287   1.617
27769WAT     H283550   8.123   6.303   1.768
27770WAT      O83551   4.732   7.081   5.275
27770WAT     H183552   4.673   7.144   5.225
27770WAT     H283553   4.780   7.022   5.210
27771WAT      O83554   5.202   1.958   2.164
27771WAT     H183555   5.285   1.929   2.213
27771WAT     H283556   5.146   1.878   2.143
27772WAT      O83557   9.574   0.204   4.298
27772WAT     H183558   9.480   0.211   4.331
27772WAT     H283559   9.612   0.296   4.285
27773WAT      O83560   0.569   5.770   0.722
27773WAT     H183561   0.583   5.692   0.783
27773WAT     H283562   0.529   5.846   0.774
27774WAT      O83563   6.644   7.994   1.718
27774WAT     H183564   6.567   8.039   1.672
27774WAT     H283565   6.644   7.897   1.695
27775WAT      O83566   7.359   7.869   8.783
27775WAT     H183567   7.387   7.886   8.878
27775WAT     H283568   7.309   7.948   8.748
27776WAT      O83569   0.115   0.611   9.280
27776WAT     H183570   0.089   0.691   9.334
27776WAT     H283571   0.210   0.620   9.249
27777WAT      O83572   3.315   9.816   5.062
27777WAT     H183573   3.255   9.808   4.983
27777WAT     H283574   3.271   9.874   5.131
27778WAT      O83575   1.863   2.527   7.775
27778WAT     H183576   1.879   2.449   7.714
27778WAT     H283577   1.920   2.604   7.746
27779WAT      O83578   7.500   2.685   7.865
27779WAT     H183579   7.483   2.782   7.850
27779WAT     H283580   7.593   2.662   7.835
27780WAT      O83581   5.330   4.424   9.455
27780WAT     H183582   5.364   4.475   9.534
27780WAT     H283583   5.407   4.386   9.403
27781WAT      O83584   6.900   2.196   5.137
27781WAT     H183585   6.839   2.232   5.208
27781WAT     H283586   6.866   2.221   5.047
27782WAT      O83587   3.903   1.294   1.818
27782WAT     H183588   3.946   1.204   1.811
27782WAT     H283589   3.807   1.283   1.845
27783WAT      O83590   2.918   5.221   5.718
27783WAT     H183591   2.932   5.183   5.810
27783WAT     H283592   2.825   5.257   5.711
27784WAT      O83593   2.316   0.797   7.389
27784WAT     H183594   2.277   0.886   7.411
27784WAT     H283595   2.415   0.800   7.403
27785WAT      O83596   4.496   1.716   0.757
27785WAT     H183597   4.481   1.645   0.826
27785WAT     H283598   4.424   1.786   0.765
27786WAT      O83599   5.357   6.112   5.409
27786WAT     H183600   5.260   6.140   5.411
27786WAT     H283601   5.392   6.108   5.502
27787WAT      O83602   0.494   7.859   0.243
27787WAT     H183603   0.435   7.938   0.263
27787WAT     H283604   0.535   7.870   0.153
27788WAT      O83605   3.818   9.021   6.976
27788WAT     H183606   3.751   9.004   7.047
27788WAT     H283607   3.877   8.940   6.965
27789WAT      O83608   7.643   9.023   8.995
27789WAT     H183609   7.558   8.988   9.035
27789WAT     H283610   7.624   9.061   8.905
27790WAT      O83611   1.875   0.236   9.200
27790WAT     H183612   1.888   0.317   9.258
27790WAT     H283613   1.783   0.238   9.161
27791WAT      O83614   8.269   9.074   9.293
27791WAT     H183615   8.317   9.158   9.319
27791WAT     H283616   8.301   8.998   9.350
27792WAT      O83617   2.406   2.580   4.170
27792WAT     H183618   2.387   2.488   4.137
27792WAT     H283619   2.505   2.597   4.167
27793WAT      O83620   1.476   7.930   2.574
27793WAT     H183621   1.425   8.015   2.587
27793WAT     H283622   1.560   7.934   2.628
27794WAT      O83623   3.146   7.825   1.957
27794WAT     H183624   3.194   7.739   1.941
27794WAT     H283625   3.048   7.812   1.944
27795WAT      O83626   5.619   5.562   5.190
27795WAT     H183627   5.634   5.569   5.288
27795WAT     H283628   5.621   5.654   5.149
27796WAT      O83629   6.011   8.507   8.601
27796WAT     H183630   5.925   8.459   8.582
27796WAT     H283631   6.054   8.535   8.515
27797WAT      O83632   4.457   9.129   4.889
27797WAT     H183633   4.434   9.188   4.967
27797WAT     H283634   4.471   9.185   4.808
27798WAT      O83635   3.504   8.012   9.402
27798WAT     H183636   3.446   8.035   9.324
27798WAT     H283637   3.584   8.071   9.403
27799WAT      O83638   5.176   5.795   4.682
27799WAT     H183639   5.239   5.736   4.734
27799WAT     H283640   5.163   5.756   4.591
27800WAT      O83641   1.330   8.597   7.208
27800WAT     H183642   1.278   8.676   7.176
27800WAT     H283643   1.267   8.530   7.249
27801WAT      O83644   7.155   1.409   5.424
27801WAT     H183645   7.111   1.480   5.368
27801WAT     H283646   7.092   1.379   5.495
27802WAT      O83647   8.623   5.372   4.629
27802WAT     H183648   8.544   5.347   4.685
27802WAT     H283649   8.678   5.441   4.676
27803WAT      O83650   6.090   1.202   9.236
27803WAT     H183651   6.088   1.260   9.317
27803WAT     H283652   6.143   1.119   9.255
27804WAT      O83653   3.350   8.410   2.797
27804WAT     H183654   3.399   8.491   2.767
27804WAT     H283655   3.342   8.411   2.897
27805WAT      O83656   1.170   8.903   1.244
27805WAT     H183657   1.117   8.855   1.313
27805WAT     H283658   1.255   8.937   1.285
27806WAT      O83659   3.304   8.427   1.605
27806WAT     H183660   3.288   8.410   1.702
27806WAT     H283661   3.228   8.390   1.552
27807WAT      O83662   7.410   1.461   9.468
27807WAT     H183663   7.476   1.469   9.542
27807WAT     H283664   7.433   1.383   9.411
27808WAT      O83665   4.783   6.136   1.445
27808WAT     H183666   4.760   6.092   1.532
27808WAT     H283667   4.779   6.069   1.371
27809WAT      O83668   4.220   5.524   8.763
27809WAT     H183669   4.183   5.449   8.708
27809WAT     H283670   4.309   5.497   8.799
27810WAT      O83671   0.160   9.374   3.324
27810WAT     H183672   0.251   9.406   3.350
27810WAT     H283673   0.167   9.286   3.277
27811WAT      O83674   0.589   7.108   1.859
27811WAT     H183675   0.541   7.111   1.947
27811WAT     H283676   0.579   7.197   1.813
27812WAT      O83677   4.504   0.715   5.928
27812WAT     H183678   4.438   0.748   5.996
27812WAT     H283679   4.473   0.743   5.836
27813WAT      O83680   6.894   9.421   1.207
27813WAT     H183681   6.857   9.334   1.174
27813WAT     H283682   6.993   9.423   1.191
27814WAT      O83683   8.452   9.426   2.119
27814WAT     H183684   8.539   9.393   2.083
27814WAT     H283685   8.451   9.416   2.219
27815WAT      O83686   8.611   5.214   0.339
27815WAT     H183687   8.669   5.135   0.356
27815WAT     H283688   8.664   5.298   0.357
27816WAT      O83689   9.344   5.196   9.437
27816WAT     H183690   9.264   5.238   9.394
27816WAT     H283691   9.364   5.109   9.391
27817WAT      O83692   3.759   6.866   1.947
27817WAT     H183693   3.828   6.861   2.019
27817WAT     H283694   3.768   6.786   1.887
27818WAT      O83695   5.703   3.100   8.961
27818WAT     H183696   5.674   3.050   9.043
27818WAT     H283697   5.678   3.047   8.880
27819WAT      O83698   8.387   2.108   3.222
27819WAT     H183699   8.414   2.022   3.267
27819WAT     H283700   8.447   2.182   3.253
27820WAT      O83701   9.403   7.378   1.299
27820WAT     H183702   9.322   7.420   1.338
27820WAT     H283703   9.485   7.427   1.330
27821WAT      O83704   8.690   1.046   1.076
27821WAT     H183705   8.692   0.993   1.161
27821WAT     H283706   8.664   1.140   1.096
27822WAT      O83707   3.176   0.504   0.131
27822WAT     H183708   3.178   0.574   0.060
27822WAT     H283709   3.268   0.469   0.146
27823WAT      O83710   3.158   5.466   7.562
27823WAT     H183711   3.210   5.383   7.584
27823WAT     H283712   3.164   5.531   7.638
27824WAT      O83713   9.421   9.583   1.404
27824WAT     H183714   9.385   9.661   1.455
27824WAT     H283715   9.489   9.536   1.461
27825WAT      O83716   0.652   1.192   1.296
27825WAT     H183717   0.716   1.264   1.323
27825WAT     H283718   0.578   1.187   1.363
27826WAT      O83719   7.092   7.456   8.284
27826WAT     H183720   7.182   7.427   8.317
27826WAT     H283721   7.089   7.448   8.184
27827WAT      O83722   5.965   5.314   4.006
27827WAT     H183723   5.978   5.323   3.907
27827WAT     H283724   5.892   5.249   4.025
27828WAT      O83725   5.235   5.651   1.474
27828WAT     H183726   5.201   5.721   1.410
27828WAT     H283727   5.254   5.694   1.562
27829WAT      O83728   9.672   2.375   0.265
27829WAT     H183729   9.650   2.468   0.295
27829WAT     H283730   9.649   2.365   0.168
27830WAT      O83731   7.510   0.216   3.868
27830WAT     H183732   7.512   0.123   3.831
27830WAT     H283733   7.458   0.275   3.807
27831WAT      O83734   8.036   6.188   2.886
27831WAT     H183735   8.090   6.252   2.942
27831WAT     H283736   8.052   6.095   2.917
27832WAT      O83737   8.350   4.860   2.400
27832WAT     H183738   8.337   4.957   2.380
27832WAT     H283739   8.312   4.838   2.489
27833WAT      O83740   2.006   8.531   0.178
27833WAT     H183741   1.974   8.436   0.174
27833WAT     H283742   1.928   8.592   0.196
27834WAT      O83743   8.829   3.435   3.686
27834WAT     H183744   8.894   3.455   3.759
27834WAT     H283745   8.743   3.403   3.726
27835WAT      O83746   1.686   3.677   7.890
27835WAT     H183747   1.676   3.617   7.810
27835WAT     H283748   1.752   3.637   7.954
27836WAT      O83749   4.678   2.050   4.908
27836WAT     H183750   4.702   1.959   4.942
27836WAT     H283751   4.649   2.043   4.813
27837WAT      O83752   9.121   9.618   3.197
27837WAT     H183753   9.107   9.684   3.271
27837WAT     H283754   9.143   9.667   3.112
27838WAT      O83755   7.011   4.613   7.907
27838WAT     H183756   7.072   4.675   7.955
27838WAT     H283757   7.063   4.562   7.838
27839WAT      O83758   6.337   3.854   4.150
27839WAT     H183759   6.350   3.807   4.062
27839WAT     H283760   6.420   3.847   4.204
27840WAT      O83761   7.318   6.059   2.706
27840WAT     H183762   7.349   5.988   2.769
27840WAT     H283763   7.230   6.034   2.667
27841WAT      O83764   0.429   7.821   5.118
27841WAT     H183765   0.420   7.920   5.128
27841WAT     H283766   0.520   7.799   5.082
27842WAT      O83767   6.160   2.437   3.611
27842WAT     H183768   6.245   2.429   3.558
27842WAT     H283769   6.082   2.415   3.552
27843WAT      O83770   7.368   8.563   2.331
27843WAT     H183771   7.316   8.582   2.415
27843WAT     H283772   7.323   8.607   2.254
27844WAT      O83773   7.373   5.466   4.457
27844WAT     H183774   7.447   5.407   4.487
27844WAT     H283775   7.329   5.428   4.375
27845WAT      O83776   0.302   2.126   5.581
27845WAT     H183777   0.251   2.126   5.667
27845WAT     H283778   0.384   2.183   5.590
27846WAT      O83779   5.625   8.864   0.737
27846WAT     H183780   5.647   8.833   0.645
27846WAT     H283781   5.526   8.874   0.746
27847WAT      O83782   0.913   3.843   1.803
27847WAT     H183783   0.816   3.831   1.826
27847WAT     H283784   0.927   3.936   1.769
27848WAT      O83785   9.303   6.260   5.574
27848WAT     H183786   9.322   6.340   5.631
27848WAT     H283787   9.368   6.258   5.497
27849WAT      O83788   6.521   3.080   7.998
27849WAT     H183789   6.429   3.073   8.036
27849WAT     H283790   6.567   2.991   8.006
27850WAT      O83791   1.613   0.435   3.623
27850WAT     H183792   1.618   0.375   3.543
27850WAT     H283793   1.668   0.397   3.697
27851WAT      O83794   7.139   3.228   0.492
27851WAT     H183795   7.228   3.210   0.534
27851WAT     H283796   7.140   3.197   0.397
27852WAT      O83797   9.191   8.217   9.850
27852WAT     H183798   9.249   8.215   9.769
27852WAT     H283799   9.192   8.126   9.893
27853WAT      O83800   7.442   9.675   5.906
27853WAT     H183801   7.403   9.605   5.966
27853WAT     H283802   7.481   9.749   5.961
27854WAT      O83803   4.152   9.046   9.571
27854WAT     H183804   4.159   9.003   9.661
27854WAT     H283805   4.057   9.068   9.551
27855WAT      O83806   4.320   7.657   4.492
27855WAT     H183807   4.356   7.749   4.476
27855WAT     H283808   4.220   7.661   4.497
27856WAT      O83809   6.341   9.514   4.714
27856WAT     H183810   6.364   9.457   4.635
27856WAT     H283811   6.417   9.576   4.735
27857WAT      O83812   0.199   2.611   3.202
27857WAT     H183813   0.119   2.665   3.229
27857WAT     H283814   0.275   2.671   3.180
27858WAT      O83815   6.838   8.502   9.793
27858WAT     H183816   6.880   8.537   9.709
27858WAT     H283817   6.751   8.547   9.808
27859WAT      O83818   0.399   5.465   3.704
27859WAT     H183819   0.454   5.527   3.648
27859WAT     H283820   0.458   5.414   3.766
27860WAT      O83821   6.352   1.477   7.144
27860WAT     H183822   6.387   1.531   7.221
27860WAT     H283823   6.258   1.451   7.163
27861WAT      O83824   1.582   4.405   2.289
27861WAT     H183825   1.580   4.307   2.267
27861WAT     H283826   1.633   4.419   2.374
27862WAT      O83827   9.080   5.941   7.182
27862WAT     H183828   9.174   5.926   7.214
27862WAT     H283829   9.027   5.984   7.255
27863WAT      O83830   7.554   3.960   1.762
27863WAT     H183831   7.554   3.893   1.688
27863WAT     H283832   7.582   3.916   1.847
27864WAT      O83833   2.514   7.115   5.896
27864WAT     H183834   2.444   7.187   5.895
27864WAT     H283835   2.533   7.089   5.991
27865WAT      O83836   6.725   5.966   4.460
27865WAT     H183837   6.756   6.015   4.542
27865WAT     H283838   6.800   5.962   4.394
27866WAT      O83839   3.431   4.184   0.545
27866WAT     H183840   3.449   4.225   0.456
27866WAT     H283841   3.503   4.209   0.610
27867WAT      O83842   1.257   2.296   0.907
27867WAT     H183843   1.304   2.343   0.982
27867WAT     H283844   1.195   2.227   0.945
27868WAT      O83845   9.057   0.687   3.123
27868WAT     H183846   9.034   0.591   3.136
27868WAT     H283847   8.981   0.733   3.077
27869WAT      O83848   8.731   3.653   3.152
27869WAT     H183849   8.776   3.726   3.100
27869WAT     H283850   8.644   3.686   3.187
27870WAT      O83851   7.392   4.176   9.529
27870WAT     H183852   7.300   4.165   9.567
27870WAT     H283853   7.451   4.104   9.565
27871WAT      O83854   6.478   0.331   9.451
27871WAT     H183855   6.528   0.406   9.406
27871WAT     H283856   6.444   0.268   9.381
27872WAT      O83857   7.397   3.328   5.014
27872WAT     H183858   7.372   3.387   4.938
27872WAT     H283859   7.377   3.375   5.100
27873WAT      O83860   2.407   4.184   9.557
27873WAT     H183861   2.444   4.244   9.487
27873WAT     H283862   2.307   4.178   9.546
27874WAT      O83863   4.040   4.398   3.774
27874WAT     H183864   3.977   4.434   3.705
27874WAT     H283865   4.099   4.472   3.807
27875WAT      O83866   7.037   7.062   2.775
27875WAT     H183867   7.094   7.027   2.701
27875WAT     H283868   6.952   7.098   2.738
27876WAT      O83869   2.410   3.507   9.727
27876WAT     H183870   2.382   3.439   9.660
27876WAT     H283871   2.358   3.592   9.713
27877WAT      O83872   6.567   5.204   4.959
27877WAT     H183873   6.563   5.162   5.049
27877WAT     H283874   6.644   5.269   4.956
27878WAT      O83875   2.914   9.424   0.009
27878WAT     H183876   2.875   9.470   0.089
27878WAT     H283877   2.986   9.481  -0.030
27879WAT      O83878   2.284   1.593   2.560
27879WAT     H183879   2.237   1.511   2.529
27879WAT     H283880   2.239   1.674   2.521
27880WAT      O83881   6.421   2.514   9.734
27880WAT     H183882   6.475   2.569   9.798
27880WAT     H283883   6.334   2.561   9.714
27881WAT      O83884   8.317   4.839   8.576
27881WAT     H183885   8.310   4.927   8.530
27881WAT     H283886   8.296   4.850   8.673
27882WAT      O83887   3.343   1.215   8.340
27882WAT     H183888   3.280   1.190   8.267
27882WAT     H283889   3.369   1.132   8.390
27883WAT      O83890   4.939   1.788   0.223
27883WAT     H183891   4.875   1.711   0.221
27883WAT     H283892   4.978   1.801   0.132
27884WAT      O83893   5.496   6.931   3.141
27884WAT     H183894   5.528   6.934   3.236
27884WAT     H283895   5.571   6.956   3.080
27885WAT      O83896   7.965   6.969   7.334
27885WAT     H183897   7.993   7.060   7.364
27885WAT     H283898   8.045   6.915   7.310
27886WAT      O83899   1.112   2.511   5.475
27886WAT     H183900   1.053   2.564   5.415
27886WAT     H283901   1.086   2.526   5.570
27887WAT      O83902   0.893   4.637   5.376
27887WAT     H183903   0.865   4.567   5.442
27887WAT     H283904   0.983   4.615   5.340
27888WAT      O83905   5.161   6.569   4.904
27888WAT     H183906   5.189   6.485   4.951
27888WAT     H283907   5.076   6.552   4.855
27889WAT      O83908   7.474   1.472   2.236
27889WAT     H183909   7.551   1.407   2.237
27889WAT     H283910   7.507   1.563   2.260
27890WAT      O83911   4.396   1.775   5.252
27890WAT     H183912   4.322   1.824   5.299
27890WAT     H283913   4.406   1.684   5.292
27891WAT      O83914   7.487   6.807   6.294
27891WAT     H183915   7.430   6.872   6.243
27891WAT     H283916   7.429   6.750   6.352
27892WAT      O83917   5.989   7.711   8.474
27892WAT     H183918   5.992   7.702   8.573
27892WAT     H283919   5.962   7.804   8.449
27893WAT      O83920   8.695   2.336   0.729
27893WAT     H183921   8.788   2.368   0.712
27893WAT     H283922   8.698   2.240   0.757
27894WAT      O83923   4.271   9.702   0.011
27894WAT     H183924   4.263   9.722   0.108
27894WAT     H283925   4.182   9.671  -0.025
27895WAT      O83926   7.120   1.554   0.539
27895WAT     H183927   7.134   1.508   0.626
27895WAT     H283928   7.208   1.585   0.503
27896WAT      O83929   1.904   5.303   5.646
27896WAT     H183930   1.975   5.357   5.691
27896WAT     H283931   1.927   5.206   5.651
27897WAT      O83932   8.135   3.932   3.728
27897WAT     H183933   8.186   4.016   3.745
27897WAT     H283934   8.073   3.945   3.650
27898WAT      O83935   5.696   3.176   2.981
27898WAT     H183936   5.749   3.186   2.898
27898WAT     H283937   5.730   3.097   3.033
27899WAT      O83938   4.035   7.154   4.479
27899WAT     H183939   4.044   7.231   4.543
27899WAT     H283940   4.011   7.071   4.530
27900WAT      O83941   9.830   5.364   4.826
27900WAT     H183942   9.867   5.295   4.888
27900WAT     H283943   9.737   5.387   4.854
27901WAT      O83944   5.533   0.882   6.003
27901WAT     H183945   5.488   0.889   5.914
27901WAT     H283946   5.589   0.963   6.019
27902WAT      O83947   2.666   7.432   7.977
27902WAT     H183948   2.626   7.361   7.919
27902WAT     H283949   2.627   7.425   8.069
27903WAT      O83950   5.488   9.707   8.358
27903WAT     H183951   5.565   9.654   8.393
27903WAT     H283952   5.477   9.790   8.413
27904WAT      O83953   5.042   3.544   2.861
27904WAT     H183954   5.007   3.593   2.941
27904WAT     H283955   5.068   3.451   2.888
27905WAT      O83956   7.864   4.247   3.637
27905WAT     H183957   7.905   4.285   3.555
27905WAT     H283958   7.800   4.174   3.613
27906WAT      O83959   9.128   5.426   7.921
27906WAT     H183960   9.093   5.515   7.889
27906WAT     H283961   9.227   5.421   7.904
27907WAT      O83962   2.263   0.273   7.134
27907WAT     H183963   2.291   0.198   7.193
27907WAT     H283964   2.173   0.252   7.095
27908WAT      O83965   9.218   2.185   5.410
27908WAT     H183966   9.284   2.238   5.463
27908WAT     H283967   9.139   2.163   5.467
27909WAT      O83968   7.961   5.026   4.457
27909WAT     H183969   7.978   5.121   4.482
27909WAT     H283970   7.910   5.023   4.371
27910WAT      O83971   9.808   8.233   5.119
27910WAT     H183972   9.781   8.150   5.070
27910WAT     H283973   9.809   8.310   5.056
27911WAT      O83974   2.797   5.985   2.328
27911WAT     H183975   2.711   6.032   2.306
27911WAT     H283976   2.871   6.023   2.271
27912WAT      O83977   4.733   0.863   3.407
27912WAT     H183978   4.721   0.868   3.506
27912WAT     H283979   4.815   0.811   3.385
27913WAT      O83980   5.801   9.435   4.211
27913WAT     H183981   5.887   9.482   4.232
27913WAT     H283982   5.792   9.355   4.270
27914WAT      O83983   3.312   4.053   6.880
27914WAT     H183984   3.212   4.050   6.888
27914WAT     H283985   3.346   4.139   6.918
27915WAT      O83986   0.517   2.996   8.730
27915WAT     H183987   0.425   2.967   8.704
27915WAT     H283988   0.558   3.047   8.655
27916WAT      O83989   5.942   8.181   5.778
27916WAT     H183990   5.944   8.169   5.877
27916WAT     H283991   5.859   8.140   5.741
27917WAT      O83992   5.327   0.015   5.709
27917WAT     H183993   5.390   0.082   5.749
27917WAT     H283994   5.379  -0.062   5.673
27918WAT      O83995   8.199   4.202   4.481
27918WAT     H183996   8.107   4.164   4.470
27918WAT     H283997   8.217   4.267   4.408
27919WAT      O83998   4.546   5.182   7.928
27919WAT     H183999   4.479   5.232   7.873
27919WAT     H284000   4.637   5.219   7.911
27920WAT      O84001   6.909   0.295   0.009
27920WAT     H184002   6.846   0.364   0.044
27920WAT     H284003   6.968   0.335  -0.061
27921WAT      O84004   2.016   1.098   7.939
27921WAT     H184005   2.024   1.151   7.855
27921WAT     H284006   2.077   1.138   8.008
27922WAT      O84007   4.446   3.797   4.296
27922WAT     H184008   4.389   3.720   4.268
27922WAT     H284009   4.390   3.867   4.339
27923WAT      O84010   8.157   3.273   5.754
27923WAT     H184011   8.201   3.319   5.831
27923WAT     H284012   8.218   3.202   5.719
27924WAT      O84013   6.003   2.910   3.539
27924WAT     H184014   5.993   2.996   3.590
27924WAT     H284015   5.964   2.835   3.592
27925WAT      O84016   5.868   7.155   1.224
27925WAT     H184017   5.770   7.134   1.223
27925WAT     H284018   5.903   7.155   1.130
27926WAT      O84019   5.863   0.683   4.057
27926WAT     H184020   5.860   0.780   4.034
27926WAT     H284021   5.773   0.643   4.044
27927WAT      O84022   3.156   7.016   9.649
27927WAT     H184023   3.133   7.032   9.745
27927WAT     H284024   3.098   6.942   9.614
27928WAT      O84025   7.686   9.538   5.436
27928WAT     H184026   7.677   9.580   5.526
27928WAT     H284027   7.754   9.464   5.441
27929WAT      O84028   1.881   5.470   0.021
27929WAT     H184029   1.841   5.555   0.054
27929WAT     H284030   1.884   5.404   0.096
27930WAT      O84031   7.800   1.761   6.870
27930WAT     H184032   7.732   1.689   6.885
27930WAT     H284033   7.754   1.849   6.861
27931WAT      O84034   4.057   4.717   4.867
27931WAT     H184035   3.962   4.750   4.869
27931WAT     H284036   4.083   4.684   4.958
27932WAT      O84037   0.654   3.015   7.583
27932WAT     H184038   0.749   3.028   7.613
27932WAT     H284039   0.623   3.098   7.536
27933WAT      O84040   8.844   1.225   6.298
27933WAT     H184041   8.754   1.184   6.294
27933WAT     H284042   8.836   1.325   6.291
27934WAT      O84043   7.924   3.389   0.306
27934WAT     H184044   7.967   3.475   0.279
27934WAT     H284045   7.971   3.350   0.385
27935WAT      O84046   3.215   7.510   6.885
27935WAT     H184047   3.165   7.511   6.971
27935WAT     H284048   3.188   7.589   6.830
27936WAT      O84049   8.858   8.127   1.834
27936WAT     H184050   8.777   8.173   1.797
27936WAT     H284051   8.831   8.072   1.913
27937WAT      O84052   8.958   3.447   8.210
27937WAT     H184053   8.884   3.383   8.232
27937WAT     H284054   9.002   3.478   8.295
27938WAT      O84055   2.351   3.827   5.050
27938WAT     H184056   2.443   3.865   5.040
27938WAT     H284057   2.293   3.891   5.100
27939WAT      O84058   7.624   6.123   6.646
27939WAT     H184059   7.665   6.119   6.738
27939WAT     H284060   7.555   6.052   6.637
27940WAT      O84061   8.212   0.446   9.815
27940WAT     H184062   8.222   0.544   9.795
27940WAT     H284063   8.126   0.431   9.864
27941WAT      O84064   8.312   2.602   5.857
27941WAT     H184065   8.275   2.583   5.766
27941WAT     H284066   8.245   2.575   5.926
27942WAT      O84067   8.030   4.631   3.969
27942WAT     H184068   8.032   4.558   3.901
27942WAT     H284069   8.124   4.660   3.990
27943WAT      O84070   0.630   5.572   7.893
27943WAT     H184071   0.644   5.643   7.824
27943WAT     H284072   0.686   5.592   7.973
27944WAT      O84073   1.312   8.988   8.750
27944WAT     H184074   1.336   9.043   8.669
27944WAT     H284075   1.306   9.048   8.830
27945WAT      O84076   4.586   7.236   2.219
27945WAT     H184077   4.509   7.299   2.231
27945WAT     H284078   4.552   7.142   2.221
27946WAT      O84079   2.406   4.770   1.623
27946WAT     H184080   2.336   4.761   1.694
27946WAT     H284081   2.363   4.798   1.538
27947WAT      O84082   4.400   2.369   6.740
27947WAT     H184083   4.423   2.272   6.729
27947WAT     H284084   4.373   2.387   6.834
27948WAT      O84085   9.179   0.787   8.999
27948WAT     H184086   9.195   0.754   9.091
27948WAT     H284087   9.256   0.764   8.940
27949WAT      O84088   3.154   6.326   1.171
27949WAT     H184089   3.156   6.259   1.245
27949WAT     H284090   3.234   6.312   1.112
27950WAT      O84091   1.423   2.695   2.590
27950WAT     H184092   1.478   2.619   2.556
27950WAT     H284093   1.375   2.739   2.513
27951WAT      O84094   4.967   0.631   0.432
27951WAT     H184095   5.010   0.698   0.372
27951WAT     H284096   5.021   0.547   0.434
27952WAT      O84097   5.939   5.103   1.073
27952WAT     H184098   5.975   5.187   1.032
27952WAT     H284099   5.880   5.127   1.150
27953WAT      O84100   4.195   7.864   8.753
27953WAT     H184101   4.213   7.945   8.808
27953WAT     H284102   4.266   7.854   8.683
27954WAT      O84103   5.343   2.885   3.752
27954WAT     H184104   5.399   2.832   3.688
27954WAT     H284105   5.261   2.833   3.775
27955WAT      O84106   4.969   5.635   1.185
27955WAT     H184107   5.057   5.681   1.200
27955WAT     H284108   4.904   5.701   1.147
27956WAT      O84109   8.848   3.247   2.656
27956WAT     H184110   8.779   3.181   2.625
27956WAT     H284111   8.865   3.234   2.754
27957WAT      O84112   1.808   4.666   7.959
27957WAT     H184113   1.827   4.570   7.978
27957WAT     H284114   1.871   4.724   8.011
27958WAT      O84115   4.863   7.446   4.509
27958WAT     H184116   4.838   7.541   4.491
27958WAT     H284117   4.956   7.443   4.546
27959WAT      O84118   0.296   9.585   3.160
27959WAT     H184119   0.353   9.544   3.232
27959WAT     H284120   0.225   9.520   3.133
27960WAT      O84121   6.215   1.784   1.656
27960WAT     H184122   6.298   1.737   1.625
27960WAT     H284123   6.198   1.762   1.752
27961WAT      O84124   0.814   7.660   4.818
27961WAT     H184125   0.741   7.656   4.750
27961WAT     H284126   0.897   7.617   4.782
27962WAT      O84127   1.235   5.285   0.550
27962WAT     H184128   1.166   5.233   0.599
27962WAT     H284129   1.308   5.225   0.519
27963WAT      O84130   1.800   1.467   1.341
27963WAT     H184131   1.885   1.504   1.376
27963WAT     H284132   1.765   1.397   1.405
27964WAT      O84133   4.115   7.226   7.034
27964WAT     H184134   4.158   7.154   6.980
27964WAT     H284135   4.017   7.226   7.017
27965WAT      O84136   7.681   9.530   1.732
27965WAT     H184137   7.743   9.538   1.654
27965WAT     H284138   7.688   9.611   1.789
27966WAT      O84139   6.135   9.830   6.715
27966WAT     H184140   6.195   9.761   6.674
27966WAT     H284141   6.093   9.792   6.798
27967WAT      O84142   6.898   8.154   4.686
27967WAT     H184143   6.966   8.188   4.751
27967WAT     H284144   6.808   8.151   4.731
27968WAT      O84145   1.099   8.954   9.207
27968WAT     H184146   1.093   8.864   9.163
27968WAT     H284147   1.118   8.943   9.304
27969WAT      O84148   2.932   9.679   6.129
27969WAT     H184149   3.013   9.639   6.088
27969WAT     H284150   2.871   9.713   6.057
27970WAT      O84151   7.624   5.096   4.606
27970WAT     H184152   7.699   5.134   4.660
27970WAT     H284153   7.632   4.997   4.603
27971WAT      O84154   4.325   9.427   6.325
27971WAT     H184155   4.252   9.487   6.359
27971WAT     H284156   4.297   9.387   6.238
27972WAT      O84157   9.761   1.356   0.444
27972WAT     H184158   9.810   1.394   0.366
27972WAT     H284159   9.790   1.401   0.528
27973WAT      O84160   5.549   5.008   1.857
27973WAT     H184161   5.619   5.049   1.798
27973WAT     H284162   5.458   5.031   1.822
27974WAT      O84163   9.631   6.735   7.218
27974WAT     H184164   9.700   6.754   7.148
27974WAT     H284165   9.674   6.734   7.308
27975WAT      O84166   0.280   0.943   8.149
27975WAT     H184167   0.282   0.999   8.067
27975WAT     H284168   0.366   0.894   8.160
27976WAT      O84169   5.350   7.812   6.240
27976WAT     H184170   5.318   7.904   6.264
27976WAT     H284171   5.278   7.765   6.189
27977WAT      O84172   7.381   1.471   7.656
27977WAT     H184173   7.348   1.415   7.732
27977WAT     H284174   7.421   1.555   7.693
27978WAT      O84175   6.405   4.791   5.158
27978WAT     H184176   6.445   4.789   5.250
27978WAT     H284177   6.347   4.711   5.145
27979WAT      O84178   6.924   5.842   4.745
27979WAT     H184179   6.884   5.931   4.766
27979WAT     H284180   7.014   5.855   4.703
27980WAT      O84181   1.165   2.322   0.285
27980WAT     H184182   1.250   2.361   0.249
27980WAT     H284183   1.168   2.222   0.276
27981WAT      O84184   1.147   0.835   3.518
27981WAT     H184185   1.241   0.840   3.551
27981WAT     H284186   1.141   0.874   3.426
27982WAT      O84187   8.851   0.992   3.251
27982WAT     H184188   8.933   1.049   3.259
27982WAT     H284189   8.834   0.945   3.337
27983WAT      O84190   9.666   5.134   6.561
27983WAT     H184191   9.655   5.106   6.656
27983WAT     H284192   9.666   5.054   6.502
27984WAT      O84193   8.880   4.076   2.799
27984WAT     H184194   8.815   4.011   2.758
27984WAT     H284195   8.836   4.164   2.812
27985WAT      O84196   7.062   7.497   0.053
27985WAT     H184197   7.105   7.415   0.016
27985WAT     H284198   7.127   7.574   0.047
27986WAT      O84199   9.009   7.848   6.006
27986WAT     H184200   9.053   7.839   5.917
27986WAT     H284201   8.909   7.850   5.994
27987WAT      O84202   2.788   8.095   7.561
27987WAT     H184203   2.769   8.076   7.465
27987WAT     H284204   2.824   8.187   7.570
27988WAT      O84205   7.435   7.372   1.676
27988WAT     H184206   7.403   7.394   1.767
27988WAT     H284207   7.419   7.449   1.615
27989WAT      O84208   5.517   6.376   3.741
27989WAT     H184209   5.597   6.316   3.741
27989WAT     H284210   5.483   6.386   3.647
27990WAT      O84211   8.377   0.215   9.593
27990WAT     H184212   8.332   0.236   9.507
27990WAT     H284213   8.317   0.240   9.669
27991WAT      O84214   5.214   1.109   1.293
27991WAT     H184215   5.229   1.032   1.232
27991WAT     H284216   5.135   1.091   1.352
27992WAT      O84217   4.609   7.785   2.146
27992WAT     H184218   4.630   7.699   2.100
27992WAT     H284219   4.543   7.837   2.091
27993WAT      O84220   9.397   5.648   4.689
27993WAT     H184221   9.474   5.692   4.735
27993WAT     H284222   9.311   5.681   4.728
27994WAT      O84223   9.458   3.927   8.128
27994WAT     H184224   9.522   3.941   8.052
27994WAT     H284225   9.471   3.999   8.196
27995WAT      O84226   6.978   8.699   2.209
27995WAT     H184227   7.009   8.617   2.160
27995WAT     H284228   6.913   8.673   2.280
27996WAT      O84229   3.182   0.298   3.799
27996WAT     H184230   3.278   0.275   3.819
27996WAT     H284231   3.173   0.323   3.703
27997WAT      O84232   2.494   4.071   5.824
27997WAT     H184233   2.433   4.050   5.747
27997WAT     H284234   2.486   4.167   5.848
27998WAT      O84235   8.644   5.038   2.151
27998WAT     H184236   8.736   5.055   2.115
27998WAT     H284237   8.629   4.939   2.157
27999WAT      O84238   2.724   1.890   3.183
27999WAT     H184239   2.728   1.836   3.098
27999WAT     H284240   2.710   1.986   3.160
28000WAT      O84241   8.759   6.327   9.624
28000WAT     H184242   8.773   6.407   9.684
28000WAT     H284243   8.683   6.345   9.562
28001WAT      O84244   4.023   2.260   5.659
28001WAT     H184245   4.068   2.332   5.607
28001WAT     H284246   3.926   2.258   5.637
28002WAT      O84247   9.501   5.189   7.818
28002WAT     H184248   9.426   5.160   7.877
28002WAT     H284249   9.473   5.181   7.722
28003WAT      O84250   1.339   7.991   7.230
28003WAT     H184251   1.437   8.005   7.243
28003WAT     H284252   1.291   8.009   7.316
28004WAT      O84253   1.367   4.298   0.926
28004WAT     H184254   1.310   4.244   0.864
28004WAT     H284255   1.375   4.391   0.891
28005WAT      O84256   5.390   7.884   4.442
28005WAT     H184257   5.463   7.873   4.510
28005WAT     H284258   5.343   7.797   4.431
28006WAT      O84259   0.190   4.191   0.602
28006WAT     H184260   0.109   4.194   0.660
28006WAT     H284261   0.186   4.111   0.543
28007WAT      O84262   3.004   3.749   5.097
28007WAT     H184263   2.946   3.785   5.171
28007WAT     H284264   3.033   3.656   5.120
28008WAT      O84265   2.484   5.751   3.903
28008WAT     H184266   2.517   5.788   3.990
28008WAT     H284267   2.389   5.721   3.914
28009WAT      O84268   1.536   3.015   2.891
28009WAT     H184269   1.468   3.085   2.874
28009WAT     H284270   1.618   3.034   2.837
28010WAT      O84271   3.982   7.637   3.868
28010WAT     H184272   3.931   7.632   3.782
28010WAT     H284273   3.966   7.555   3.921
28011WAT      O84274   3.109   8.627   8.099
28011WAT     H184275   3.106   8.680   8.184
28011WAT     H284276   3.090   8.688   8.021
28012WAT      O84277   4.150   3.217   9.860
28012WAT     H184278   4.161   3.158   9.940
28012WAT     H284279   4.240   3.241   9.824
28013WAT      O84280   5.525   4.186   0.719
28013WAT     H184281   5.524   4.188   0.619
28013WAT     H284282   5.602   4.239   0.753
28014WAT      O84283   3.191   3.420   3.060
28014WAT     H184284   3.163   3.493   3.122
28014WAT     H284285   3.258   3.455   2.995
28015WAT      O84286   1.058   8.365   6.008
28015WAT     H184287   0.961   8.387   6.013
28015WAT     H284288   1.075   8.305   5.930
28016WAT      O84289   0.600   3.261   1.300
28016WAT     H184290   0.674   3.314   1.256
28016WAT     H284291   0.609   3.266   1.399
28017WAT      O84292   5.514   3.294   1.841
28017WAT     H184293   5.586   3.225   1.850
28017WAT     H284294   5.544   3.380   1.882
28018WAT      O84295   1.846   4.091   0.252
28018WAT     H184296   1.884   4.183   0.239
28018WAT     H284297   1.846   4.068   0.349
28019WAT      O84298   7.134   3.358   5.112
28019WAT     H184299   7.134   3.298   5.193
28019WAT     H284300   7.121   3.302   5.030
28020WAT      O84301   7.436   0.106   6.324
28020WAT     H184302   7.402   0.190   6.282
28020WAT     H284303   7.470   0.126   6.416
28021WAT      O84304   5.413   7.958   5.342
28021WAT     H184305   5.340   7.897   5.373
28021WAT     H284306   5.376   8.051   5.330
28022WAT      O84307   9.353   3.839   9.737
28022WAT     H184308   9.324   3.930   9.708
28022WAT     H284309   9.442   3.844   9.782
28023WAT      O84310   6.538   1.604   4.414
28023WAT     H184311   6.611   1.590   4.481
28023WAT     H284312   6.577   1.634   4.327
28024WAT      O84313   1.896   7.935   2.589
28024WAT     H184314   1.987   7.968   2.614
28024WAT     H284315   1.873   7.967   2.497
28025WAT      O84316   3.423   6.682   0.169
28025WAT     H184317   3.468   6.772   0.168
28025WAT     H284318   3.333   6.690   0.127
28026WAT      O84319   0.010   3.670   7.174
28026WAT     H184320  -0.069   3.619   7.209
28026WAT     H284321   0.035   3.636   7.084
28027WAT      O84322   6.435   6.415   5.767
28027WAT     H184323   6.465   6.342   5.705
28027WAT     H284324   6.336   6.424   5.762
28028WAT      O84325   6.824   1.531   6.170
28028WAT     H184326   6.745   1.531   6.232
28028WAT     H284327   6.792   1.527   6.076
28029WAT      O84328   4.252   4.091   4.062
28029WAT     H184329   4.153   4.081   4.050
28029WAT     H284330   4.275   4.187   4.074
28030WAT      O84331   8.927   6.940   9.734
28030WAT     H184332   8.858   7.005   9.766
28030WAT     H284333   9.009   6.949   9.790
28031WAT      O84334   3.770   2.988   2.683
28031WAT     H184335   3.769   2.996   2.782
28031WAT     H284336   3.831   3.057   2.644
28032WAT      O84337   5.691   7.900   9.509
28032WAT     H184338   5.738   7.988   9.503
28032WAT     H284339   5.599   7.914   9.547
28033WAT      O84340   6.651   6.730   5.292
28033WAT     H184341   6.623   6.803   5.229
28033WAT     H284342   6.598   6.738   5.377
28034WAT      O84343   7.490   4.667   8.432
28034WAT     H184344   7.404   4.718   8.434
28034WAT     H284345   7.566   4.731   8.433
28035WAT      O84346   1.247   2.372   1.424
28035WAT     H184347   1.309   2.335   1.354
28035WAT     H284348   1.185   2.301   1.455
28036WAT      O84349   9.115   0.500   9.084
28036WAT     H184350   9.158   0.558   9.153
28036WAT     H284351   9.180   0.484   9.009
28037WAT      O84352   0.868   6.461   6.660
28037WAT     H184353   0.784   6.478   6.713
28037WAT     H284354   0.843   6.422   6.572
28038WAT      O84355   8.394   4.333   7.396
28038WAT     H184356   8.404   4.432   7.396
28038WAT     H284357   8.451   4.293   7.324
28039WAT      O84358   9.517   3.489   8.859
28039WAT     H184359   9.422   3.462   8.877
28039WAT     H284360   9.577   3.409   8.870
28040WAT      O84361   9.508   6.449   5.155
28040WAT     H184362   9.482   6.521   5.091
28040WAT     H284363   9.428   6.421   5.208
28041WAT      O84364   4.141   3.907   0.552
28041WAT     H184365   4.044   3.907   0.531
28041WAT     H284366   4.191   3.955   0.481
28042WAT      O84367   5.113   3.114   8.691
28042WAT     H184368   5.100   3.023   8.731
28042WAT     H284369   5.097   3.184   8.761
28043WAT      O84370   9.497   8.277   9.057
28043WAT     H184371   9.474   8.284   9.154
28043WAT     H284372   9.430   8.219   9.010
28044WAT      O84373   3.089   7.594   4.771
28044WAT     H184374   3.098   7.494   4.773
28044WAT     H284375   3.157   7.635   4.832
28045WAT      O84376   7.518   9.632   3.984
28045WAT     H184377   7.541   9.677   3.898
28045WAT     H284378   7.428   9.588   3.976
28046WAT      O84379   6.649   0.933   8.114
28046WAT     H184380   6.610   0.861   8.171
28046WAT     H284381   6.723   0.979   8.164
28047WAT      O84382   1.015   0.041   6.554
28047WAT     H184383   1.103   0.006   6.523
28047WAT     H284384   1.028   0.098   6.635
28048WAT      O84385   7.837   0.845   4.133
28048WAT     H184386   7.857   0.843   4.035
28048WAT     H284387   7.799   0.756   4.161
28049WAT      O84388   6.721   8.453   1.404
28049WAT     H184389   6.743   8.421   1.312
28049WAT     H284390   6.639   8.510   1.401
28050WAT      O84391   0.480   3.862   4.068
28050WAT     H184392   0.468   3.773   4.025
28050WAT     H284393   0.507   3.849   4.164
28051WAT      O84394   3.196   2.724   8.827
28051WAT     H184395   3.181   2.767   8.916
28051WAT     H284396   3.192   2.793   8.755
28052WAT      O84397   4.727   2.953   4.275
28052WAT     H184398   4.696   2.889   4.205
28052WAT     H284399   4.737   3.044   4.235
28053WAT      O84400   8.829   3.548   6.275
28053WAT     H184401   8.917   3.551   6.323
28053WAT     H284402   8.758   3.587   6.333
28054WAT      O84403   8.519   6.366   8.243
28054WAT     H184404   8.477   6.295   8.187
28054WAT     H284405   8.470   6.372   8.330
28055WAT      O84406   7.450   2.099   6.700
28055WAT     H184407   7.495   2.128   6.616
28055WAT     H284408   7.377   2.163   6.723
28056WAT      O84409   1.269   6.443   7.517
28056WAT     H184410   1.316   6.474   7.435
28056WAT     H284411   1.207   6.515   7.550
28057WAT      O84412   9.660   1.125   7.089
28057WAT     H184413   9.649   1.186   7.010
28057WAT     H284414   9.637   1.174   7.173
28058WAT      O84415   6.128   4.233   9.133
28058WAT     H184416   6.060   4.161   9.143
28058WAT     H284417   6.166   4.256   9.223
28059WAT      O84418   2.600   1.002   6.784
28059WAT     H184419   2.589   1.057   6.867
28059WAT     H284420   2.682   1.033   6.735
28060WAT      O84421   3.169   8.106   2.718
28060WAT     H184422   3.072   8.090   2.733
28060WAT     H284423   3.187   8.204   2.714
28061WAT      O84424   5.563   8.178   0.371
28061WAT     H184425   5.526   8.086   0.355
28061WAT     H284426   5.525   8.241   0.304
28062WAT      O84427   3.198   1.462   8.983
28062WAT     H184428   3.183   1.508   9.070
28062WAT     H284429   3.110   1.434   8.945
28063WAT      O84430   7.734   3.301   9.034
28063WAT     H184431   7.774   3.387   9.005
28063WAT     H284432   7.773   3.274   9.122
28064WAT      O84433   0.599   5.403   1.421
28064WAT     H184434   0.692   5.418   1.390
28064WAT     H284435   0.600   5.342   1.501
28065WAT      O84436   7.618   9.378   7.732
28065WAT     H184437   7.540   9.440   7.727
28065WAT     H284438   7.698   9.429   7.766
28066WAT      O84439   6.529   3.237   6.999
28066WAT     H184440   6.551   3.187   6.916
28066WAT     H284441   6.544   3.335   6.985
28067WAT      O84442   6.022   8.666   4.872
28067WAT     H184443   6.001   8.691   4.778
28067WAT     H284444   6.006   8.568   4.885
28068WAT      O84445   6.937   2.229   6.916
28068WAT     H184446   6.950   2.190   7.007
28068WAT     H284447   6.968   2.164   6.847
28069WAT      O84448   2.740   1.632   6.428
28069WAT     H184449   2.806   1.669   6.494
28069WAT     H284450   2.712   1.540   6.457
28070WAT      O84451   9.836   5.137   0.477
28070WAT     H184452   9.781   5.056   0.496
28070WAT     H284453   9.930   5.122   0.509
28071WAT      O84454   3.269   9.398   9.363
28071WAT     H184455   3.299   9.305   9.343
28071WAT     H284456   3.200   9.425   9.296
28072WAT      O84457   6.818   6.051   7.381
28072WAT     H184458   6.834   5.953   7.376
28072WAT     H284459   6.859   6.088   7.464
28073WAT      O84460   2.834   3.945   4.418
28073WAT     H184461   2.758   3.910   4.472
28073WAT     H284462   2.903   3.874   4.406
28074WAT      O84463   7.399   6.310   7.625
28074WAT     H184464   7.326   6.357   7.575
28074WAT     H284465   7.410   6.350   7.716
28075WAT      O84466   8.102   0.533   2.606
28075WAT     H184467   8.170   0.584   2.554
28075WAT     H284468   8.138   0.443   2.630
28076WAT      O84469   9.674   9.613   0.098
28076WAT     H184470   9.721   9.699   0.115
28076WAT     H284471   9.577   9.630   0.084
28077WAT      O84472   8.210   5.003   5.143
28077WAT     H184473   8.158   5.025   5.060
28077WAT     H284474   8.288   5.065   5.150
28078WAT      O84475   3.760   1.954   4.074
28078WAT     H184476   3.771   1.945   3.975
28078WAT     H284477   3.777   1.866   4.118
28079WAT      O84478   3.700   2.474   9.310
28079WAT     H184479   3.635   2.399   9.319
28079WAT     H284480   3.692   2.514   9.218
28080WAT      O84481   7.063   8.799   9.038
28080WAT     H184482   6.988   8.842   8.987
28080WAT     H284483   7.142   8.861   9.039
28081WAT      O84484   6.978   6.565   8.454
28081WAT     H184485   7.004   6.471   8.428
28081WAT     H284486   6.880   6.569   8.471
28082WAT      O84487   9.356   5.573   4.006
28082WAT     H184488   9.411   5.635   3.951
28082WAT     H284489   9.407   5.489   4.023
28083WAT      O84490   2.292   3.709   1.497
28083WAT     H184491   2.313   3.613   1.516
28083WAT     H284492   2.276   3.757   1.583
28084WAT      O84493   4.603   9.240   4.437
28084WAT     H184494   4.610   9.229   4.338
28084WAT     H284495   4.630   9.155   4.482
28085WAT      O84496   0.272   8.959   3.047
28085WAT     H184497   0.276   8.966   2.947
28085WAT     H284498   0.364   8.940   3.082
28086WAT      O84499   2.771   1.165   0.545
28086WAT     H184500   2.708   1.166   0.623
28086WAT     H284501   2.865   1.169   0.578
28087WAT      O84502   8.856   0.562   8.997
28087WAT     H184503   8.799   0.610   9.064
28087WAT     H284504   8.940   0.532   9.041
28088WAT      O84505   1.012   7.223   4.118
28088WAT     H184506   1.072   7.293   4.079
28088WAT     H284507   0.919   7.260   4.127
28089WAT      O84508   1.330   0.817   1.328
28089WAT     H184509   1.241   0.778   1.350
28089WAT     H284510   1.320   0.880   1.251
28090WAT      O84511   5.029   2.977   6.004
28090WAT     H184512   5.116   3.012   5.970
28090WAT     H284513   5.017   2.882   5.975
28091WAT      O84514   7.958   1.544   7.338
28091WAT     H184515   7.915   1.458   7.365
28091WAT     H284516   8.043   1.525   7.288
28092WAT      O84517   5.489   2.150   9.320
28092WAT     H184518   5.557   2.219   9.342
28092WAT     H284519   5.454   2.108   9.404
28093WAT      O84520   9.117   5.354   0.668
28093WAT     H184521   9.114   5.350   0.768
28093WAT     H284522   9.150   5.267   0.632
28094WAT      O84523   1.889   1.961   2.427
28094WAT     H184524   1.836   2.040   2.457
28094WAT     H284525   1.960   1.941   2.494
28095WAT      O84526   3.564   9.554   3.059
28095WAT     H184527   3.629   9.487   3.095
28095WAT     H284528   3.615   9.628   3.014
28096WAT      O84529   1.319   9.467   9.263
28096WAT     H184530   1.321   9.371   9.292
28096WAT     H284531   1.368   9.522   9.330
28097WAT      O84532   9.162   9.045   4.602
28097WAT     H184533   9.219   9.072   4.525
28097WAT     H284534   9.105   8.967   4.576
28098WAT      O84535   6.139   5.542   3.994
28098WAT     H184536   6.084   5.603   4.051
28098WAT     H284537   6.098   5.451   3.995
28099WAT      O84538   0.293   9.114   5.416
28099WAT     H184539   0.297   9.202   5.463
28099WAT     H284540   0.378   9.064   5.433
28100WAT      O84541   1.556   8.244   0.525
28100WAT     H184542   1.636   8.269   0.580
28100WAT     H284543   1.474   8.245   0.584
28101WAT      O84544   2.995   6.055   3.317
28101WAT     H184545   2.934   6.029   3.241
28101WAT     H284546   2.943   6.054   3.403
28102WAT      O84547   1.749   5.950   9.744
28102WAT     H184548   1.789   6.040   9.763
28102WAT     H284549   1.798   5.880   9.797
28103WAT      O84550   3.916   1.961   4.590
28103WAT     H184551   3.878   1.893   4.528
28103WAT     H284552   3.872   1.953   4.680
28104WAT      O84553   5.001   2.536   1.118
28104WAT     H184554   5.002   2.455   1.060
28104WAT     H284555   4.952   2.516   1.203
28105WAT      O84556   0.949   6.157   8.320
28105WAT     H184557   0.934   6.158   8.418
28105WAT     H284558   1.003   6.077   8.294
28106WAT      O84559   8.323   8.044   1.705
28106WAT     H184560   8.402   8.014   1.758
28106WAT     H284561   8.297   7.972   1.640
28107WAT      O84562   4.026  -0.002   4.234
28107WAT     H184563   4.026   0.095   4.210
28107WAT     H284564   4.098  -0.020   4.301
28108WAT      O84565   8.260   1.385   3.353
28108WAT     H184566   8.238   1.303   3.406
28108WAT     H284567   8.356   1.410   3.368
28109WAT      O84568   6.825   1.911   9.741
28109WAT     H184569   6.759   1.842   9.773
28109WAT     H284570   6.864   1.881   9.654
28110WAT      O84571   4.016   1.311   1.026
28110WAT     H184572   3.947   1.382   1.038
28110WAT     H284573   3.983   1.244   0.960
28111WAT      O84574   8.532   8.929   3.832
28111WAT     H184575   8.627   8.957   3.818
28111WAT     H284576   8.530   8.854   3.898
28112WAT      O84577   2.669   3.040   5.625
28112WAT     H184578   2.749   3.011   5.572
28112WAT     H284579   2.598   2.970   5.619
28113WAT      O84580   8.035   4.803   0.797
28113WAT     H184581   8.111   4.740   0.779
28113WAT     H284582   8.065   4.897   0.782
28114WAT      O84583   4.181   4.626   3.997
28114WAT     H184584   4.175   4.720   3.963
28114WAT     H284585   4.174   4.627   4.097
28115WAT      O84586   8.125   2.018   2.135
28115WAT     H184587   8.153   1.954   2.063
28115WAT     H284588   8.185   2.099   2.132
28116WAT      O84589   9.657   0.523   1.338
28116WAT     H184590   9.648   0.605   1.282
28116WAT     H284591   9.747   0.522   1.382
28117WAT      O84592   1.319   9.717   2.205
28117WAT     H184593   1.334   9.809   2.240
28117WAT     H284594   1.300   9.721   2.107
28118WAT      O84595   7.270   6.839   8.640
28118WAT     H184596   7.331   6.847   8.719
28118WAT     H284597   7.247   6.930   8.606
28119WAT      O84598   2.408   6.405   5.854
28119WAT     H184599   2.434   6.483   5.911
28119WAT     H284600   2.385   6.436   5.762
28120WAT      O84601   2.103   3.093   6.101
28120WAT     H184602   2.185   3.059   6.056
28120WAT     H284603   2.118   3.187   6.131
28121WAT      O84604   1.695   2.727   1.916
28121WAT     H184605   1.639   2.790   1.862
28121WAT     H284606   1.659   2.721   2.008
28122WAT      O84607   3.920   1.270   2.636
28122WAT     H184608   3.952   1.301   2.725
28122WAT     H284609   3.956   1.330   2.565
28123WAT      O84610   7.018   5.031   2.391
28123WAT     H184611   6.920   5.038   2.371
28123WAT     H284612   7.043   5.100   2.459
28124WAT      O84613   9.314   6.177   7.145
28124WAT     H184614   9.244   6.245   7.126
28124WAT     H284615   9.276   6.104   7.203
28125WAT      O84616   3.429   7.836   0.123
28125WAT     H184617   3.414   7.815   0.219
28125WAT     H284618   3.355   7.796   0.069
28126WAT      O84619   9.725   4.119   0.507
28126WAT     H184620   9.782   4.073   0.440
28126WAT     H284621   9.646   4.161   0.461
28127WAT      O84622   0.578   1.953   1.966
28127WAT     H184623   0.667   1.979   1.928
28127WAT     H284624   0.586   1.939   2.064
28128WAT      O84625   7.708   2.019   6.845
28128WAT     H184626   7.771   2.096   6.861
28128WAT     H284627   7.642   2.044   6.774
28129WAT      O84628   6.552   1.366   0.678
28129WAT     H184629   6.564   1.288   0.740
28129WAT     H284630   6.641   1.409   0.661
28130WAT      O84631   6.137   7.416   1.400
28130WAT     H184632   6.136   7.332   1.347
28130WAT     H284633   6.232   7.441   1.422
28131WAT      O84634   7.592   8.127   3.693
28131WAT     H184635   7.565   8.162   3.603
28131WAT     H284636   7.554   8.035   3.705
28132WAT      O84637   8.451   2.419   0.428
28132WAT     H184638   8.535   2.472   0.435
28132WAT     H284639   8.474   2.322   0.415
28133WAT      O84640   0.644   3.002   6.084
28133WAT     H184641   0.672   3.080   6.139
28133WAT     H284642   0.711   2.928   6.094
28134WAT      O84643   4.252   3.347   5.374
28134WAT     H184644   4.232   3.261   5.421
28134WAT     H284645   4.305   3.328   5.292
28135WAT      O84646   7.571   7.105   3.535
28135WAT     H184647   7.666   7.074   3.545
28135WAT     H284648   7.510   7.026   3.538
28136WAT      O84649   4.737   9.771   5.167
28136WAT     H184650   4.791   9.697   5.206
28136WAT     H284651   4.756   9.778   5.069
28137WAT      O84652   5.184   6.377   3.465
28137WAT     H184653   5.158   6.443   3.536
28137WAT     H284654   5.108   6.316   3.447
28138WAT      O84655   3.936   8.218   2.590
28138WAT     H184656   3.893   8.130   2.569
28138WAT     H284657   3.880   8.267   2.657
28139WAT      O84658   4.808   7.725   1.165
28139WAT     H184659   4.876   7.739   1.093
28139WAT     H284660   4.727   7.781   1.147
28140WAT      O84661   3.080   0.629   9.053
28140WAT     H184662   3.093   0.720   9.092
28140WAT     H284663   2.983   0.611   9.041
28141WAT      O84664   4.479   9.668   5.425
28141WAT     H184665   4.539   9.588   5.423
28141WAT     H284666   4.534   9.751   5.428
28142WAT      O84667   8.314   1.141   6.271
28142WAT     H184668   8.378   1.089   6.328
28142WAT     H284669   8.227   1.092   6.265
28143WAT      O84670   2.847   2.373   8.641
28143WAT     H184671   2.898   2.399   8.723
28143WAT     H284672   2.909   2.329   8.576
28144WAT      O84673   8.185   8.969   6.259
28144WAT     H184674   8.229   9.028   6.190
28144WAT     H284675   8.221   8.876   6.251
28145WAT      O84676   9.816   7.421   9.879
28145WAT     H184677   9.813   7.503   9.936
28145WAT     H284678   9.836   7.341   9.936
28146WAT      O84679   5.076   7.865   4.816
28146WAT     H184680   5.163   7.829   4.851
28146WAT     H284681   5.091   7.905   4.725
28147WAT      O84682   4.307   4.279   3.034
28147WAT     H184683   4.208   4.286   3.028
28147WAT     H284684   4.332   4.208   3.100
28148WAT      O84685   7.178   7.943   0.946
28148WAT     H184686   7.209   7.865   1.001
28148WAT     H284687   7.106   7.992   0.996
28149WAT      O84688   7.434   8.958   7.602
28149WAT     H184689   7.395   8.951   7.510
28149WAT     H284690   7.368   9.000   7.664
28150WAT      O84691   7.302   8.372   7.756
28150WAT     H184692   7.270   8.449   7.811
28150WAT     H284693   7.339   8.406   7.670
28151WAT      O84694   5.646   0.570   1.359
28151WAT     H184695   5.598   0.658   1.351
28151WAT     H284696   5.694   0.567   1.446
28152WAT      O84697   7.230   1.364   0.728
28152WAT     H184698   7.199   1.287   0.672
28152WAT     H284699   7.312   1.337   0.780
28153WAT      O84700   3.621   0.710   0.601
28153WAT     H184701   3.670   0.696   0.687
28153WAT     H284702   3.681   0.691   0.524
28154WAT      O84703   0.631   1.705   9.200
28154WAT     H184704   0.580   1.680   9.118
28154WAT     H284705   0.601   1.794   9.233
28155WAT      O84706   9.063   0.703   0.507
28155WAT     H184707   9.074   0.756   0.590
28155WAT     H284708   9.098   0.611   0.521
28156WAT      O84709   3.387   7.422   1.730
28156WAT     H184710   3.359   7.433   1.634
28156WAT     H284711   3.486   7.437   1.738
28157WAT      O84712   6.046   6.652   7.446
28157WAT     H184713   5.951   6.684   7.441
28157WAT     H284714   6.051   6.572   7.505
28158WAT      O84715   7.850   1.107   9.459
28158WAT     H184716   7.834   1.188   9.515
28158WAT     H284717   7.852   1.026   9.518
28159WAT      O84718   9.781   3.840   3.591
28159WAT     H184719   9.847   3.777   3.548
28159WAT     H284720   9.724   3.789   3.655
28160WAT      O84721   7.725   8.789   0.910
28160WAT     H184722   7.777   8.711   0.946
28160WAT     H284723   7.734   8.790   0.810
28161WAT      O84724   6.273   1.203   8.599
28161WAT     H184725   6.370   1.197   8.576
28161WAT     H284726   6.262   1.205   8.699
28162WAT      O84727   2.267   2.933   4.548
28162WAT     H184728   2.170   2.919   4.525
28162WAT     H284729   2.323   2.909   4.469
28163WAT      O84730   7.397   8.896   2.169
28163WAT     H184731   7.383   8.799   2.150
28163WAT     H284732   7.491   8.910   2.201
28164WAT      O84733   6.787   0.297   4.763
28164WAT     H184734   6.718   0.265   4.829
28164WAT     H284735   6.878   0.292   4.804
28165WAT      O84736   1.607   1.023   9.311
28165WAT     H184737   1.572   0.985   9.397
28165WAT     H284738   1.661   1.105   9.331
28166WAT      O84739   3.415   8.442   9.652
28166WAT     H184740   3.368   8.381   9.589
28166WAT     H284741   3.380   8.535   9.639
28167WAT      O84742   0.276   3.959   9.026
28167WAT     H184743   0.264   3.859   9.028
28167WAT     H284744   0.374   3.981   9.029
28168WAT      O84745   5.279   0.465   2.727
28168WAT     H184746   5.232   0.464   2.815
28168WAT     H284747   5.214   0.484   2.654
28169WAT      O84748   6.896   6.154   5.717
28169WAT     H184749   6.933   6.072   5.758
28169WAT     H284750   6.861   6.133   5.625
28170WAT      O84751   1.534   0.154   8.760
28170WAT     H184752   1.513   0.130   8.665
28170WAT     H284753   1.628   0.185   8.766
28171WAT      O84754   5.142   7.479   2.277
28171WAT     H184755   5.205   7.484   2.354
28171WAT     H284756   5.053   7.448   2.308
28172WAT      O84757   8.251   8.568   4.533
28172WAT     H184758   8.313   8.498   4.569
28172WAT     H284759   8.208   8.617   4.609
28173WAT      O84760   8.250   0.199   2.225
28173WAT     H184761   8.326   0.225   2.166
28173WAT     H284762   8.282   0.131   2.292
28174WAT      O84763   9.668   8.897   5.448
28174WAT     H184764   9.705   8.990   5.452
28174WAT     H284765   9.706   8.849   5.369
28175WAT      O84766   2.022   6.054   3.536
28175WAT     H184767   2.089   6.104   3.591
28175WAT     H284768   2.026   6.087   3.441
28176WAT      O84769   8.933   3.152   0.726
28176WAT     H184770   8.932   3.055   0.700
28176WAT     H284771   9.005   3.199   0.675
28177WAT      O84772   4.692   2.337   0.480
28177WAT     H184773   4.682   2.428   0.520
28177WAT     H284774   4.762   2.338   0.409
28178WAT      O84775   3.070   4.484   4.328
28178WAT     H184776   3.013   4.402   4.324
28178WAT     H284777   3.125   4.490   4.245
28179WAT      O84778   8.069   1.163   1.581
28179WAT     H184779   8.020   1.097   1.637
28179WAT     H284780   8.164   1.168   1.612
28180WAT      O84781   2.404   3.332   2.529
28180WAT     H184782   2.452   3.418   2.547
28180WAT     H284783   2.437   3.293   2.443
28181WAT      O84784   8.246   3.971   1.915
28181WAT     H184785   8.217   3.905   1.845
28181WAT     H284786   8.306   4.039   1.873
28182WAT      O84787   6.510   8.779   7.661
28182WAT     H184788   6.472   8.871   7.671
28182WAT     H284789   6.518   8.736   7.751
28183WAT      O84790   9.051   3.685   3.556
28183WAT     H184791   9.058   3.784   3.549
28183WAT     H284792   8.956   3.659   3.572
28184WAT      O84793   4.878   4.155   9.110
28184WAT     H184794   4.902   4.079   9.050
28184WAT     H284795   4.931   4.236   9.085
28185WAT      O84796   5.852   9.478   9.630
28185WAT     H184797   5.950   9.469   9.642
28185WAT     H284798   5.823   9.569   9.659
28186WAT      O84799   2.231   6.367   2.316
28186WAT     H184800   2.164   6.383   2.388
28186WAT     H284801   2.185   6.352   2.229
28187WAT      O84802   9.275   5.752   1.070
28187WAT     H184803   9.274   5.667   1.121
28187WAT     H284804   9.361   5.761   1.020
28188WAT      O84805   4.126   6.717   2.012
28188WAT     H184806   4.110   6.722   1.914
28188WAT     H284807   4.215   6.674   2.029
28189WAT      O84808   3.619   7.795   5.095
28189WAT     H184809   3.660   7.709   5.127
28189WAT     H284810   3.541   7.817   5.154
28190WAT      O84811   6.406   2.582   5.906
28190WAT     H184812   6.416   2.536   5.994
28190WAT     H284813   6.478   2.550   5.843
28191WAT      O84814   1.954   1.735   9.476
28191WAT     H184815   2.004   1.668   9.531
28191WAT     H284816   1.858   1.708   9.470
28192WAT      O84817   5.949   3.079   4.900
28192WAT     H184818   5.943   3.098   4.998
28192WAT     H284819   5.857   3.071   4.862
28193WAT      O84820   6.121   4.025   2.440
28193WAT     H184821   6.096   3.929   2.426
28193WAT     H284822   6.208   4.029   2.490
28194WAT      O84823   1.794   7.976   5.028
28194WAT     H184824   1.694   7.981   5.032
28194WAT     H284825   1.823   7.881   5.039
28195WAT      O84826   1.224   2.071   0.408
28195WAT     H184827   1.132   2.033   0.417
28195WAT     H284828   1.257   2.102   0.497
28196WAT      O84829   0.368   7.730   6.182
28196WAT     H184830   0.404   7.637   6.174
28196WAT     H284831   0.337   7.745   6.276
28197WAT      O84832   7.456   8.735   5.464
28197WAT     H184833   7.496   8.811   5.413
28197WAT     H284834   7.360   8.724   5.438
28198WAT      O84835   7.105   5.451   0.177
28198WAT     H184836   7.086   5.384   0.105
28198WAT     H284837   7.041   5.527   0.170
28199WAT      O84838   2.663   5.831   4.159
28199WAT     H184839   2.733   5.885   4.206
28199WAT     H284840   2.675   5.734   4.180
28200WAT      O84841   6.097   0.452   4.435
28200WAT     H184842   6.102   0.410   4.344
28200WAT     H284843   6.138   0.391   4.502
28201WAT      O84844   5.568   5.951   1.445
28201WAT     H184845   5.667   5.964   1.441
28201WAT     H284846   5.524   6.033   1.483
28202WAT      O84847   2.867   3.793   6.879
28202WAT     H184848   2.891   3.697   6.894
28202WAT     H284849   2.892   3.820   6.786
28203WAT      O84850   6.057   7.090   5.478
28203WAT     H184851   6.024   7.182   5.500
28203WAT     H284852   6.134   7.068   5.538
28204WAT      O84853   4.194   7.706   7.817
28204WAT     H184854   4.215   7.792   7.771
28204WAT     H284855   4.128   7.654   7.763
28205WAT      O84856   7.723   9.771   1.863
28205WAT     H184857   7.733   9.844   1.796
28205WAT     H284858   7.801   9.771   1.924
28206WAT      O84859   2.575   5.134   0.130
28206WAT     H184860   2.615   5.216   0.171
28206WAT     H284861   2.633   5.055   0.148
28207WAT      O84862   4.339   5.878   9.065
28207WAT     H184863   4.326   5.862   8.967
28207WAT     H284864   4.281   5.815   9.117
28208WAT      O84865   5.676   4.643   3.294
28208WAT     H184866   5.745   4.655   3.365
28208WAT     H284867   5.607   4.716   3.301
28209WAT      O84868   8.640   5.099   7.550
28209WAT     H184869   8.558   5.066   7.596
28209WAT     H284870   8.669   5.185   7.593
28210WAT      O84871   9.648   7.398   7.879
28210WAT     H184872   9.731   7.443   7.847
28210WAT     H284873   9.633   7.315   7.825
28211WAT      O84874   7.208   4.648   5.892
28211WAT     H184875   7.282   4.616   5.951
28211WAT     H284876   7.167   4.571   5.844
28212WAT      O84877   2.818   4.845   9.627
28212WAT     H184878   2.806   4.940   9.654
28212WAT     H284879   2.778   4.831   9.536
28213WAT      O84880   8.832   3.068   7.567
28213WAT     H184881   8.786   3.133   7.505
28213WAT     H284882   8.872   2.994   7.513
28214WAT      O84883   5.157   3.916   0.547
28214WAT     H184884   5.198   3.846   0.605
28214WAT     H284885   5.061   3.928   0.571
28215WAT      O84886   5.459   2.134   5.815
28215WAT     H184887   5.524   2.133   5.740
28215WAT     H284888   5.508   2.125   5.902
28216WAT      O84889   4.337   7.405   2.222
28216WAT     H184890   4.358   7.413   2.124
28216WAT     H284891   4.263   7.467   2.245
28217WAT      O84892   6.320   6.956   5.262
28217WAT     H184893   6.228   6.920   5.279
28217WAT     H284894   6.322   7.053   5.285
28218WAT      O84895   1.072   0.230   9.814
28218WAT     H184896   1.110   0.142   9.843
28218WAT     H284897   0.979   0.239   9.849
28219WAT      O84898   7.495   2.524   2.113
28219WAT     H184899   7.580   2.546   2.161
28219WAT     H284900   7.491   2.426   2.094
28220WAT      O84901   2.931   0.409   3.608
28220WAT     H184902   2.883   0.469   3.672
28220WAT     H284903   2.983   0.464   3.543
28221WAT      O84904   2.305   4.140   4.281
28221WAT     H184905   2.228   4.088   4.316
28221WAT     H284906   2.275   4.232   4.255
28222WAT      O84907   8.114   5.806   3.140
28222WAT     H184908   8.101   5.828   3.237
28222WAT     H284909   8.209   5.777   3.125
28223WAT      O84910   9.312   4.158   0.501
28223WAT     H184911   9.293   4.072   0.455
28223WAT     H284912   9.257   4.164   0.584
28224WAT      O84913   7.224   2.280   1.318
28224WAT     H184914   7.129   2.302   1.296
28224WAT     H284915   7.274   2.364   1.339
28225WAT      O84916   7.009   1.714   5.827
28225WAT     H184917   6.955   1.643   5.781
28225WAT     H284918   6.967   1.803   5.810
28226WAT      O84919   4.823   0.987   2.034
28226WAT     H184920   4.856   1.074   2.072
28226WAT     H284921   4.727   0.995   2.009
28227WAT      O84922   5.014   7.005   1.341
28227WAT     H184923   5.087   6.951   1.300
28227WAT     H284924   5.020   7.100   1.309
28228WAT      O84925   5.018   8.954   8.354
28228WAT     H184926   5.008   9.036   8.297
28228WAT     H284927   4.936   8.897   8.345
28229WAT      O84928   5.902   8.238   9.673
28229WAT     H184929   5.896   8.150   9.720
28229WAT     H284930   5.846   8.235   9.590
28230WAT      O84931   5.479   4.679   1.075
28230WAT     H184932   5.566   4.728   1.085
28230WAT     H284933   5.497   4.580   1.072
28231WAT      O84934   5.161   3.037   5.410
28231WAT     H184935   5.135   2.979   5.333
28231WAT     H284936   5.080   3.064   5.461
28232WAT      O84937   1.162   9.163   2.735
28232WAT     H184938   1.146   9.065   2.722
28232WAT     H284939   1.084   9.214   2.700
28233WAT      O84940   7.145   0.734   0.311
28233WAT     H184941   7.140   0.832   0.332
28233WAT     H284942   7.115   0.682   0.391
28234WAT      O84943   4.186   4.191   6.915
28234WAT     H184944   4.093   4.161   6.895
28234WAT     H284945   4.205   4.275   6.865
28235WAT      O84946   4.551   6.876   4.904
28235WAT     H184947   4.574   6.973   4.897
28235WAT     H284948   4.463   6.860   4.860
28236WAT      O84949   2.001   6.179   2.361
28236WAT     H184950   1.996   6.271   2.401
28236WAT     H284951   1.910   6.152   2.328
28237WAT      O84952   5.214   4.061   3.754
28237WAT     H184953   5.284   4.113   3.705
28237WAT     H284954   5.131   4.055   3.698
28238WAT      O84955   1.709   1.225   4.035
28238WAT     H184956   1.680   1.139   3.994
28238WAT     H284957   1.763   1.206   4.117
28239WAT      O84958   1.828   6.610   3.621
28239WAT     H184959   1.913   6.631   3.669
28239WAT     H284960   1.815   6.511   3.618
28240WAT      O84961   8.299   2.571   9.127
28240WAT     H184962   8.396   2.558   9.112
28240WAT     H284963   8.274   2.540   9.219
28241WAT      O84964   1.529   8.564   9.330
28241WAT     H184965   1.474   8.615   9.397
28241WAT     H284966   1.588   8.499   9.379
28242WAT      O84967   9.851   2.068   7.895
28242WAT     H184968   9.946   2.096   7.913
28242WAT     H284969   9.841   2.044   7.798
28243WAT      O84970   4.735   7.315   7.006
28243WAT     H184971   4.778   7.294   6.918
28243WAT     H284972   4.759   7.408   7.034
28244WAT      O84973   2.920   8.840   7.500
28244WAT     H184974   2.871   8.869   7.582
28244WAT     H284975   2.864   8.772   7.451
28245WAT      O84976   8.933   2.107   1.435
28245WAT     H184977   8.958   2.192   1.389
28245WAT     H284978   8.905   2.039   1.367
28246WAT      O84979   5.707   8.457   2.933
28246WAT     H184980   5.664   8.508   3.008
28246WAT     H284981   5.640   8.444   2.859
28247WAT      O84982   8.338   4.019   7.786
28247WAT     H184983   8.314   4.084   7.714
28247WAT     H284984   8.403   3.952   7.750
28248WAT      O84985   2.417   1.817   2.975
28248WAT     H184986   2.386   1.820   3.070
28248WAT     H284987   2.378   1.737   2.929
28249WAT      O84988   3.158   1.654   5.496
28249WAT     H184989   3.123   1.748   5.506
28249WAT     H284990   3.163   1.631   5.398
28250WAT      O84991   1.370   9.405   6.560
28250WAT     H184992   1.424   9.365   6.485
28250WAT     H284993   1.275   9.416   6.530
28251WAT      O84994   6.552   6.333   9.516
28251WAT     H184995   6.582   6.418   9.473
28251WAT     H284996   6.592   6.255   9.467
28252WAT      O84997   6.413   2.992   0.173
28252WAT     H184998   6.478   3.067   0.189
28252WAT     H284999   6.456   2.905   0.196
28253WAT      O85000   2.800   5.417   0.455
28253WAT     H185001   2.849   5.460   0.531
28253WAT     H285002   2.840   5.447   0.368
28254WAT      O85003   6.251   2.642   1.808
28254WAT     H185004   6.312   2.721   1.813
28254WAT     H285005   6.215   2.633   1.715
28255WAT      O85006   6.691   1.239   2.835
28255WAT     H185007   6.652   1.147   2.841
28255WAT     H285008   6.628   1.300   2.787
28256WAT      O85009   2.215   4.420   0.523
28256WAT     H185010   2.275   4.472   0.583
28256WAT     H285011   2.176   4.342   0.573
28257WAT      O85012   1.840   6.870   1.763
28257WAT     H185013   1.876   6.790   1.811
28257WAT     H285014   1.910   6.906   1.701
28258WAT      O85015   6.602   0.537   1.036
28258WAT     H185016   6.551   0.601   1.094
28258WAT     H285017   6.599   0.446   1.077
28259WAT      O85018   1.902   1.343   9.569
28259WAT     H185019   1.981   1.403   9.581
28259WAT     H285020   1.928   1.248   9.589
28260WAT      O85021   5.000   7.268   0.406
28260WAT     H185022   5.070   7.256   0.477
28260WAT     H285023   5.028   7.342   0.345
28261WAT      O85024   8.219   1.678   7.015
28261WAT     H185025   8.265   1.652   6.930
28261WAT     H285026   8.144   1.740   6.994
28262WAT      O85027   5.402   6.720   7.511
28262WAT     H185028   5.497   6.720   7.544
28262WAT     H285029   5.378   6.811   7.480
28263WAT      O85030   2.793   2.586   2.629
28263WAT     H185031   2.855   2.636   2.569
28263WAT     H285032   2.732   2.650   2.675
28264WAT      O85033   2.238   8.347   6.750
28264WAT     H185034   2.266   8.316   6.659
28264WAT     H285035   2.223   8.267   6.809
28265WAT      O85036   3.596   6.507   4.891
28265WAT     H185037   3.611   6.513   4.989
28265WAT     H285038   3.681   6.480   4.845
28266WAT      O85039   7.385   1.663   3.912
28266WAT     H185040   7.432   1.593   3.966
28266WAT     H285041   7.329   1.619   3.842
28267WAT      O85042   9.413   5.235   5.083
28267WAT     H185043   9.377   5.148   5.118
28267WAT     H285044   9.337   5.299   5.069
28268WAT      O85045   2.355   7.332   3.017
28268WAT     H185046   2.289   7.349   2.945
28268WAT     H285047   2.441   7.300   2.977
28269WAT      O85048   1.488   1.792   4.363
28269WAT     H185049   1.515   1.713   4.308
28269WAT     H285050   1.570   1.838   4.397
28270WAT      O85051   6.247   4.922   1.379
28270WAT     H185052   6.174   4.859   1.407
28270WAT     H285053   6.335   4.888   1.412
28271WAT      O85054   2.653   1.497   4.584
28271WAT     H185055   2.609   1.583   4.559
28271WAT     H285056   2.585   1.434   4.622
28272WAT      O85057   4.526   6.586   0.564
28272WAT     H185058   4.468   6.583   0.646
28272WAT     H285059   4.524   6.677   0.524
28273WAT      O85060   7.627   2.008   1.125
28273WAT     H185061   7.576   2.091   1.101
28273WAT     H285062   7.699   1.992   1.057
28274WAT      O85063   3.996   3.338   1.728
28274WAT     H185064   3.977   3.432   1.754
28274WAT     H285065   3.928   3.277   1.770
28275WAT      O85066   6.992   5.340   2.055
28275WAT     H185067   7.051   5.262   2.034
28275WAT     H285068   7.046   5.415   2.093
28276WAT      O85069   8.164   4.722   1.575
28276WAT     H185070   8.224   4.658   1.621
28276WAT     H285071   8.068   4.699   1.594
28277WAT      O85072   6.658   1.644   3.661
28277WAT     H185073   6.676   1.664   3.564
28277WAT     H285074   6.698   1.717   3.717
28278WAT      O85075   4.149   0.770   8.778
28278WAT     H185076   4.157   0.800   8.683
28278WAT     H285077   4.101   0.839   8.832
28279WAT      O85078   9.183   7.643   5.302
28279WAT     H185079   9.196   7.705   5.225
28279WAT     H285080   9.265   7.643   5.360
28280WAT      O85081   6.304   6.725   5.914
28280WAT     H185082   6.277   6.658   5.845
28280WAT     H285083   6.392   6.765   5.889
28281WAT      O85084   4.619   4.802   5.496
28281WAT     H185085   4.530   4.841   5.474
28281WAT     H285086   4.691   4.861   5.458
28282WAT      O85087   3.107   8.773   8.329
28282WAT     H185088   3.016   8.742   8.356
28282WAT     H285089   3.174   8.748   8.400
28283WAT      O85090   9.545   9.101   4.449
28283WAT     H185091   9.573   9.045   4.371
28283WAT     H285092   9.452   9.136   4.434
28284WAT      O85093   6.536   6.090   4.825
28284WAT     H185094   6.495   6.060   4.739
28284WAT     H285095   6.515   6.024   4.897
28285WAT      O85096   0.803   7.880   3.071
28285WAT     H185097   0.879   7.930   3.112
28285WAT     H285098   0.718   7.904   3.119
28286WAT      O85099   8.738   1.212   3.499
28286WAT     H185100   8.807   1.171   3.559
28286WAT     H285101   8.679   1.140   3.463
28287WAT      O85102   6.384   8.132   1.706
28287WAT     H185103   6.431   8.200   1.763
28287WAT     H285104   6.285   8.143   1.715
28288WAT      O85105   9.314   1.932   1.813
28288WAT     H185106   9.291   1.844   1.855
28288WAT     H285107   9.379   1.917   1.738
28289WAT      O85108   9.418   0.523   9.185
28289WAT     H185109   9.412   0.461   9.106
28289WAT     H285110   9.472   0.604   9.160
28290WAT      O85111   7.636   4.896   4.207
28290WAT     H185112   7.723   4.854   4.180
28290WAT     H285113   7.617   4.874   4.303
28291WAT      O85114   1.735   7.508   2.916
28291WAT     H185115   1.637   7.487   2.910
28291WAT     H285116   1.787   7.423   2.915
28292WAT      O85117   7.842   7.121   7.087
28292WAT     H185118   7.778   7.197   7.079
28292WAT     H285119   7.857   7.099   7.184
28293WAT      O85120   7.692   2.576   0.981
28293WAT     H185121   7.613   2.635   0.999
28293WAT     H285122   7.692   2.550   0.884
28294WAT      O85123   8.315   1.598   6.749
28294WAT     H185124   8.412   1.600   6.728
28294WAT     H285125   8.263   1.633   6.671
28295WAT      O85126   5.210   5.686   7.453
28295WAT     H185127   5.162   5.625   7.391
28295WAT     H285128   5.306   5.694   7.426
28296WAT      O85129   0.635   4.130   7.264
28296WAT     H185130   0.569   4.067   7.306
28296WAT     H285131   0.620   4.222   7.301
28297WAT      O85132   0.608   7.307   6.852
28297WAT     H185133   0.558   7.221   6.838
28297WAT     H285134   0.686   7.291   6.912
28298WAT      O85135   3.376   1.726   5.904
28298WAT     H185136   3.407   1.698   5.995
28298WAT     H285137   3.284   1.689   5.887
28299WAT      O85138   3.186   5.357   8.685
28299WAT     H185139   3.188   5.451   8.649
28299WAT     H285140   3.277   5.332   8.718
28300WAT      O85141   2.877   3.148   1.471
28300WAT     H185142   2.805   3.078   1.471
28300WAT     H285143   2.939   3.132   1.394
28301WAT      O85144   3.997   2.502   8.121
28301WAT     H185145   4.019   2.409   8.151
28301WAT     H285146   4.028   2.568   8.189
28302WAT      O85147   9.066   6.392   2.524
28302WAT     H185148   9.075   6.483   2.563
28302WAT     H285149   9.001   6.339   2.578
28303WAT      O85150   2.200   9.741   2.787
28303WAT     H185151   2.258   9.667   2.755
28303WAT     H285152   2.216   9.823   2.731
28304WAT      O85153   7.784   1.968   4.316
28304WAT     H185154   7.824   2.010   4.235
28304WAT     H285155   7.771   2.037   4.386
28305WAT      O85156   2.279   2.014   3.685
28305WAT     H185157   2.347   2.018   3.758
28305WAT     H285158   2.250   1.919   3.672
28306WAT      O85159   8.274   0.278   7.679
28306WAT     H185160   8.198   0.307   7.737
28306WAT     H285161   8.251   0.190   7.636
28307WAT      O85162   1.740   2.306   4.553
28307WAT     H185163   1.711   2.316   4.458
28307WAT     H285164   1.679   2.359   4.613
28308WAT      O85165   3.723   8.156   9.326
28308WAT     H185166   3.780   8.134   9.247
28308WAT     H285167   3.710   8.255   9.331
28309WAT      O85168   9.008   2.841   2.863
28309WAT     H185169   9.085   2.854   2.925
28309WAT     H285170   9.028   2.767   2.799
28310WAT      O85171   7.068   5.905   2.186
28310WAT     H185172   7.106   5.814   2.167
28310WAT     H285173   6.984   5.894   2.239
28311WAT      O85174   0.906   5.821   0.973
28311WAT     H185175   0.996   5.852   1.004
28311WAT     H285176   0.912   5.725   0.946
28312WAT      O85177   2.655   1.989   1.173
28312WAT     H185178   2.609   2.074   1.147
28312WAT     H285179   2.627   1.962   1.265
28313WAT      O85180   7.405   4.075   7.190
28313WAT     H185181   7.397   4.104   7.095
28313WAT     H285182   7.337   4.123   7.246
28314WAT      O85183   2.222   6.588   3.501
28314WAT     H185184   2.243   6.492   3.481
28314WAT     H285185   2.126   6.606   3.481
28315WAT      O85186   6.014   3.667   3.106
28315WAT     H185187   6.094   3.718   3.077
28315WAT     H285188   5.954   3.652   3.027
28316WAT      O85189   8.668   3.877   0.013
28316WAT     H185190   8.599   3.812   0.045
28316WAT     H285191   8.731   3.830  -0.049
28317WAT      O85192   9.182   7.485   1.418
28317WAT     H185193   9.246   7.558   1.441
28317WAT     H285194   9.092   7.506   1.457
28318WAT      O85195   9.501   9.587   3.486
28318WAT     H185196   9.448   9.628   3.560
28318WAT     H285197   9.583   9.544   3.523
28319WAT      O85198   5.756   6.246   3.407
28319WAT     H185199   5.746   6.209   3.314
28319WAT     H285200   5.698   6.327   3.417
28320WAT      O85201   8.567   0.734   0.282
28320WAT     H185202   8.662   0.706   0.266
28320WAT     H285203   8.529   0.681   0.357
28321WAT      O85204   7.118   5.395   4.877
28321WAT     H185205   7.213   5.371   4.896
28321WAT     H285206   7.079   5.440   4.958
28322WAT      O85207   7.523   7.984   1.305
28322WAT     H185208   7.447   8.038   1.340
28322WAT     H285209   7.562   8.029   1.224
28323WAT      O85210   5.176   8.892   3.818
28323WAT     H185211   5.167   8.973   3.761
28323WAT     H285212   5.089   8.872   3.862
28324WAT      O85213   6.640   2.198   5.946
28324WAT     H185214   6.716   2.134   5.959
28324WAT     H285215   6.647   2.272   6.013
28325WAT      O85216   8.496   3.209   1.385
28325WAT     H185217   8.571   3.207   1.452
28325WAT     H285218   8.534   3.213   1.293
28326WAT      O85219   0.669   9.195   0.784
28326WAT     H185220   0.624   9.258   0.848
28326WAT     H285221   0.749   9.154   0.828
28327WAT      O85222   3.397   4.712   6.101
28327WAT     H185223   3.426   4.647   6.031
28327WAT     H285224   3.477   4.748   6.149
28328WAT      O85225   3.939   2.270   7.970
28328WAT     H185226   3.875   2.339   8.004
28328WAT     H285227   4.028   2.283   8.015
28329WAT      O85228   7.764   6.488   3.412
28329WAT     H185229   7.725   6.404   3.374
28329WAT     H285230   7.835   6.524   3.351
28330WAT      O85231   3.387   7.992   1.598
28330WAT     H185232   3.305   7.999   1.541
28330WAT     H285233   3.360   7.995   1.695
28331WAT      O85234   9.846   1.880   1.226
28331WAT     H185235   9.793   1.954   1.186
28331WAT     H285236   9.879   1.819   1.153
28332WAT      O85237   0.966   6.777   1.456
28332WAT     H185238   0.996   6.773   1.361
28332WAT     H285239   0.927   6.867   1.474
28333WAT      O85240   4.882   8.754   6.719
28333WAT     H185241   4.942   8.833   6.715
28333WAT     H285242   4.934   8.674   6.749
28334WAT      O85243   4.642   2.417   9.586
28334WAT     H185244   4.567   2.460   9.535
28334WAT     H285245   4.605   2.356   9.655
28335WAT      O85246   8.377   0.687   0.768
28335WAT     H185247   8.431   0.613   0.729
28335WAT     H285248   8.282   0.679   0.738
28336WAT      O85249   4.977   7.565   9.853
28336WAT     H185250   5.012   7.517   9.934
28336WAT     H285251   4.927   7.646   9.882
28337WAT      O85252   7.023   9.793   5.214
28337WAT     H185253   7.105   9.747   5.248
28337WAT     H285254   6.951   9.789   5.284
28338WAT      O85255   6.867   1.518   1.796
28338WAT     H185256   6.859   1.604   1.745
28338WAT     H285257   6.939   1.526   1.865
28339WAT      O85258   3.612   2.813   5.991
28339WAT     H185259   3.543   2.804   6.062
28339WAT     H285260   3.606   2.734   5.929
28340WAT      O85261   4.733   9.426   4.185
28340WAT     H185262   4.701   9.521   4.177
28340WAT     H285263   4.802   9.421   4.258
28341WAT      O85264   4.364   1.002   1.713
28341WAT     H185265   4.422   1.079   1.741
28341WAT     H285266   4.418   0.918   1.713
28342WAT      O85267   8.364   4.598   2.242
28342WAT     H185268   8.348   4.505   2.276
28342WAT     H285269   8.333   4.605   2.148
28343WAT      O85270   5.941   9.593   2.957
28343WAT     H185271   5.980   9.646   3.032
28343WAT     H285272   5.844   9.578   2.974
28344WAT      O85273   1.808   5.846   5.583
28344WAT     H185274   1.778   5.763   5.535
28344WAT     H285275   1.765   5.926   5.541
28345WAT      O85276   7.322   7.113   6.358
28345WAT     H185277   7.234   7.120   6.406
28345WAT     H285278   7.391   7.167   6.407
28346WAT      O85279   1.388   2.966   5.742
28346WAT     H185280   1.475   2.935   5.781
28346WAT     H285281   1.336   3.017   5.811
28347WAT      O85282   1.658   1.526   5.998
28347WAT     H185283   1.647   1.543   6.096
28347WAT     H285284   1.570   1.536   5.953
28348WAT      O85285   5.361   8.123   7.731
28348WAT     H185286   5.413   8.043   7.699
28348WAT     H285287   5.371   8.198   7.666
28349WAT      O85288   2.051   5.549   5.197
28349WAT     H185289   2.064   5.646   5.174
28349WAT     H285290   2.138   5.501   5.193
28350WAT      O85291   3.816   2.914   5.142
28350WAT     H185292   3.732   2.962   5.120
28350WAT     H285293   3.894   2.964   5.105
28351WAT      O85294   6.040   9.105   8.597
28351WAT     H185295   6.107   9.095   8.670
28351WAT     H285296   5.951   9.128   8.637
28352WAT      O85297   0.115   5.594   4.420
28352WAT     H185298   0.180   5.628   4.488
28352WAT     H285299   0.161   5.529   4.359
28353WAT      O85300   6.979   4.073   3.735
28353WAT     H185301   7.074   4.050   3.717
28353WAT     H285302   6.954   4.156   3.683
28354WAT      O85303   1.329   2.191   3.024
28354WAT     H185304   1.244   2.241   3.008
28354WAT     H285305   1.325   2.103   2.975
28355WAT      O85306   1.163   6.607   0.986
28355WAT     H185307   1.193   6.634   0.894
28355WAT     H285308   1.064   6.620   0.993
28356WAT      O85309   0.671   8.671   5.162
28356WAT     H185310   0.604   8.745   5.155
28356WAT     H285311   0.667   8.613   5.081
28357WAT      O85312   0.927   8.896   6.046
28357WAT     H185313   0.947   8.807   6.004
28357WAT     H285314   0.852   8.886   6.110
28358WAT      O85315   3.388   4.087   9.531
28358WAT     H185316   3.454   4.153   9.566
28358WAT     H285317   3.430   4.032   9.459
28359WAT      O85318   6.832   5.953   9.214
28359WAT     H185319   6.899   5.934   9.142
28359WAT     H285320   6.878   5.962   9.302
28360WAT      O85321   4.552   7.466   5.224
28360WAT     H185322   4.524   7.540   5.162
28360WAT     H285323   4.636   7.425   5.190
28361WAT      O85324   6.522   6.881   5.103
28361WAT     H185325   6.439   6.901   5.156
28361WAT     H285326   6.520   6.786   5.073
28362WAT      O85327   5.213   8.630   3.883
28362WAT     H185328   5.207   8.730   3.881
28362WAT     H285329   5.304   8.601   3.856
28363WAT      O85330   2.715   2.137   4.202
28363WAT     H185331   2.747   2.178   4.116
28363WAT     H285332   2.616   2.121   4.196
28364WAT      O85333   0.181   7.865   6.942
28364WAT     H185334   0.228   7.781   6.915
28364WAT     H285335   0.084   7.858   6.917
28365WAT      O85336   7.905   9.438   6.232
28365WAT     H185337   7.999   9.466   6.214
28365WAT     H285338   7.900   9.339   6.239
28366WAT      O85339   9.651   5.197   2.740
28366WAT     H185340   9.630   5.268   2.807
28366WAT     H285341   9.568   5.144   2.722
28367WAT      O85342   5.265   7.299   6.143
28367WAT     H185343   5.202   7.367   6.104
28367WAT     H285344   5.357   7.314   6.107
28368WAT      O85345   2.202   5.174   4.084
28368WAT     H185346   2.124   5.207   4.137
28368WAT     H285347   2.261   5.250   4.060
28369WAT      O85348   7.022   0.068   0.534
28369WAT     H185349   7.115   0.051   0.567
28369WAT     H285350   7.025   0.123   0.450
28370WAT      O85351   9.064   3.333   0.332
28370WAT     H185352   9.115   3.405   0.284
28370WAT     H285353   9.013   3.278   0.265
28371WAT      O85354   0.540   4.183   6.214
28371WAT     H185355   0.606   4.200   6.288
28371WAT     H285356   0.447   4.194   6.249
28372WAT      O85357   1.206   6.799   9.111
28372WAT     H185358   1.173   6.705   9.112
28372WAT     H285359   1.215   6.830   9.016
28373WAT      O85360   2.908   9.299   9.249
28373WAT     H185361   2.970   9.376   9.238
28373WAT     H285362   2.819   9.321   9.209
28374WAT      O85363   4.655   1.590   0.568
28374WAT     H185364   4.672   1.642   0.484
28374WAT     H285365   4.599   1.645   0.630
28375WAT      O85366   0.063   9.563   6.478
28375WAT     H185367   0.105   9.511   6.552
28375WAT     H285368   0.122   9.640   6.454
28376WAT      O85369   8.494   4.542   0.201
28376WAT     H185370   8.396   4.533   0.183
28376WAT     H285371   8.545   4.524   0.117
28377WAT      O85372   5.781   9.574   7.393
28377WAT     H185373   5.877   9.602   7.388
28377WAT     H285374   5.777   9.476   7.412
28378WAT      O85375   9.449   0.829   9.436
28378WAT     H185376   9.399   0.891   9.376
28378WAT     H285377   9.416   0.735   9.423
28379WAT      O85378   5.862   0.267   9.159
28379WAT     H185379   5.857   0.257   9.259
28379WAT     H285380   5.853   0.177   9.116
28380WAT      O85381   4.717   0.955   1.462
28380WAT     H185382   4.640   0.895   1.439
28380WAT     H285383   4.751   0.931   1.553
28381WAT      O85384   5.611   8.565   3.413
28381WAT     H185385   5.581   8.634   3.478
28381WAT     H285386   5.555   8.483   3.424
28382WAT      O85387   9.745   7.417   8.535
28382WAT     H185388   9.650   7.440   8.556
28382WAT     H285389   9.805   7.457   8.604
28383WAT      O85390   3.210   3.460   5.799
28383WAT     H185391   3.139   3.435   5.865
28383WAT     H285392   3.201   3.557   5.776
28384WAT      O85393   5.922   9.095   1.061
28384WAT     H185394   5.877   9.143   0.986
28384WAT     H285395   5.877   9.007   1.076
28385WAT      O85396   5.884   4.046   4.011
28385WAT     H185397   5.868   4.136   3.972
28385WAT     H285398   5.856   4.045   4.106
28386WAT      O85399   1.762   6.421   8.055
28386WAT     H185400   1.684   6.420   8.118
28386WAT     H285401   1.842   6.380   8.100
28387WAT      O85402   5.975   8.995   9.430
28387WAT     H185403   5.989   9.081   9.478
28387WAT     H285404   5.884   8.958   9.451
28388WAT      O85405   8.059   6.885   4.938
28388WAT     H185406   8.057   6.848   5.031
28388WAT     H285407   8.092   6.815   4.875
28389WAT      O85408   8.637   3.215   5.905
28389WAT     H185409   8.692   3.158   5.844
28389WAT     H285410   8.697   3.273   5.960
28390WAT      O85411   2.370   3.677   2.217
28390WAT     H185412   2.444   3.724   2.265
28390WAT     H285413   2.284   3.693   2.264
28391WAT      O85414   6.918   6.685   3.082
28391WAT     H185415   6.920   6.741   3.000
28391WAT     H285416   6.869   6.600   3.063
28392WAT      O85417   5.911   0.262   3.372
28392WAT     H185418   5.981   0.258   3.443
28392WAT     H285419   5.837   0.198   3.394
28393WAT      O85420   1.293   4.911   5.174
28393WAT     H185421   1.204   4.867   5.168
28393WAT     H285422   1.366   4.842   5.171
28394WAT      O85423   5.305   2.248   8.850
28394WAT     H185424   5.377   2.285   8.909
28394WAT     H285425   5.246   2.188   8.904
28395WAT      O85426   0.132   6.597   1.510
28395WAT     H185427   0.037   6.570   1.493
28395WAT     H285428   0.140   6.630   1.605
28396WAT      O85429   1.424   7.991   3.358
28396WAT     H185430   1.409   7.915   3.296
28396WAT     H285431   1.337   8.036   3.377
28397WAT      O85432   5.493   3.183   7.568
28397WAT     H185433   5.488   3.247   7.644
28397WAT     H285434   5.561   3.112   7.588
28398WAT      O85435   4.537   2.183   0.342
28398WAT     H185436   4.514   2.092   0.376
28398WAT     H285437   4.604   2.226   0.403
28399WAT      O85438   1.046   2.921   5.227
28399WAT     H185439   1.055   2.937   5.128
28399WAT     H285440   1.127   2.957   5.274
28400WAT      O85441   4.535   5.947   7.461
28400WAT     H185442   4.608   6.012   7.483
28400WAT     H285443   4.576   5.856   7.447
28401WAT      O85444   6.988   9.619   6.006
28401WAT     H185445   6.896   9.590   5.982
28401WAT     H285446   6.987   9.659   6.098
28402WAT      O85447   8.006   4.279   0.687
28402WAT     H185448   8.102   4.297   0.709
28402WAT     H285449   7.949   4.350   0.729
28403WAT      O85450   9.478   3.919   1.106
28403WAT     H185451   9.433   3.928   1.017
28403WAT     H285452   9.535   3.837   1.106
28404WAT      O85453   9.682   3.575   6.161
28404WAT     H185454   9.759   3.607   6.106
28404WAT     H285455   9.598   3.616   6.127
28405WAT      O85456   3.335   8.178   3.463
28405WAT     H185457   3.390   8.095   3.457
28405WAT     H285458   3.300   8.188   3.556
28406WAT      O85459   4.889   9.770   1.131
28406WAT     H185460   4.955   9.700   1.158
28406WAT     H285461   4.938   9.849   1.095
28407WAT      O85462   8.847   3.587   7.850
28407WAT     H185463   8.817   3.619   7.940
28407WAT     H285464   8.947   3.583   7.847
28408WAT      O85465   0.105   3.453   8.244
28408WAT     H185466   0.132   3.497   8.330
28408WAT     H285467   0.005   3.445   8.242
28409WAT      O85468   6.529   5.055   5.174
28409WAT     H185469   6.601   5.030   5.239
28409WAT     H285470   6.453   4.991   5.182
28410WAT      O85471   6.108   0.852   9.458
28410WAT     H185472   6.022   0.819   9.498
28410WAT     H285473   6.090   0.889   9.366
28411WAT      O85474   9.339   5.708   7.443
28411WAT     H185475   9.281   5.657   7.379
28411WAT     H285476   9.406   5.646   7.483
28412WAT      O85477   9.428   5.120   4.643
28412WAT     H185478   9.396   5.215   4.645
28412WAT     H285479   9.487   5.106   4.563
28413WAT      O85480   4.471   6.004   3.678
28413WAT     H185481   4.515   5.919   3.651
28413WAT     H285482   4.525   6.082   3.646
28414WAT      O85483   9.733   1.298   2.727
28414WAT     H185484   9.776   1.218   2.770
28414WAT     H285485   9.699   1.273   2.637
28415WAT      O85486   8.103   2.153   0.692
28415WAT     H185487   8.057   2.092   0.628
28415WAT     H285488   8.202   2.136   0.688
28416WAT      O85489   8.539   4.527   9.791
28416WAT     H185490   8.456   4.582   9.796
28416WAT     H285491   8.521   4.443   9.741
28417WAT      O85492   5.769   4.357   1.436
28417WAT     H185493   5.738   4.335   1.344
28417WAT     H285494   5.860   4.319   1.451
28418WAT      O85495   4.002   8.275   5.023
28418WAT     H185496   3.926   8.335   4.999
28418WAT     H285497   3.967   8.182   5.036
28419WAT      O85498   5.643   4.312   7.928
28419WAT     H185499   5.614   4.261   8.010
28419WAT     H285500   5.591   4.279   7.849
28420WAT      O85501   9.110   2.495   6.485
28420WAT     H185502   9.190   2.530   6.533
28420WAT     H285503   9.039   2.472   6.551
28421WAT      O85504   9.404   2.803   4.764
28421WAT     H185505   9.318   2.832   4.807
28421WAT     H285506   9.387   2.721   4.710
28422WAT      O85507   0.104   7.889   0.168
28422WAT     H185508   0.093   7.796   0.135
28422WAT     H285509   0.108   7.952   0.090
28423WAT      O85510   8.910   4.526   7.073
28423WAT     H185511   8.828   4.527   7.130
28423WAT     H285512   8.979   4.587   7.113
28424WAT      O85513   4.720   3.025   6.524
28424WAT     H185514   4.683   2.977   6.445
28424WAT     H285515   4.813   3.055   6.505
28425WAT      O85516   3.416   4.140   8.110
28425WAT     H185517   3.375   4.120   8.021
28425WAT     H285518   3.500   4.088   8.121
28426WAT      O85519   0.209   4.070   0.915
28426WAT     H185520   0.149   4.148   0.899
28426WAT     H285521   0.251   4.077   1.006
28427WAT      O85522   7.533   7.388   7.952
28427WAT     H185523   7.599   7.404   7.879
28427WAT     H285524   7.458   7.331   7.918
28428WAT      O85525   8.766   1.590   1.188
28428WAT     H185526   8.782   1.602   1.286
28428WAT     H285527   8.679   1.633   1.163
28429WAT      O85528   0.955   6.933   4.895
28429WAT     H185529   0.888   6.860   4.907
28429WAT     H285530   1.031   6.919   4.958
28430WAT      O85531   6.876   7.798   4.538
28430WAT     H185532   6.801   7.819   4.600
28430WAT     H285533   6.959   7.778   4.590
28431WAT      O85534   4.424   7.089   7.525
28431WAT     H185535   4.359   7.037   7.580
28431WAT     H285536   4.428   7.052   7.432
28432WAT      O85537   6.245   8.208   2.809
28432WAT     H185538   6.224   8.122   2.856
28432WAT     H285539   6.191   8.282   2.848
28433WAT      O85540   1.554   6.140   4.180
28433WAT     H185541   1.473   6.132   4.121
28433WAT     H285542   1.628   6.183   4.129
28434WAT      O85543   2.910   5.081   2.686
28434WAT     H185544   2.881   5.100   2.592
28434WAT     H285545   2.956   4.993   2.690
28435WAT      O85546   5.702   9.768   5.743
28435WAT     H185547   5.668   9.862   5.733
28435WAT     H285548   5.802   9.768   5.738
28436WAT      O85549   2.985   8.639   9.627
28436WAT     H185550   3.060   8.575   9.608
28436WAT     H285551   3.023   8.727   9.656
28437WAT      O85552   7.277   2.079   8.069
28437WAT     H185553   7.309   1.998   8.119
28437WAT     H285554   7.337   2.156   8.088
28438WAT      O85555   5.853   2.383   9.079
28438WAT     H185556   5.778   2.328   9.044
28438WAT     H285557   5.918   2.323   9.127
28439WAT      O85558   9.498   3.934   3.745
28439WAT     H185559   9.527   3.956   3.652
28439WAT     H285560   9.398   3.939   3.750
28440WAT      O85561   8.847   8.374   5.245
28440WAT     H185562   8.832   8.377   5.146
28440WAT     H285563   8.944   8.364   5.263
28441WAT      O85564   8.230   2.158   2.799
28441WAT     H185565   8.138   2.149   2.762
28441WAT     H285566   8.226   2.169   2.898
28442WAT      O85567   0.026   5.610   5.111
28442WAT     H185568  -0.054   5.668   5.098
28442WAT     H285569   0.081   5.610   5.028
28443WAT      O85570   5.309   7.644   1.535
28443WAT     H185571   5.365   7.686   1.606
28443WAT     H285572   5.216   7.631   1.569
28444WAT      O85573   6.191   8.508   9.233
28444WAT     H185574   6.162   8.585   9.290
28444WAT     H285575   6.264   8.538   9.172
28445WAT      O85576   1.790   3.138   8.285
28445WAT     H185577   1.852   3.171   8.356
28445WAT     H285578   1.749   3.052   8.315
28446WAT      O85579   3.636   0.128   9.298
28446WAT     H185580   3.560   0.085   9.346
28446WAT     H285581   3.705   0.157   9.364
28447WAT      O85582   4.742   3.190   3.233
28447WAT     H185583   4.643   3.204   3.233
28447WAT     H285584   4.789   3.278   3.242
28448WAT      O85585   3.507   5.412   8.479
28448WAT     H185586   3.474   5.505   8.462
28448WAT     H285587   3.601   5.404   8.445
28449WAT      O85588   7.646   3.938   8.491
28449WAT     H185589   7.689   4.011   8.439
28449WAT     H285590   7.679   3.849   8.458
28450WAT      O85591   8.968   3.406   2.253
28450WAT     H185592   8.999   3.389   2.347
28450WAT     H285593   8.886   3.352   2.235
28451WAT      O85594   5.879   8.195   6.936
28451WAT     H185595   5.916   8.145   7.014
28451WAT     H285596   5.817   8.266   6.969
28452WAT      O85597   9.331   8.217   9.637
28452WAT     H185598   9.329   8.303   9.586
28452WAT     H285599   9.424   8.180   9.636
28453WAT      O85600   2.143   7.893   4.777
28453WAT     H185601   2.164   7.848   4.863
28453WAT     H285602   2.057   7.857   4.740
28454WAT      O85603   1.832   4.859   5.828
28454WAT     H185604   1.860   4.764   5.839
28454WAT     H285605   1.732   4.864   5.824
28455WAT      O85606   6.892   5.410   3.139
28455WAT     H185607   6.835   5.387   3.061
28455WAT     H285608   6.838   5.461   3.207
28456WAT      O85609   5.166   3.894   3.010
28456WAT     H185610   5.204   3.862   2.924
28456WAT     H285611   5.213   3.978   3.039
28457WAT      O85612   1.580   7.024   3.822
28457WAT     H185613   1.510   7.036   3.752
28457WAT     H285614   1.619   6.933   3.815
28458WAT      O85615   5.155   7.878   7.090
28458WAT     H185616   5.151   7.907   7.186
28458WAT     H285617   5.064   7.881   7.050
28459WAT      O85618   8.376   4.062   0.914
28459WAT     H185619   8.330   4.039   0.828
28459WAT     H285620   8.310   4.099   0.979
28460WAT      O85621   0.399   8.065   2.381
28460WAT     H185622   0.429   8.147   2.333
28460WAT     H285623   0.306   8.077   2.416
28461WAT      O85624   9.509   3.608   0.133
28461WAT     H185625   9.472   3.692   0.174
28461WAT     H285626   9.458   3.587   0.050
28462WAT      O85627   3.875   1.227   3.184
28462WAT     H185628   3.830   1.311   3.213
28462WAT     H285629   3.967   1.222   3.223
28463WAT      O85630   2.204   8.694   0.246
28463WAT     H185631   2.145   8.619   0.218
28463WAT     H285632   2.228   8.749   0.167
28464WAT      O85633   5.594   3.828   9.033
28464WAT     H185634   5.555   3.875   9.113
28464WAT     H285635   5.686   3.794   9.056
28465WAT      O85636   2.207   2.056   6.771
28465WAT     H185637   2.139   2.021   6.835
28465WAT     H285638   2.182   2.030   6.678
28466WAT      O85639   8.701   1.569   5.979
28466WAT     H185640   8.690   1.636   5.906
28466WAT     H285641   8.673   1.478   5.946
28467WAT      O85642   7.646   4.085   7.932
28467WAT     H185643   7.567   4.092   7.872
28467WAT     H285644   7.730   4.088   7.878
28468WAT      O85645   8.663   3.898   6.151
28468WAT     H185646   8.733   3.891   6.080
28468WAT     H285647   8.659   3.992   6.186
28469WAT      O85648   5.645   3.744   0.407
28469WAT     H185649   5.735   3.713   0.437
28469WAT     H285650   5.596   3.782   0.485
28470WAT      O85651   5.755   8.973   9.618
28470WAT     H185652   5.741   9.027   9.701
28470WAT     H285653   5.799   8.887   9.642
28471WAT      O85654   6.944   1.295   2.774
28471WAT     H185655   6.850   1.283   2.807
28471WAT     H285656   6.981   1.380   2.810
28472WAT      O85657   8.475   0.018   7.982
28472WAT     H185658   8.492   0.026   7.884
28472WAT     H285659   8.485   0.108   8.025
28473WAT      O85660   0.074   9.124   4.611
28473WAT     H185661   0.113   9.206   4.653
28473WAT     H285662  -0.022   9.114   4.639
28474WAT      O85663   4.943   8.779   5.267
28474WAT     H185664   4.974   8.777   5.362
28474WAT     H285665   4.857   8.831   5.262
28475WAT      O85666   8.169   7.254   7.140
28475WAT     H185667   8.237   7.322   7.165
28475WAT     H285668   8.121   7.223   7.222
28476WAT      O85669   2.176   7.914   3.492
28476WAT     H185670   2.267   7.927   3.532
28476WAT     H285671   2.119   7.993   3.514
28477WAT      O85672   8.903   1.966   2.348
28477WAT     H185673   8.805   1.982   2.336
28477WAT     H285674   8.928   1.880   2.303
28478WAT      O85675   9.469   2.626   7.880
28478WAT     H185676   9.521   2.645   7.797
28478WAT     H285677   9.405   2.701   7.897
28479WAT      O85678   9.375   4.187   3.523
28479WAT     H185679   9.341   4.228   3.439
28479WAT     H285680   9.438   4.113   3.501
28480WAT      O85681   3.317   0.763   2.535
28480WAT     H185682   3.238   0.702   2.538
28480WAT     H285683   3.326   0.801   2.443
28481WAT      O85684   0.424   5.722   9.765
28481WAT     H185685   0.336   5.675   9.763
28481WAT     H285686   0.495   5.659   9.795
28482WAT      O85687   8.592   1.974   8.316
28482WAT     H185688   8.669   1.945   8.374
28482WAT     H285689   8.614   1.955   8.220
28483WAT      O85690   7.027   5.876   3.620
28483WAT     H185691   7.043   5.794   3.566
28483WAT     H285692   7.108   5.936   3.615
28484WAT      O85693   0.634   9.243   8.710
28484WAT     H185694   0.728   9.262   8.684
28484WAT     H285695   0.600   9.165   8.657
28485WAT      O85696   5.279   6.460   9.540
28485WAT     H185697   5.216   6.468   9.463
28485WAT     H285698   5.345   6.386   9.522
28486WAT      O85699   1.829   8.744   7.309
28486WAT     H185700   1.846   8.808   7.234
28486WAT     H285701   1.736   8.708   7.302
28487WAT      O85702   2.038   2.963   1.392
28487WAT     H185703   2.101   2.941   1.467
28487WAT     H285704   1.950   2.920   1.409
28488WAT      O85705   0.744   1.140   6.704
28488WAT     H185706   0.662   1.084   6.693
28488WAT     H285707   0.809   1.119   6.630
28489WAT      O85708   6.625   0.565   6.185
28489WAT     H185709   6.667   0.654   6.201
28489WAT     H285710   6.685   0.493   6.221
28490WAT      O85711   6.947   0.224   6.969
28490WAT     H185712   6.863   0.271   6.943
28490WAT     H285713   7.001   0.204   6.887
28491WAT      O85714   2.151   3.307   5.478
28491WAT     H185715   2.181   3.273   5.389
28491WAT     H285716   2.138   3.231   5.541
28492WAT      O85717   5.385   7.094   4.681
28492WAT     H185718   5.373   7.009   4.732
28492WAT     H285719   5.310   7.104   4.615
28493WAT      O85720   8.359   7.783   3.072
28493WAT     H185721   8.265   7.808   3.051
28493WAT     H285722   8.377   7.797   3.169
28494WAT      O85723   9.575   2.258   4.617
28494WAT     H185724   9.670   2.227   4.627
28494WAT     H285725   9.513   2.184   4.641
28495WAT      O85726   5.171   9.058   6.892
28495WAT     H185727   5.228   9.134   6.860
28495WAT     H285728   5.198   8.974   6.845
28496WAT      O85729   4.224   9.437   5.010
28496WAT     H185730   4.192   9.467   4.921
28496WAT     H285731   4.209   9.509   5.078
28497WAT      O85732   1.867   9.077   2.057
28497WAT     H185733   1.864   9.157   2.116
28497WAT     H285734   1.859   8.994   2.111
28498WAT      O85735   1.842   7.946   8.984
28498WAT     H185736   1.809   7.917   8.894
28498WAT     H285737   1.768   7.939   9.050
28499WAT      O85738   6.728   6.979   9.879
28499WAT     H185739   6.823   6.963   9.852
28499WAT     H285740   6.683   7.033   9.808
28500WAT      O85741   0.747   5.233   2.508
28500WAT     H185742   0.841   5.201   2.504
28500WAT     H285743   0.745   5.324   2.550
28501WAT      O85744   8.697   4.676   0.361
28501WAT     H185745   8.646   4.645   0.280
28501WAT     H285746   8.773   4.614   0.378
28502WAT      O85747   8.297   1.163   0.824
28502WAT     H185748   8.356   1.101   0.773
28502WAT     H285749   8.324   1.164   0.921
28503WAT      O85750   2.368   1.177   4.203
28503WAT     H185751   2.419   1.242   4.147
28503WAT     H285752   2.355   1.214   4.294
28504WAT      O85753   9.872   7.039   5.299
28504WAT     H185754   9.822   7.035   5.385
28504WAT     H285755   9.814   7.005   5.225
28505WAT      O85756   2.245   6.136   7.174
28505WAT     H185757   2.202   6.098   7.092
28505WAT     H285758   2.338   6.100   7.183
28506WAT      O85759   6.270   7.782   2.711
28506WAT     H185760   6.328   7.859   2.685
28506WAT     H285761   6.198   7.770   2.643
28507WAT      O85762   3.022   6.312   6.013
28507WAT     H185763   2.924   6.332   6.018
28507WAT     H285764   3.050   6.264   6.096
28508WAT      O85765   5.316   8.074   6.973
28508WAT     H185766   5.247   8.007   6.999
28508WAT     H285767   5.394   8.027   6.931
28509WAT      O85768   6.907   3.399   9.693
28509WAT     H185769   6.977   3.350   9.745
28509WAT     H285770   6.898   3.358   9.602
28510WAT      O85771   4.903   1.236   1.208
28510WAT     H185772   4.983   1.296   1.200
28510WAT     H285773   4.873   1.233   1.303
28511WAT      O85774   9.469   3.671   8.263
28511WAT     H185775   9.399   3.672   8.335
28511WAT     H285776   9.455   3.749   8.202
28512WAT      O85777   1.013   3.766   2.047
28512WAT     H185778   0.989   3.789   1.953
28512WAT     H285779   1.073   3.686   2.048
28513WAT      O85780   1.273   8.092   6.955
28513WAT     H185781   1.315   8.083   7.045
28513WAT     H285782   1.345   8.110   6.887
28514WAT      O85783   2.014   0.792   9.272
28514WAT     H185784   1.934   0.749   9.315
28514WAT     H285785   2.008   0.891   9.283
28515WAT      O85786   4.138   7.180   0.415
28515WAT     H185787   4.114   7.218   0.505
28515WAT     H285788   4.220   7.226   0.381
28516WAT      O85789   9.523   8.326   4.850
28516WAT     H185790   9.470   8.411   4.860
28516WAT     H285791   9.620   8.345   4.864
28517WAT      O85792   7.029   0.786   5.961
28517WAT     H185793   6.984   0.859   6.012
28517WAT     H285794   7.124   0.812   5.942
28518WAT      O85795   8.575   8.319   6.021
28518WAT     H185796   8.641   8.376   5.971
28518WAT     H285797   8.624   8.262   6.086
28519WAT      O85798   9.138   0.431   0.493
28519WAT     H185799   9.207   0.404   0.426
28519WAT     H285800   9.088   0.351   0.524
28520WAT      O85801   1.355   3.852   6.124
28520WAT     H185802   1.366   3.789   6.048
28520WAT     H285803   1.444   3.870   6.166
28521WAT      O85804   5.020   1.681   3.766
28521WAT     H185805   4.921   1.676   3.775
28521WAT     H285806   5.054   1.597   3.723
28522WAT      O85807   1.275   6.400   1.117
28522WAT     H185808   1.237   6.482   1.073
28522WAT     H285809   1.367   6.420   1.150
28523WAT      O85810   4.582   5.758   0.438
28523WAT     H185811   4.645   5.756   0.516
28523WAT     H285812   4.523   5.678   0.441
28524WAT      O85813   4.479   6.150   1.742
28524WAT     H185814   4.541   6.088   1.694
28524WAT     H285815   4.473   6.122   1.838
28525WAT      O85816   4.170   7.800   2.522
28525WAT     H185817   4.186   7.750   2.607
28525WAT     H285818   4.179   7.898   2.539
28526WAT      O85819   3.857   9.563   3.558
28526WAT     H185820   3.954   9.540   3.547
28526WAT     H285821   3.848   9.662   3.570
28527WAT      O85822   3.317   8.266   0.881
28527WAT     H185823   3.300   8.272   0.782
28527WAT     H285824   3.230   8.256   0.929
28528WAT      O85825   5.555   2.552   7.161
28528WAT     H185826   5.475   2.598   7.121
28528WAT     H285827   5.568   2.583   7.255
28529WAT      O85828   2.467   4.421   7.695
28529WAT     H185829   2.469   4.458   7.788
28529WAT     H285830   2.372   4.407   7.667
28530WAT      O85831   0.220   1.643   5.922
28530WAT     H185832   0.155   1.717   5.937
28530WAT     H285833   0.290   1.646   5.993
28531WAT      O85834   9.371   7.915   9.809
28531WAT     H185835   9.405   7.950   9.722
28531WAT     H285836   9.281   7.874   9.796
28532WAT      O85837   8.211   7.843   2.781
28532WAT     H185838   8.170   7.865   2.870
28532WAT     H285839   8.144   7.857   2.709
28533WAT      O85840   0.887   1.097   3.220
28533WAT     H185841   0.881   1.082   3.319
28533WAT     H285842   0.802   1.139   3.188
28534WAT      O85843   2.646   0.573   7.444
28534WAT     H185844   2.705   0.649   7.418
28534WAT     H285845   2.557   0.609   7.473
28535WAT      O85846   5.146   2.118   2.923
28535WAT     H185847   5.168   2.128   3.020
28535WAT     H285848   5.229   2.131   2.868
28536WAT      O85849   8.797   8.008   0.772
28536WAT     H185850   8.788   7.915   0.736
28536WAT     H285851   8.860   8.060   0.714
28537WAT      O85852   7.903   3.198   7.083
28537WAT     H185853   7.851   3.250   7.151
28537WAT     H285854   7.925   3.108   7.120
28538WAT      O85855   7.028   2.529   2.136
28538WAT     H185856   6.987   2.518   2.046
28538WAT     H285857   7.106   2.591   2.130
28539WAT      O85858   6.807   4.346   5.715
28539WAT     H185859   6.760   4.393   5.640
28539WAT     H285860   6.744   4.335   5.792
28540WAT      O85861   8.955   0.144   3.228
28540WAT     H185862   8.997   0.079   3.292
28540WAT     H285863   8.869   0.105   3.194
28541WAT      O85864   6.123   0.469   5.062
28541WAT     H185865   6.146   0.423   5.148
28541WAT     H285866   6.153   0.565   5.067
28542WAT      O85867   1.418   3.566   2.465
28542WAT     H185868   1.468   3.488   2.505
28542WAT     H285869   1.431   3.566   2.366
28543WAT      O85870   7.059   8.450   9.237
28543WAT     H185871   7.039   8.547   9.254
28543WAT     H285872   6.986   8.393   9.274
28544WAT      O85873   2.636   2.044   0.486
28544WAT     H185874   2.585   1.959   0.502
28544WAT     H285875   2.698   2.033   0.409
28545WAT      O85876   6.931   0.299   9.558
28545WAT     H185877   6.854   0.350   9.597
28545WAT     H285878   6.896   0.221   9.507
28546WAT      O85879   6.461   3.463   4.859
28546WAT     H185880   6.543   3.454   4.916
28546WAT     H285881   6.487   3.491   4.767
28547WAT      O85882   5.796   6.734   4.787
28547WAT     H185883   5.759   6.823   4.814
28547WAT     H285884   5.723   6.666   4.790
28548WAT      O85885   6.133   5.404   7.492
28548WAT     H185886   6.106   5.437   7.582
28548WAT     H285887   6.059   5.419   7.427
28549WAT      O85888   4.443   7.973   1.353
28549WAT     H185889   4.526   7.998   1.404
28549WAT     H285890   4.443   7.874   1.338
28550WAT      O85891   0.305   7.879   7.514
28550WAT     H185892   0.328   7.945   7.585
28550WAT     H285893   0.230   7.915   7.457
28551WAT      O85894   3.427   6.199   4.479
28551WAT     H185895   3.442   6.214   4.576
28551WAT     H285896   3.496   6.249   4.426
28552WAT      O85897   5.832   5.479   1.547
28552WAT     H185898   5.781   5.562   1.526
28552WAT     H285899   5.858   5.433   1.461
28553WAT      O85900   9.359   1.927   4.363
28553WAT     H185901   9.275   1.969   4.329
28553WAT     H285902   9.360   1.830   4.341
28554WAT      O85903   1.040   9.279   6.885
28554WAT     H185904   1.074   9.261   6.792
28554WAT     H285905   1.118   9.280   6.948
28555WAT      O85906   5.315   3.096   0.601
28555WAT     H185907   5.327   3.172   0.538
28555WAT     H285908   5.329   3.128   0.695
28556WAT      O85909   4.525   6.799   1.310
28556WAT     H185910   4.542   6.723   1.372
28556WAT     H285911   4.606   6.813   1.252
28557WAT      O85912   6.155   8.777   5.128
28557WAT     H185913   6.118   8.842   5.195
28557WAT     H285914   6.114   8.795   5.039
28558WAT      O85915   0.048   4.234   5.534
28558WAT     H185916   0.130   4.262   5.483
28558WAT     H285917   0.057   4.264   5.629
28559WAT      O85918   5.254   2.815   0.189
28559WAT     H185919   5.185   2.756   0.147
28559WAT     H285920   5.231   2.830   0.285
28560WAT      O85921   0.496   3.122   8.979
28560WAT     H185922   0.512   3.220   8.969
28560WAT     H285923   0.499   3.079   8.888
28561WAT      O85924   4.521   3.284   6.496
28561WAT     H185925   4.493   3.375   6.468
28561WAT     H285926   4.620   3.276   6.487
28562WAT      O85927   7.168   2.081   4.399
28562WAT     H185928   7.252   2.029   4.413
28562WAT     H285929   7.190   2.178   4.394
28563WAT      O85930   6.983   3.777   5.299
28563WAT     H185931   6.922   3.779   5.378
28563WAT     H285932   6.962   3.853   5.238
28564WAT      O85933   8.365   0.927   7.761
28564WAT     H185934   8.383   0.961   7.669
28564WAT     H285935   8.292   0.981   7.803
28565WAT      O85936   6.539   7.307   8.755
28565WAT     H185937   6.515   7.267   8.844
28565WAT     H285938   6.541   7.234   8.686
28566WAT      O85939   9.242   6.718   2.339
28566WAT     H185940   9.294   6.663   2.273
28566WAT     H285941   9.206   6.799   2.293
28567WAT      O85942   8.040   6.517   4.139
28567WAT     H185943   8.099   6.468   4.202
28567WAT     H285944   8.020   6.608   4.175
28568WAT      O85945   9.161   8.946   7.075
28568WAT     H185946   9.206   9.034   7.089
28568WAT     H285947   9.198   8.879   7.139
28569WAT      O85948   6.100   9.259   4.940
28569WAT     H185949   6.023   9.197   4.946
28569WAT     H285950   6.077   9.345   4.986
28570WAT      O85951   6.075   2.854   4.797
28570WAT     H185952   6.160   2.906   4.788
28570WAT     H285953   5.998   2.916   4.803
28571WAT      O85954   0.664   5.242   7.274
28571WAT     H185955   0.629   5.260   7.366
28571WAT     H285956   0.650   5.146   7.252
28572WAT      O85957   7.854   8.091   6.491
28572WAT     H185958   7.861   8.001   6.534
28572WAT     H285959   7.763   8.128   6.506
28573WAT      O85960   2.350   2.697   3.346
28573WAT     H185961   2.372   2.610   3.390
28573WAT     H285962   2.306   2.757   3.413
28574WAT      O85963   5.588   6.170   2.099
28574WAT     H185964   5.530   6.195   2.021
28574WAT     H285965   5.612   6.074   2.093
28575WAT      O85966   9.106   0.051   1.780
28575WAT     H185967   9.088  -0.037   1.825
28575WAT     H285968   9.204   0.072   1.787
28576WAT      O85969   1.593   8.774   0.585
28576WAT     H185970   1.572   8.798   0.679
28576WAT     H285971   1.534   8.698   0.556
28577WAT      O85972   9.507   7.459   9.847
28577WAT     H185973   9.577   7.424   9.910
28577WAT     H285974   9.541   7.455   9.753
28578WAT      O85975   2.416   0.434   4.643
28578WAT     H185976   2.332   0.388   4.671
28578WAT     H285977   2.414   0.529   4.674
28579WAT      O85978   9.015   2.703   7.949
28579WAT     H185979   9.065   2.617   7.957
28579WAT     H285980   9.071   2.778   7.986
28580WAT      O85981   6.550   3.970   7.957
28580WAT     H185982   6.557   3.928   8.047
28580WAT     H285983   6.479   4.041   7.959
28581WAT      O85984   6.970   4.174   5.594
28581WAT     H185985   6.909   4.238   5.641
28581WAT     H285986   6.929   4.147   5.507
28582WAT      O85987   8.474   7.578   1.048
28582WAT     H185988   8.410   7.655   1.054
28582WAT     H285989   8.521   7.567   1.136
28583WAT      O85990   1.786   6.290   1.245
28583WAT     H185991   1.824   6.247   1.327
28583WAT     H285992   1.854   6.286   1.172
28584WAT      O85993   0.841   4.815   6.981
28584WAT     H185994   0.797   4.727   6.997
28584WAT     H285995   0.815   4.849   6.890
28585WAT      O85996   8.616   4.495   4.829
28585WAT     H185997   8.575   4.572   4.780
28585WAT     H285998   8.558   4.414   4.820
28586WAT      O85999   6.851   1.110   4.666
28586WAT     H186000   6.934   1.056   4.676
28586WAT     H286001   6.839   1.136   4.570
28587WAT      O86002   4.813   6.416   6.828
28587WAT     H186003   4.761   6.466   6.759
28587WAT     H286004   4.763   6.418   6.915
28588WAT      O86005   6.007   5.668   3.754
28588WAT     H186006   6.106   5.678   3.741
28588WAT     H286007   5.979   5.715   3.838
28589WAT      O86008   5.237   5.348   0.953
28589WAT     H186009   5.197   5.342   1.045
28589WAT     H286010   5.319   5.291   0.949
28590WAT      O86011   1.918   4.713   5.364
28590WAT     H186012   1.932   4.652   5.442
28590WAT     H286013   1.990   4.782   5.362
28591WAT      O86014   4.625   6.628   6.116
28591WAT     H186015   4.721   6.637   6.140
28591WAT     H286016   4.568   6.652   6.195
28592WAT      O86017   5.281   8.631   0.910
28592WAT     H186018   5.185   8.611   0.889
28592WAT     H286019   5.287   8.669   1.003
28593WAT      O86020   6.427   8.328   1.420
28593WAT     H186021   6.377   8.410   1.392
28593WAT     H286022   6.374   8.247   1.396
28594WAT      O86023   1.601   5.836   1.053
28594WAT     H186024   1.546   5.913   1.022
28594WAT     H286025   1.683   5.828   0.996
28595WAT      O86026   5.025   2.487   9.237
28595WAT     H186027   4.936   2.465   9.278
28595WAT     H286028   5.072   2.402   9.214
28596WAT      O86029   9.079   6.520   9.114
28596WAT     H186030   9.128   6.446   9.160
28596WAT     H286031   8.993   6.538   9.163
28597WAT      O86032   0.129   5.219   6.132
28597WAT     H186033   0.100   5.206   6.227
28597WAT     H286034   0.063   5.277   6.084
28598WAT      O86035   6.528   0.109   3.446
28598WAT     H186036   6.523   0.159   3.533
28598WAT     H286037   6.450   0.135   3.389
28599WAT      O86038   5.997   8.048   7.978
28599WAT     H186039   5.956   8.025   8.066
28599WAT     H286040   6.071   8.114   7.992
28600WAT      O86041   4.029   7.667   2.057
28600WAT     H186042   3.960   7.739   2.062
28600WAT     H286043   3.984   7.579   2.043
28601WAT      O86044   4.432   3.795   5.537
28601WAT     H186045   4.367   3.853   5.587
28601WAT     H286046   4.513   3.848   5.514
28602WAT      O86047   6.889   8.662   7.595
28602WAT     H186048   6.987   8.654   7.575
28602WAT     H286049   6.860   8.756   7.581
28603WAT      O86050   0.957   3.725   7.988
28603WAT     H186051   0.922   3.742   8.080
28603WAT     H286052   0.904   3.777   7.922
28604WAT      O86053   7.779   5.381   5.682
28604WAT     H186054   7.814   5.475   5.689
28604WAT     H286055   7.679   5.384   5.683
28605WAT      O86056   3.748   6.231   2.050
28605WAT     H186057   3.755   6.178   1.965
28605WAT     H286058   3.681   6.188   2.110
28606WAT      O86059   4.483   2.481   8.641
28606WAT     H186060   4.403   2.432   8.674
28606WAT     H286061   4.508   2.553   8.705
28607WAT      O86062   9.613   1.370   7.260
28607WAT     H186063   9.637   1.421   7.177
28607WAT     H286064   9.696   1.348   7.311
28608WAT      O86065   5.228   0.949   0.367
28608WAT     H186066   5.307   1.009   0.379
28608WAT     H286067   5.187   0.930   0.457
28609WAT      O86068   9.378   1.080   8.930
28609WAT     H186069   9.408   1.163   8.977
28609WAT     H286070   9.331   1.105   8.845
28610WAT      O86071   8.903   5.914   7.837
28610WAT     H186072   8.912   5.996   7.894
28610WAT     H286073   8.954   5.839   7.878
28611WAT      O86074   6.098   1.169   6.107
28611WAT     H186075   6.149   1.148   6.024
28611WAT     H286076   6.162   1.183   6.183
28612WAT      O86077   1.089   4.831   7.084
28612WAT     H186078   1.156   4.809   7.013
28612WAT     H286079   0.998   4.803   7.054
28613WAT      O86080   5.398   5.177   5.942
28613WAT     H186081   5.414   5.175   6.041
28613WAT     H286082   5.319   5.234   5.922
28614WAT      O86083   5.139   3.986   6.762
28614WAT     H186084   5.063   4.043   6.793
28614WAT     H286085   5.107   3.922   6.692
28615WAT      O86086   2.081   1.617   5.184
28615WAT     H186087   2.155   1.556   5.212
28615WAT     H286088   2.076   1.621   5.085
28616WAT      O86089   9.637   7.251   4.584
28616WAT     H186090   9.631   7.349   4.601
28616WAT     H286091   9.721   7.215   4.625
28617WAT      O86092   8.973   9.219   9.698
28617WAT     H186093   8.995   9.211   9.600
28617WAT     H286094   9.056   9.240   9.749
28618WAT      O86095   2.630   8.811   0.203
28618WAT     H186096   2.714   8.806   0.147
28618WAT     H286097   2.557   8.851   0.149
28619WAT      O86098   4.383   1.709   9.130
28619WAT     H186099   4.414   1.661   9.212
28619WAT     H286100   4.462   1.735   9.074
28620WAT      O86101   4.674   1.368   1.137
28620WAT     H186102   4.600   1.304   1.152
28620WAT     H286103   4.761   1.326   1.164
28621WAT      O86104   6.897   5.090   5.296
28621WAT     H186105   6.895   5.086   5.396
28621WAT     H286106   6.887   4.998   5.259
28622WAT      O86107   7.672   5.860   4.288
28622WAT     H186108   7.612   5.939   4.274
28622WAT     H286109   7.616   5.779   4.307
28623WAT      O86110   2.963   6.862   1.323
28623WAT     H186111   3.044   6.918   1.342
28623WAT     H286112   2.978   6.808   1.240
28624WAT      O86113   0.347   1.571   1.967
28624WAT     H186114   0.347   1.577   2.067
28624WAT     H286115   0.377   1.480   1.939
28625WAT      O86116   5.245   5.027   9.493
28625WAT     H186117   5.202   5.026   9.583
28625WAT     H286118   5.176   5.005   9.423
28626WAT      O86119   4.274   2.512   2.892
28626WAT     H186120   4.181   2.548   2.880
28626WAT     H286121   4.340   2.583   2.867
28627WAT      O86122   6.016   6.449   5.157
28627WAT     H186123   6.008   6.465   5.059
28627WAT     H286124   5.982   6.358   5.179
28628WAT      O86125   4.925   0.190   9.681
28628WAT     H186126   4.993   0.257   9.650
28628WAT     H286127   4.857   0.237   9.737
28629WAT      O86128   3.222   1.408   0.512
28629WAT     H186129   3.279   1.328   0.492
28629WAT     H286130   3.149   1.383   0.575
28630WAT      O86131   5.672   6.647   5.548
28630WAT     H186132   5.680   6.746   5.531
28630WAT     H286133   5.751   6.617   5.602
28631WAT      O86134   6.368   2.448   9.460
28631WAT     H186135   6.392   2.468   9.555
28631WAT     H286136   6.276   2.481   9.441
28632WAT      O86137   7.374   0.485   4.103
28632WAT     H186138   7.445   0.414   4.107
28632WAT     H286139   7.389   0.543   4.023
28633WAT      O86140   1.347   6.657   6.404
28633WAT     H186141   1.440   6.694   6.407
28633WAT     H286142   1.348   6.562   6.435
28634WAT      O86143   0.805   7.270   5.985
28634WAT     H186144   0.796   7.344   6.052
28634WAT     H286145   0.738   7.282   5.912
28635WAT      O86146   4.067   0.128   7.304
28635WAT     H186147   4.154   0.096   7.267
28635WAT     H286148   4.066   0.115   7.403
28636WAT      O86149   8.701   6.565   5.705
28636WAT     H186150   8.734   6.500   5.636
28636WAT     H286151   8.777   6.594   5.762
28637WAT      O86152   6.169   2.910   3.059
28637WAT     H186153   6.260   2.905   3.100
28637WAT     H286154   6.175   2.949   2.968
28638WAT      O86155   8.420   0.753   1.341
28638WAT     H186156   8.434   0.692   1.263
28638WAT     H286157   8.325   0.783   1.343
28639WAT      O86158   8.626   8.684   1.528
28639WAT     H186159   8.661   8.769   1.568
28639WAT     H286160   8.668   8.669   1.439
28640WAT      O86161   0.172   3.206   0.310
28640WAT     H186162   0.244   3.177   0.247
28640WAT     H286163   0.209   3.270   0.377
28641WAT      O86164   6.410   2.088   4.406
28641WAT     H186165   6.339   2.099   4.476
28641WAT     H286166   6.496   2.062   4.450
28642WAT      O86167   7.386   4.286   8.863
28642WAT     H186168   7.335   4.268   8.779
28642WAT     H286169   7.398   4.385   8.874
28643WAT      O86170   2.443   6.912   8.723
28643WAT     H186171   2.486   7.002   8.729
28643WAT     H286172   2.351   6.921   8.684
28644WAT      O86173   2.643   4.477   3.324
28644WAT     H186174   2.655   4.576   3.315
28644WAT     H286175   2.591   4.457   3.407
28645WAT      O86176   7.676   9.129   5.669
28645WAT     H186177   7.721   9.053   5.715
28645WAT     H286178   7.578   9.111   5.663
28646WAT      O86179   8.298   1.641   6.479
28646WAT     H186180   8.342   1.587   6.407
28646WAT     H286181   8.212   1.679   6.443
28647WAT      O86182   4.409   1.813   6.001
28647WAT     H186183   4.500   1.771   5.991
28647WAT     H286184   4.402   1.854   6.092
28648WAT      O86185   2.473   4.021   2.120
28648WAT     H186186   2.386   4.070   2.115
28648WAT     H286187   2.548   4.087   2.112
28649WAT      O86188   2.692   1.844   9.612
28649WAT     H186189   2.701   1.929   9.665
28649WAT     H286190   2.728   1.858   9.520
28650WAT      O86191   0.979   0.609   0.626
28650WAT     H186192   0.938   0.524   0.593
28650WAT     H286193   1.071   0.590   0.660
28651WAT      O86194   0.618   3.324   5.293
28651WAT     H186195   0.634   3.245   5.352
28651WAT     H286196   0.525   3.320   5.257
28652WAT      O86197   2.163   2.946   4.197
28652WAT     H186198   2.102   2.874   4.164
28652WAT     H286199   2.245   2.905   4.237
28653WAT      O86200   0.515   0.271   9.811
28653WAT     H186201   0.542   0.210   9.736
28653WAT     H286202   0.452   0.340   9.776
28654WAT      O86203   6.685   2.789   8.721
28654WAT     H186204   6.683   2.814   8.624
28654WAT     H286205   6.673   2.871   8.777
28655WAT      O86206   3.723   3.322   5.454
28655WAT     H186207   3.702   3.368   5.541
28655WAT     H286208   3.821   3.305   5.449
28656WAT      O86209   3.033   9.764   1.500
28656WAT     H186210   3.091   9.794   1.424
28656WAT     H286211   2.955   9.826   1.510
28657WAT      O86212   9.548   3.419   3.836
28657WAT     H186213   9.565   3.507   3.791
28657WAT     H286214   9.534   3.348   3.767
28658WAT      O86215   3.761   6.283   8.385
28658WAT     H186216   3.820   6.363   8.395
28658WAT     H286217   3.789   6.230   8.305
28659WAT      O86218   9.105   3.560   7.825
28659WAT     H186219   9.185   3.619   7.840
28659WAT     H286220   9.117   3.475   7.875
28660WAT      O86221   1.795   4.043   6.447
28660WAT     H186222   1.800   3.973   6.376
28660WAT     H286223   1.699   4.065   6.465
28661WAT      O86224   4.166   8.081   2.566
28661WAT     H186225   4.103   8.152   2.598
28661WAT     H286226   4.258   8.101   2.598
28662WAT      O86227   3.199   4.125   5.343
28662WAT     H186228   3.148   4.206   5.314
28662WAT     H286229   3.183   4.108   5.440
28663WAT      O86230   5.945   2.950   0.283
28663WAT     H186231   5.971   3.046   0.295
28663WAT     H286232   5.846   2.945   0.265
28664WAT      O86233   0.461   4.783   4.489
28664WAT     H186234   0.540   4.751   4.540
28664WAT     H286235   0.466   4.750   4.395
28665WAT      O86236   4.775   6.867   0.806
28665WAT     H186237   4.779   6.959   0.846
28665WAT     H286238   4.720   6.808   0.865
28666WAT      O86239   1.319   2.075   5.794
28666WAT     H186240   1.229   2.118   5.797
28666WAT     H286241   1.315   1.986   5.838
28667WAT      O86242   5.089   4.507   1.590
28667WAT     H186243   5.042   4.523   1.504
28667WAT     H286244   5.025   4.468   1.656
28668WAT      O86245   0.116   4.609   3.916
28668WAT     H186246   0.020   4.585   3.900
28668WAT     H286247   0.146   4.572   4.004
28669WAT      O86248   7.281   0.569   0.161
28669WAT     H186249   7.288   0.484   0.213
28669WAT     H286250   7.220   0.632   0.209
28670WAT      O86251   0.428   8.388   6.357
28670WAT     H186252   0.391   8.332   6.430
28670WAT     H286253   0.432   8.484   6.386
28671WAT      O86254   3.175   8.769   9.103
28671WAT     H186255   3.180   8.869   9.094
28671WAT     H286256   3.082   8.742   9.128
28672WAT      O86257   2.262   6.239   1.990
28672WAT     H186258   2.354   6.201   1.980
28672WAT     H286259   2.196   6.165   2.002
28673WAT      O86260   9.248   8.953   3.868
28673WAT     H186261   9.257   8.859   3.901
28673WAT     H286262   9.196   8.954   3.783
28674WAT      O86263   1.509   3.289   0.838
28674WAT     H186264   1.445   3.250   0.771
28674WAT     H286265   1.472   3.376   0.873
28675WAT      O86266   3.486   1.651   9.856
28675WAT     H186267   3.538   1.617   9.778
28675WAT     H286268   3.528   1.735   9.891
28676WAT      O86269   0.483   4.382   9.873
28676WAT     H186270   0.506   4.476   9.848
28676WAT     H286271   0.489   4.371   9.972
28677WAT      O86272   2.974   4.000   4.695
28677WAT     H186273   3.010   4.093   4.694
28677WAT     H286274   2.918   3.985   4.613
28678WAT      O86275   2.198   6.207   8.057
28678WAT     H186276   2.201   6.201   7.957
28678WAT     H286277   2.248   6.130   8.096
28679WAT      O86278   5.524   0.162   5.821
28679WAT     H186279   5.527   0.198   5.914
28679WAT     H286280   5.590   0.210   5.764
28680WAT      O86281   2.709   0.399   7.272
28680WAT     H186282   2.806   0.393   7.251
28680WAT     H286283   2.693   0.472   7.338
28681WAT      O86284   7.937   1.026   0.085
28681WAT     H186285   7.917   0.937   0.127
28681WAT     H286286   8.031   1.027   0.052
28682WAT      O86287   2.670   8.995   3.695
28682WAT     H186288   2.735   8.952   3.632
28682WAT     H286289   2.721   9.039   3.769
28683WAT      O86290   3.313   2.346   7.272
28683WAT     H186291   3.358   2.432   7.248
28683WAT     H286292   3.360   2.303   7.349
28684WAT      O86293   4.088   0.973   2.437
28684WAT     H186294   4.098   1.069   2.413
28684WAT     H286295   4.042   0.965   2.526
28685WAT      O86296   4.366   3.292   4.819
28685WAT     H186297   4.437   3.313   4.752
28685WAT     H286298   4.282   3.263   4.772
28686WAT      O86299   9.194   1.108   5.794
28686WAT     H186300   9.211   1.168   5.715
28686WAT     H286301   9.113   1.052   5.776
28687WAT      O86302   5.324   8.765   3.394
28687WAT     H186303   5.390   8.778   3.468
28687WAT     H286304   5.256   8.839   3.397
28688WAT      O86305   8.518   3.406   8.011
28688WAT     H186306   8.424   3.438   8.010
28688WAT     H286307   8.565   3.438   7.928
28689WAT      O86308   4.461   9.585   2.891
28689WAT     H186309   4.546   9.539   2.864
28689WAT     H286310   4.420   9.628   2.811
28690WAT      O86311   1.594   4.007   4.826
28690WAT     H186312   1.682   3.992   4.782
28690WAT     H286313   1.527   4.039   4.759
28691WAT      O86314   0.572   5.488   3.412
28691WAT     H186315   0.647   5.503   3.347
28691WAT     H286316   0.498   5.552   3.392
28692WAT      O86317   3.315   1.003   1.211
28692WAT     H186318   3.317   1.103   1.202
28692WAT     H286319   3.401   0.965   1.177
28693WAT      O86320   3.459   4.672   1.649
28693WAT     H186321   3.517   4.595   1.677
28693WAT     H286322   3.366   4.656   1.680
28694WAT      O86323   5.384   2.143   0.779
28694WAT     H186324   5.356   2.141   0.683
28694WAT     H286325   5.415   2.235   0.803
28695WAT      O86326   0.695   1.510   2.111
28695WAT     H186327   0.616   1.453   2.089
28695WAT     H286328   0.741   1.473   2.191
28696WAT      O86329   0.444   3.214   7.918
28696WAT     H186330   0.377   3.237   7.989
28696WAT     H286331   0.401   3.219   7.828
28697WAT      O86332   7.695   2.102   2.746
28697WAT     H186333   7.641   2.135   2.824
28697WAT     H286334   7.703   2.003   2.750
28698WAT      O86335   5.878   4.223   9.630
28698WAT     H186336   5.838   4.186   9.714
28698WAT     H286337   5.938   4.154   9.589
28699WAT      O86338   2.628   5.941   1.168
28699WAT     H186339   2.707   5.921   1.226
28699WAT     H286340   2.589   5.855   1.135
28700WAT      O86341   5.368   8.980   7.181
28700WAT     H186342   5.285   8.938   7.144
28700WAT     H286343   5.441   8.973   7.113
28701WAT      O86344   9.163   0.700   9.270
28701WAT     H186345   9.065   0.677   9.270
28701WAT     H286346   9.205   0.668   9.354
28702WAT      O86347   4.776   7.397   3.346
28702WAT     H186348   4.804   7.322   3.405
28702WAT     H286349   4.733   7.469   3.400
28703WAT      O86350   7.987   2.749   6.238
28703WAT     H186351   8.053   2.796   6.296
28703WAT     H286352   7.957   2.810   6.165
28704WAT      O86353   3.751   8.657   3.843
28704WAT     H186354   3.725   8.629   3.751
28704WAT     H286355   3.669   8.684   3.894
28705WAT      O86356   2.836   9.593   8.641
28705WAT     H186357   2.888   9.676   8.661
28705WAT     H286358   2.753   9.592   8.696
28706WAT      O86359   6.825   0.227   5.090
28706WAT     H186360   6.873   0.146   5.057
28706WAT     H286361   6.748   0.248   5.029
28707WAT      O86362   9.424   8.916   5.805
28707WAT     H186363   9.457   8.847   5.741
28707WAT     H286364   9.469   8.905   5.893
28708WAT      O86365   2.683   1.652   2.131
28708WAT     H186366   2.760   1.659   2.067
28708WAT     H286367   2.657   1.556   2.141
28709WAT      O86368   0.994   8.424   4.590
28709WAT     H186369   1.027   8.518   4.578
28709WAT     H286370   0.948   8.394   4.507
28710WAT      O86371   1.936   1.229   6.757
28710WAT     H186372   1.864   1.298   6.770
28710WAT     H286373   1.998   1.230   6.835
28711WAT      O86374   2.302   5.645   6.668
28711WAT     H186375   2.300   5.730   6.720
28711WAT     H286376   2.386   5.641   6.614
28712WAT      O86377   7.495   2.711   1.365
28712WAT     H186378   7.565   2.748   1.427
28712WAT     H286379   7.492   2.765   1.281
28713WAT      O86380   4.375   2.807   5.460
28713WAT     H186381   4.335   2.774   5.546
28713WAT     H286382   4.301   2.829   5.395
28714WAT      O86383   8.025   6.796   3.336
28714WAT     H186384   7.977   6.715   3.304
28714WAT     H286385   7.964   6.875   3.332
28715WAT      O86386   3.538   6.670   6.051
28715WAT     H186387   3.512   6.589   5.998
28715WAT     H286388   3.592   6.643   6.130
28716WAT      O86389   7.178   7.404   3.126
28716WAT     H186390   7.125   7.488   3.118
28716WAT     H286391   7.117   7.325   3.122
28717WAT      O86392   5.460   5.888   7.375
28717WAT     H186393   5.389   5.885   7.305
28717WAT     H286394   5.538   5.831   7.347
28718WAT      O86395   5.418   7.165   4.008
28718WAT     H186396   5.356   7.126   3.940
28718WAT     H286397   5.378   7.248   4.047
28719WAT      O86398   3.139   2.166   0.314
28719WAT     H186399   3.097   2.255   0.298
28719WAT     H286400   3.192   2.139   0.233
28720WAT      O86401   1.087   8.758   3.327
28720WAT     H186402   0.988   8.763   3.338
28720WAT     H286403   1.122   8.847   3.297
28721WAT      O86404   8.834   6.388   0.224
28721WAT     H186405   8.755   6.327   0.216
28721WAT     H286406   8.839   6.447   0.143
28722WAT      O86407   0.639   4.779   8.697
28722WAT     H186408   0.714   4.722   8.731
28722WAT     H286409   0.660   4.808   8.603
28723WAT      O86410   8.380   9.677   4.263
28723WAT     H186411   8.311   9.681   4.336
28723WAT     H286412   8.390   9.768   4.223
28724WAT      O86413   7.843   7.674   3.182
28724WAT     H186414   7.876   7.729   3.258
28724WAT     H286415   7.757   7.712   3.147
28725WAT      O86416   5.558   7.733   3.156
28725WAT     H186417   5.550   7.680   3.241
28725WAT     H286418   5.608   7.817   3.174
28726WAT      O86419   3.808   6.994   9.730
28726WAT     H186420   3.829   6.896   9.736
28726WAT     H286421   3.843   7.030   9.643
28727WAT      O86422   2.543   7.626   1.264
28727WAT     H186423   2.632   7.644   1.305
28727WAT     H286424   2.509   7.710   1.221
28728WAT      O86425   3.159   6.895   3.284
28728WAT     H186426   3.200   6.859   3.200
28728WAT     H286427   3.217   6.871   3.362
28729WAT      O86428   0.797   2.205   2.247
28729WAT     H186429   0.882   2.226   2.199
28729WAT     H286430   0.757   2.121   2.210
28730WAT      O86431   6.320   4.759   3.076
28730WAT     H186432   6.225   4.765   3.047
28730WAT     H286433   6.334   4.674   3.126
28731WAT      O86434   4.090   7.999   1.160
28731WAT     H186435   3.993   8.021   1.168
28731WAT     H286436   4.139   8.038   1.238
28732WAT      O86437   8.424   1.262   0.424
28732WAT     H186438   8.469   1.343   0.462
28732WAT     H286439   8.356   1.290   0.357
28733WAT      O86440   4.877   5.105   8.646
28733WAT     H186441   4.951   5.044   8.617
28733WAT     H286442   4.794   5.083   8.595
28734WAT      O86443   8.691   4.888   5.064
28734WAT     H186444   8.713   4.969   5.009
28734WAT     H286445   8.632   4.915   5.140
28735WAT      O86446   6.287   4.930   4.151
28735WAT     H186447   6.253   5.023   4.155
28735WAT     H286448   6.212   4.868   4.128
28736WAT      O86449   2.870   0.853   0.748
28736WAT     H186450   2.889   0.757   0.765
28736WAT     H286451   2.783   0.863   0.700
28737WAT      O86452   4.195   3.584   0.793
28737WAT     H186453   4.246   3.658   0.749
28737WAT     H286454   4.197   3.503   0.735
28738WAT      O86455   7.105   6.694   5.285
28738WAT     H186456   7.164   6.711   5.365
28738WAT     H286457   7.110   6.597   5.261
28739WAT      O86458   0.600   3.510   3.794
28739WAT     H186459   0.542   3.553   3.863
28739WAT     H286460   0.564   3.419   3.771
28740WAT      O86461   1.701   4.739   6.740
28740WAT     H186462   1.736   4.829   6.766
28740WAT     H286463   1.697   4.732   6.640
28741WAT      O86464   7.353   3.898   0.258
28741WAT     H186465   7.416   3.826   0.285
28741WAT     H286466   7.261   3.876   0.293
28742WAT      O86467   9.504   8.653   4.230
28742WAT     H186468   9.564   8.681   4.155
28742WAT     H286469   9.443   8.581   4.198
28743WAT      O86470   2.611   0.614   3.557
28743WAT     H186471   2.666   0.578   3.632
28743WAT     H286472   2.569   0.701   3.583
28744WAT      O86473   6.283   2.648   8.506
28744WAT     H186474   6.237   2.716   8.563
28744WAT     H286475   6.335   2.585   8.565
28745WAT      O86476   8.253   3.088   8.212
28745WAT     H186477   8.287   3.149   8.284
28745WAT     H286478   8.245   3.140   8.126
28746WAT      O86479   7.246   9.227   4.644
28746WAT     H186480   7.315   9.226   4.716
28746WAT     H286481   7.289   9.203   4.557
28747WAT      O86482   0.970   9.754   4.852
28747WAT     H186483   0.967   9.704   4.765
28747WAT     H286484   0.957   9.852   4.834
28748WAT      O86485   9.873   1.745   9.688
28748WAT     H186486   9.946   1.759   9.622
28748WAT     H286487   9.825   1.832   9.704
28749WAT      O86488   5.795   8.296   6.530
28749WAT     H186489   5.787   8.309   6.432
28749WAT     H286490   5.831   8.380   6.572
28750WAT      O86491   6.443   6.159   0.053
28750WAT     H186492   6.364   6.206   0.092
28750WAT     H286493   6.509   6.227   0.019
28751WAT      O86494   3.420   5.259   2.944
28751WAT     H186495   3.485   5.330   2.915
28751WAT     H286496   3.427   5.180   2.884
28752WAT      O86497   3.159   3.336   8.896
28752WAT     H186498   3.249   3.361   8.860
28752WAT     H286499   3.156   3.237   8.911
28753WAT      O86500   6.586   2.617   1.995
28753WAT     H186501   6.604   2.658   1.906
28753WAT     H286502   6.609   2.682   2.067
28754WAT      O86503   3.878   9.162   1.376
28754WAT     H186504   3.811   9.192   1.444
28754WAT     H286505   3.957   9.123   1.423
28755WAT      O86506   5.786   3.093   7.921
28755WAT     H186507   5.861   3.075   7.858
28755WAT     H286508   5.821   3.139   8.002
28756WAT      O86509   3.962   4.062   8.356
28756WAT     H186510   3.907   4.126   8.409
28756WAT     H286511   4.052   4.051   8.399
28757WAT      O86512   3.330   0.281   7.959
28757WAT     H186513   3.396   0.230   7.904
28757WAT     H286514   3.237   0.254   7.934
28758WAT      O86515   4.729   2.035   8.333
28758WAT     H186516   4.797   1.967   8.306
28758WAT     H286517   4.704   2.090   8.254
28759WAT      O86518   9.337   3.339   6.582
28759WAT     H186519   9.342   3.427   6.535
28759WAT     H286520   9.258   3.288   6.548
28760WAT      O86521   0.676   5.515   5.899
28760WAT     H186522   0.656   5.467   5.984
28760WAT     H286523   0.650   5.612   5.908
28761WAT      O86524   1.436   5.685   8.368
28761WAT     H186525   1.360   5.667   8.430
28761WAT     H286526   1.522   5.683   8.419
28762WAT      O86527   3.450   0.881   0.730
28762WAT     H186528   3.519   0.815   0.701
28762WAT     H286529   3.367   0.833   0.758
28763WAT      O86530   0.462   7.724   9.033
28763WAT     H186531   0.418   7.778   8.962
28763WAT     H286532   0.512   7.785   9.095
28764WAT      O86533   3.889   0.934   0.928
28764WAT     H186534   3.910   1.002   0.858
28764WAT     H286535   3.822   0.972   0.992
28765WAT      O86536   6.659   9.122   8.228
28765WAT     H186537   6.612   9.066   8.160
28765WAT     H286538   6.732   9.069   8.270
28766WAT      O86539   8.631   6.479   7.634
28766WAT     H186540   8.567   6.447   7.704
28766WAT     H286541   8.651   6.576   7.648
28767WAT      O86542   9.047   6.798   2.104
28767WAT     H186543   9.010   6.705   2.105
28767WAT     H286544   9.049   6.833   2.011
28768WAT      O86545   8.725   4.522   9.016
28768WAT     H186546   8.660   4.558   9.083
28768WAT     H286547   8.676   4.465   8.949
28769WAT      O86548   4.228   4.179   2.494
28769WAT     H186549   4.243   4.085   2.526
28769WAT     H286550   4.257   4.244   2.564
28770WAT      O86551   3.356   7.342   2.335
28770WAT     H186552   3.358   7.303   2.427
28770WAT     H286553   3.338   7.269   2.269
28771WAT      O86554   5.292   0.569   9.302
28771WAT     H186555   5.237   0.565   9.385
28771WAT     H286556   5.388   0.553   9.324
28772WAT      O86557   0.519   8.162   4.848
28772WAT     H186558   0.558   8.153   4.940
28772WAT     H286559   0.517   8.072   4.804
28773WAT      O86560   6.594   7.965   6.687
28773WAT     H186561   6.661   8.029   6.651
28773WAT     H286562   6.574   7.895   6.618
28774WAT      O86563   1.013   4.601   9.011
28774WAT     H186564   0.945   4.635   9.077
28774WAT     H286565   1.050   4.678   8.960
28775WAT      O86566   5.849   8.215   0.393
28775WAT     H186567   5.894   8.169   0.317
28775WAT     H286568   5.751   8.195   0.391
28776WAT      O86569   7.052   3.053   8.845
28776WAT     H186570   7.101   3.132   8.807
28776WAT     H286571   7.116   2.996   8.897
28777WAT      O86572   2.443   7.379   2.705
28777WAT     H186573   2.483   7.314   2.769
28777WAT     H286574   2.347   7.393   2.728
28778WAT      O86575   2.178   9.692   4.266
28778WAT     H186576   2.205   9.627   4.194
28778WAT     H286577   2.259   9.722   4.316
28779WAT      O86578   8.941   4.704   7.767
28779WAT     H186579   8.878   4.663   7.832
28779WAT     H286580   8.938   4.803   7.775
28780WAT      O86581   1.398   9.658   2.985
28780WAT     H186582   1.457   9.690   3.059
28780WAT     H286583   1.454   9.625   2.910
28781WAT      O86584   2.567   9.546   5.197
28781WAT     H186585   2.563   9.514   5.102
28781WAT     H286586   2.510   9.488   5.255
28782WAT      O86587   3.292   5.957   9.335
28782WAT     H186588   3.209   6.011   9.320
28782WAT     H286589   3.293   5.923   9.429
28783WAT      O86590   0.721   2.417   0.466
28783WAT     H186591   0.764   2.467   0.391
28783WAT     H286592   0.778   2.340   0.493
28784WAT      O86593   8.999   3.630   0.787
28784WAT     H186594   9.004   3.638   0.688
28784WAT     H286595   8.905   3.643   0.818
28785WAT      O86596   8.722   7.238   2.869
28785WAT     H186597   8.760   7.211   2.781
28785WAT     H286598   8.677   7.327   2.861
28786WAT      O86599   3.025   5.824   3.888
28786WAT     H186600   2.928   5.805   3.875
28786WAT     H286601   3.053   5.796   3.980
28787WAT      O86602   3.683   8.449   6.189
28787WAT     H186603   3.755   8.492   6.135
28787WAT     H286604   3.625   8.393   6.129
28788WAT      O86605   0.294   2.869   9.470
28788WAT     H186606   0.287   2.835   9.376
28788WAT     H286607   0.343   2.956   9.470
28789WAT      O86608   7.765   5.390   5.330
28789WAT     H186609   7.864   5.403   5.329
28789WAT     H286610   7.720   5.479   5.335
28790WAT      O86611   6.608   1.501   1.972
28790WAT     H186612   6.526   1.537   2.016
28790WAT     H286613   6.679   1.571   1.971
28791WAT      O86614   3.883   6.001   2.778
28791WAT     H186615   3.858   5.904   2.780
28791WAT     H286616   3.819   6.053   2.834
28792WAT      O86617   5.267   3.360   6.708
28792WAT     H186618   5.266   3.423   6.631
28792WAT     H286619   5.322   3.398   6.782
28793WAT      O86620   3.095   5.029   3.419
28793WAT     H186621   3.093   5.121   3.380
28793WAT     H286622   3.078   5.034   3.517
28794WAT      O86623   1.378   3.226   1.181
28794WAT     H186624   1.390   3.139   1.133
28794WAT     H286625   1.296   3.272   1.146
28795WAT      O86626   7.030   2.291   4.653
28795WAT     H186627   7.020   2.199   4.616
28795WAT     H286628   6.958   2.309   4.720
28796WAT      O86629   1.591   5.962   2.421
28796WAT     H186630   1.585   6.017   2.338
28796WAT     H286631   1.670   5.990   2.475
28797WAT      O86632   1.211   9.703   4.260
28797WAT     H186633   1.202   9.659   4.349
28797WAT     H286634   1.197   9.635   4.187
28798WAT      O86635   2.514   4.688   5.039
28798WAT     H186636   2.590   4.752   5.051
28798WAT     H286637   2.486   4.687   4.943
28799WAT      O86638   4.936   9.612   2.295
28799WAT     H186639   4.940   9.597   2.196
28799WAT     H286640   4.906   9.706   2.312
28800WAT      O86641   4.801   1.134   0.522
28800WAT     H186642   4.796   1.045   0.478
28800WAT     H286643   4.711   1.178   0.518
28801WAT      O86644   3.248   0.295   2.184
28801WAT     H186645   3.154   0.259   2.181
28801WAT     H286646   3.312   0.226   2.151
28802WAT      O86647   9.591   9.347   0.535
28802WAT     H186648   9.609   9.415   0.463
28802WAT     H286649   9.677   9.302   0.559
28803WAT      O86650   2.455   8.085   8.445
28803WAT     H186651   2.534   8.056   8.500
28803WAT     H286652   2.484   8.157   8.382
28804WAT      O86653   8.431   4.969   4.562
28804WAT     H186654   8.354   4.949   4.502
28804WAT     H286655   8.487   5.042   4.522
28805WAT      O86656   0.225   3.581   5.714
28805WAT     H186657   0.176   3.540   5.791
28805WAT     H286658   0.180   3.555   5.628
28806WAT      O86659   0.206   2.033   6.831
28806WAT     H186660   0.125   1.976   6.820
28806WAT     H286661   0.260   1.999   6.908
28807WAT      O86662   1.265   3.057   5.308
28807WAT     H186663   1.322   3.097   5.236
28807WAT     H286664   1.252   3.124   5.381
28808WAT      O86665   5.085   5.526   6.479
28808WAT     H186666   5.150   5.593   6.514
28808WAT     H286667   5.120   5.488   6.393
28809WAT      O86668   5.505   5.372   3.056
28809WAT     H186669   5.422   5.326   3.089
28809WAT     H286670   5.572   5.376   3.129
28810WAT      O86671   0.939   9.543   0.232
28810WAT     H186672   0.955   9.456   0.280
28810WAT     H286673   0.988   9.541   0.144
28811WAT      O86674   4.266   7.614   8.489
28811WAT     H186675   4.319   7.694   8.461
28811WAT     H286676   4.179   7.644   8.528
28812WAT      O86677   8.337   3.507   3.052
28812WAT     H186678   8.337   3.551   2.962
28812WAT     H286679   8.253   3.530   3.100
28813WAT      O86680   2.755   6.864   9.490
28813WAT     H186681   2.670   6.812   9.497
28813WAT     H286682   2.746   6.931   9.416
28814WAT      O86683   5.235   1.452   0.364
28814WAT     H186684   5.289   1.432   0.283
28814WAT     H286685   5.152   1.397   0.364
28815WAT      O86686   3.101   0.009   6.697
28815WAT     H186687   3.198   0.031   6.703
28815WAT     H286688   3.086  -0.085   6.729
28816WAT      O86689   4.841   3.143   2.961
28816WAT     H186690   4.928   3.192   2.955
28816WAT     H286691   4.814   3.137   3.058
28817WAT      O86692   4.551   2.065   8.714
28817WAT     H186693   4.457   2.064   8.680
28817WAT     H286694   4.567   1.985   8.772
28818WAT      O86695   7.081   8.105   4.212
28818WAT     H186696   7.018   8.085   4.136
28818WAT     H286697   7.034   8.089   4.299
28819WAT      O86698   7.850   1.356   9.607
28819WAT     H186699   7.756   1.392   9.610
28819WAT     H286700   7.907   1.418   9.553
28820WAT      O86701   0.485   1.423   8.717
28820WAT     H186702   0.531   1.489   8.776
28820WAT     H286703   0.512   1.438   8.622
28821WAT      O86704   3.168   9.114   6.510
28821WAT     H186705   3.179   9.190   6.445
28821WAT     H286706   3.071   9.095   6.522
28822WAT      O86707   4.948   6.661   0.880
28822WAT     H186708   4.917   6.751   0.849
28822WAT     H286709   4.869   6.601   0.893
28823WAT      O86710   2.737   2.579   6.195
28823WAT     H186711   2.640   2.601   6.209
28823WAT     H286712   2.785   2.583   6.283
28824WAT      O86713   6.802   7.610   9.009
28824WAT     H186714   6.779   7.574   8.919
28824WAT     H286715   6.900   7.595   9.027
28825WAT      O86716   6.357   6.069   0.959
28825WAT     H186717   6.289   6.013   0.911
28825WAT     H286718   6.389   6.020   1.040
28826WAT      O86719   6.053   3.646   3.561
28826WAT     H186720   5.981   3.689   3.614
28826WAT     H286721   6.076   3.558   3.600
28827WAT      O86722   1.312   4.336   0.099
28827WAT     H186723   1.391   4.372   0.149
28827WAT     H286724   1.320   4.362   0.002
28828WAT      O86725   1.394   7.320   9.032
28828WAT     H186726   1.331   7.245   9.015
28828WAT     H286727   1.362   7.401   8.982
28829WAT      O86728   1.923   5.987   8.996
28829WAT     H186729   1.848   5.929   8.963
28829WAT     H286730   1.922   5.990   9.096
28830WAT      O86731   8.404   7.938   0.817
28830WAT     H186732   8.476   8.002   0.792
28830WAT     H286733   8.397   7.867   0.747
28831WAT      O86734   7.654   8.863   2.308
28831WAT     H186735   7.685   8.768   2.305
28831WAT     H286736   7.619   8.884   2.400
28832WAT      O86737   1.471   0.324   0.284
28832WAT     H186738   1.441   0.248   0.342
28832WAT     H286739   1.444   0.306   0.189
28833WAT      O86740   3.473   4.777   1.389
28833WAT     H186741   3.465   4.761   1.487
28833WAT     H286742   3.554   4.731   1.353
28834WAT      O86743   9.116   0.665   1.422
28834WAT     H186744   9.134   0.606   1.501
28834WAT     H286745   9.098   0.609   1.341
28835WAT      O86746   4.993   0.584   4.970
28835WAT     H186747   4.930   0.525   5.020
28835WAT     H286748   4.943   0.632   4.898
28836WAT      O86749   7.905   4.040   8.171
28836WAT     H186750   7.878   4.128   8.131
28836WAT     H286751   8.001   4.022   8.151
28837WAT      O86752   8.333   9.346   0.182
28837WAT     H186753   8.255   9.341   0.119
28837WAT     H286754   8.315   9.289   0.262
28838WAT      O86755   9.597   6.138   2.938
28838WAT     H186756   9.571   6.055   2.890
28838WAT     H286757   9.609   6.119   3.035
28839WAT      O86758   7.267   3.449   8.472
28839WAT     H186759   7.174   3.482   8.486
28839WAT     H286760   7.268   3.349   8.478
28840WAT      O86761   7.655   4.989   0.949
28840WAT     H186762   7.613   4.988   0.858
28840WAT     H286763   7.747   5.028   0.942
28841WAT      O86764   3.023   1.883   5.447
28841WAT     H186765   3.036   1.885   5.348
28841WAT     H286766   3.039   1.974   5.485
28842WAT      O86767   6.049   6.909   2.431
28842WAT     H186768   6.014   6.822   2.397
28842WAT     H286769   6.013   6.926   2.523
28843WAT      O86770   3.262   4.681   5.639
28843WAT     H186771   3.251   4.723   5.729
28843WAT     H286772   3.183   4.703   5.581
28844WAT      O86773   2.777   6.933   5.186
28844WAT     H186774   2.826   6.864   5.239
28844WAT     H286775   2.679   6.927   5.207
28845WAT      O86776   2.908   7.410   2.423
28845WAT     H186777   2.957   7.402   2.510
28845WAT     H286778   2.960   7.365   2.351
28846WAT      O86779   7.470   6.630   6.722
28846WAT     H186780   7.476   6.723   6.684
28846WAT     H286781   7.517   6.567   6.661
28847WAT      O86782   0.857   3.858   9.054
28847WAT     H186783   0.936   3.864   8.992
28847WAT     H286784   0.836   3.762   9.072
28848WAT      O86785   5.368   1.119   9.653
28848WAT     H186786   5.289   1.146   9.597
28848WAT     H286787   5.421   1.050   9.605
28849WAT      O86788   5.310   7.752   9.116
28849WAT     H186789   5.346   7.659   9.125
28849WAT     H286790   5.338   7.806   9.196
28850WAT      O86791   8.472   8.767   2.362
28850WAT     H186792   8.470   8.750   2.263
28850WAT     H286793   8.403   8.710   2.407
28851WAT      O86794   0.717   7.807   7.878
28851WAT     H186795   0.677   7.745   7.946
28851WAT     H286796   0.744   7.892   7.922
28852WAT      O86797   7.671   3.201   3.515
28852WAT     H186798   7.636   3.108   3.504
28852WAT     H286799   7.747   3.216   3.452
28853WAT      O86800   7.557   1.990   1.789
28853WAT     H186801   7.650   2.027   1.795
28853WAT     H286802   7.491   2.062   1.809
28854WAT      O86803   7.004   6.370   6.300
28854WAT     H186804   6.921   6.331   6.341
28854WAT     H286805   7.076   6.372   6.369
28855WAT      O86806   0.283   4.181   6.338
28855WAT     H186807   0.257   4.269   6.299
28855WAT     H286808   0.225   4.161   6.418
28856WAT      O86809   6.154   1.097   2.258
28856WAT     H186810   6.162   1.192   2.225
28856WAT     H286811   6.209   1.037   2.200
28857WAT      O86812   6.057   9.315   2.277
28857WAT     H186813   6.098   9.405   2.262
28857WAT     H286814   6.095   9.274   2.360
28858WAT      O86815   6.491   0.844   9.009
28858WAT     H186816   6.539   0.757   9.018
28858WAT     H286817   6.399   0.828   8.973
28859WAT      O86818   4.374   2.959   6.139
28859WAT     H186819   4.425   3.039   6.108
28859WAT     H286820   4.278   2.967   6.111
28860WAT      O86821   4.676   5.956   1.906
28860WAT     H186822   4.577   5.967   1.918
28860WAT     H286823   4.722   5.964   1.994
28861WAT      O86824   0.323   4.190   3.151
28861WAT     H186825   0.321   4.179   3.251
28861WAT     H286826   0.359   4.106   3.110
28862WAT      O86827   4.220   5.706   9.224
28862WAT     H186828   4.159   5.642   9.270
28862WAT     H286829   4.302   5.721   9.280
28863WAT      O86830   6.950   8.911   4.655
28863WAT     H186831   6.968   8.891   4.559
28863WAT     H286832   6.853   8.896   4.675
28864WAT      O86833   2.762   3.281   8.631
28864WAT     H186834   2.666   3.307   8.627
28864WAT     H286835   2.815   3.340   8.571
28865WAT      O86836   7.555   8.900   9.257
28865WAT     H186837   7.633   8.886   9.318
28865WAT     H286838   7.522   8.812   9.224
28866WAT      O86839   4.949   2.013   8.015
28866WAT     H186840   4.975   2.015   7.918
28866WAT     H286841   5.022   1.970   8.068
28867WAT      O86842   6.195   0.296   2.806
28867WAT     H186843   6.120   0.318   2.868
28867WAT     H286844   6.212   0.373   2.744
28868WAT      O86845   7.687   8.458   8.393
28868WAT     H186846   7.775   8.415   8.372
28868WAT     H286847   7.683   8.548   8.350
28869WAT      O86848   9.566   7.373   7.423
28869WAT     H186849   9.542   7.277   7.410
28869WAT     H286850   9.664   7.380   7.442
28870WAT      O86851   4.183   2.125   5.227
28870WAT     H186852   4.172   2.036   5.272
28870WAT     H286853   4.210   2.111   5.132
28871WAT      O86854   8.671   1.454   6.498
28871WAT     H186855   8.693   1.488   6.407
28871WAT     H286856   8.652   1.532   6.558
28872WAT      O86857   5.029   3.488   5.118
28872WAT     H186858   5.086   3.570   5.121
28872WAT     H286859   5.000   3.471   5.024
28873WAT      O86860   6.460   3.248   3.670
28873WAT     H186861   6.439   3.157   3.705
28873WAT     H286862   6.544   3.281   3.713
28874WAT      O86863   2.175   3.069   1.163
28874WAT     H186864   2.227   3.129   1.101
28874WAT     H286865   2.113   3.125   1.218
28875WAT      O86866   0.882   4.144   2.609
28875WAT     H186867   0.784   4.157   2.625
28875WAT     H286868   0.928   4.124   2.696
28876WAT      O86869   6.183   7.834   7.856
28876WAT     H186870   6.221   7.774   7.927
28876WAT     H286871   6.109   7.889   7.894
28877WAT      O86872   6.930   0.923   9.401
28877WAT     H186873   6.903   0.864   9.325
28877WAT     H286874   6.936   0.869   9.485
28878WAT      O86875   5.073   3.131   9.840
28878WAT     H186876   5.034   3.070   9.910
28878WAT     H286877   5.149   3.084   9.795
28879WAT      O86878   5.900   4.441   9.235
28879WAT     H186879   5.895   4.392   9.148
28879WAT     H286880   5.852   4.389   9.306
28880WAT      O86881   3.274   5.130   4.358
28880WAT     H186882   3.234   5.201   4.416
28880WAT     H286883   3.215   5.116   4.278
28881WAT      O86884   6.984   3.944   5.088
28881WAT     H186885   7.071   3.963   5.043
28881WAT     H286886   6.950   4.028   5.131
28882WAT      O86887   0.811   6.726   9.630
28882WAT     H186888   0.868   6.689   9.557
28882WAT     H286889   0.718   6.738   9.597
28883WAT      O86890   8.043   1.558   3.006
28883WAT     H186891   7.988   1.623   3.059
28883WAT     H286892   7.986   1.516   2.936
28884WAT      O86893   9.056   5.556   3.360
28884WAT     H186894   8.994   5.486   3.396
28884WAT     H286895   9.096   5.607   3.436
28885WAT      O86896   5.194   1.152   6.688
28885WAT     H186897   5.234   1.067   6.655
28885WAT     H286898   5.096   1.153   6.668
28886WAT      O86899   5.172   4.798   1.636
28886WAT     H186900   5.178   4.705   1.672
28886WAT     H286901   5.189   4.797   1.537
28887WAT      O86902   8.219   3.568   9.294
28887WAT     H186903   8.304   3.517   9.297
28887WAT     H286904   8.155   3.524   9.231
28888WAT      O86905   9.226   2.169   7.615
28888WAT     H186906   9.198   2.077   7.640
28888WAT     H286907   9.323   2.181   7.636
28889WAT      O86908   7.213   7.029   3.180
28889WAT     H186909   7.188   6.936   3.206
28889WAT     H286910   7.131   7.086   3.173
28890WAT      O86911   5.678   1.129   5.973
28890WAT     H186912   5.609   1.147   5.903
28890WAT     H286913   5.750   1.198   5.969
28891WAT      O86914   5.846   4.556   0.193
28891WAT     H186915   5.845   4.583   0.097
28891WAT     H286916   5.762   4.586   0.238
28892WAT      O86917   3.611   7.257   1.504
28892WAT     H186918   3.673   7.185   1.474
28892WAT     H286919   3.570   7.301   1.425
28893WAT      O86920   5.197   8.272   7.922
28893WAT     H186921   5.102   8.256   7.897
28893WAT     H286922   5.257   8.244   7.847
28894WAT      O86923   1.972   2.051   2.994
28894WAT     H186924   1.909   2.016   2.924
28894WAT     H286925   1.940   2.023   3.084
28895WAT      O86926   4.717   5.953   3.213
28895WAT     H186927   4.630   5.908   3.235
28895WAT     H286928   4.744   6.013   3.288
28896WAT      O86929   0.130   8.703   6.729
28896WAT     H186930   0.177   8.622   6.696
28896WAT     H286931   0.160   8.783   6.677
28897WAT      O86932   7.485   1.568   6.312
28897WAT     H186933   7.454   1.591   6.220
28897WAT     H286934   7.494   1.652   6.366
28898WAT      O86935   0.631   7.301   8.998
28898WAT     H186936   0.648   7.375   9.064
28898WAT     H286937   0.555   7.327   8.939
28899WAT      O86938   0.451   9.159   3.559
28899WAT     H186939   0.438   9.199   3.468
28899WAT     H286940   0.516   9.083   3.552
28900WAT      O86941   4.576   2.557   8.026
28900WAT     H186942   4.532   2.543   7.937
28900WAT     H286943   4.529   2.502   8.096
28901WAT      O86944   6.010   4.791   5.757
28901WAT     H186945   6.067   4.835   5.827
28901WAT     H286946   6.068   4.732   5.701
28902WAT      O86947   2.932   6.574   0.092
28902WAT     H186948   2.976   6.549   0.179
28902WAT     H286949   2.904   6.669   0.095
28903WAT      O86950   4.326   5.573   2.671
28903WAT     H186951   4.309   5.636   2.746
28903WAT     H286952   4.240   5.540   2.634
28904WAT      O86953   5.486   1.219   6.437
28904WAT     H186954   5.472   1.246   6.342
28904WAT     H286955   5.441   1.284   6.498
28905WAT      O86956   0.823   2.456   4.060
28905WAT     H186957   0.891   2.448   3.988
28905WAT     H286958   0.867   2.441   4.149
28906WAT      O86959   6.525   2.657   1.240
28906WAT     H186960   6.535   2.563   1.207
28906WAT     H286961   6.429   2.684   1.233
28907WAT      O86962   5.608   7.795   4.077
28907WAT     H186963   5.680   7.863   4.076
28907WAT     H286964   5.519   7.840   4.089
28908WAT      O86965   2.813   9.809   7.641
28908WAT     H186966   2.900   9.856   7.656
28908WAT     H286967   2.825   9.711   7.655
28909WAT      O86968   7.460   8.885   3.965
28909WAT     H186969   7.553   8.866   3.996
28909WAT     H286970   7.397   8.873   4.042
28910WAT      O86971   1.239   8.773   7.530
28910WAT     H186972   1.213   8.858   7.577
28910WAT     H286973   1.331   8.781   7.494
28911WAT      O86974   2.888   1.374   9.425
28911WAT     H186975   2.828   1.435   9.476
28911WAT     H286976   2.947   1.429   9.365
28912WAT      O86977   6.743   1.040   4.186
28912WAT     H186978   6.652   1.053   4.226
28912WAT     H286979   6.735   1.035   4.086
28913WAT      O86980   9.153   8.904   0.567
28913WAT     H186981   9.123   8.850   0.645
28913WAT     H286982   9.093   8.886   0.489
28914WAT      O86983   4.307   1.432   4.474
28914WAT     H186984   4.247   1.457   4.398
28914WAT     H286985   4.344   1.515   4.516
28915WAT      O86986   9.522   9.484   7.752
28915WAT     H186987   9.607   9.519   7.792
28915WAT     H286988   9.467   9.560   7.717
28916WAT      O86989   5.747   1.545   7.149
28916WAT     H186990   5.708   1.454   7.162
28916WAT     H286991   5.701   1.610   7.209
28917WAT      O86992   7.468   9.056   5.325
28917WAT     H186993   7.408   9.132   5.303
28917WAT     H286994   7.471   8.992   5.248
28918WAT      O86995   3.141   2.042   8.089
28918WAT     H186996   3.131   2.142   8.089
28918WAT     H286997   3.115   2.006   8.178
28919WAT      O86998   6.848   8.229   2.311
28919WAT     H186999   6.918   8.215   2.381
28919WAT     H287000   6.759   8.244   2.354
28920WAT      O87001   4.681   1.301   8.335
28920WAT     H187002   4.676   1.361   8.414
28920WAT     H287003   4.603   1.238   8.335
28921WAT      O87004   5.365   8.706   9.614
28921WAT     H187005   5.439   8.646   9.646
28921WAT     H287006   5.360   8.786   9.673
28922WAT      O87007   8.830   6.823   5.440
28922WAT     H187008   8.847   6.725   5.447
28922WAT     H287009   8.738   6.838   5.404
28923WAT      O87010   7.764   1.817   2.752
28923WAT     H187011   7.734   1.734   2.799
28923WAT     H287012   7.852   1.801   2.708
28924WAT      O87013   0.534   0.954   5.826
28924WAT     H187014   0.508   0.878   5.885
28924WAT     H287015   0.622   0.990   5.855
28925WAT      O87016   7.226   7.122   8.596
28925WAT     H187017   7.314   7.169   8.598
28925WAT     H287018   7.176   7.141   8.681
28926WAT      O87019   1.371   9.727   7.613
28926WAT     H187020   1.443   9.664   7.583
28926WAT     H287021   1.408   9.787   7.684
28927WAT      O87022   0.823   1.501   7.043
28927WAT     H187023   0.759   1.578   7.042
28927WAT     H287024   0.911   1.531   7.006
28928WAT      O87025   1.995   7.126   4.547
28928WAT     H187026   1.929   7.113   4.473
28928WAT     H287027   2.087   7.109   4.513
28929WAT      O87028   2.654   8.204   4.187
28929WAT     H187029   2.681   8.175   4.279
28929WAT     H287030   2.652   8.125   4.126
28930WAT      O87031   9.846   3.049   9.882
28930WAT     H187032   9.935   3.090   9.863
28930WAT     H287033   9.859   2.960   9.927
28931WAT      O87034   3.011   2.691   8.116
28931WAT     H187035   2.920   2.726   8.095
28931WAT     H287036   3.078   2.765   8.109
28932WAT      O87037   9.547   5.958   6.644
28932WAT     H187038   9.458   5.946   6.688
28932WAT     H287039   9.535   5.952   6.544
28933WAT      O87040   3.762   1.632   5.707
28933WAT     H187041   3.664   1.645   5.692
28933WAT     H287042   3.778   1.611   5.804
28934WAT      O87043   0.872   4.622   2.410
28934WAT     H187044   0.900   4.563   2.335
28934WAT     H287045   0.807   4.691   2.377
28935WAT      O87046   6.558   8.861   9.524
28935WAT     H187047   6.602   8.907   9.447
28935WAT     H287048   6.461   8.887   9.528
28936WAT      O87049   9.643   0.782   3.254
28936WAT     H187050   9.652   0.766   3.353
28936WAT     H287051   9.569   0.847   3.237
28937WAT      O87052   4.369   7.713   2.900
28937WAT     H187053   4.331   7.661   2.977
28937WAT     H287054   4.380   7.652   2.822
28938WAT      O87055   3.117   1.913   2.579
28938WAT     H187056   3.043   1.966   2.537
28938WAT     H287057   3.195   1.973   2.597
28939WAT      O87058   9.680   7.563   5.503
28939WAT     H187059   9.685   7.546   5.602
28939WAT     H287060   9.730   7.492   5.455
28940WAT      O87061   6.143   5.483   7.761
28940WAT     H187062   6.044   5.495   7.760
28940WAT     H287063   6.173   5.456   7.852
28941WAT      O87064   6.650   2.345   3.200
28941WAT     H187065   6.670   2.281   3.274
28941WAT     H287066   6.732   2.357   3.144
28942WAT      O87067   9.274   4.690   4.629
28942WAT     H187068   9.341   4.751   4.671
28942WAT     H287069   9.259   4.611   4.688
28943WAT      O87070   7.474   6.237   4.721
28943WAT     H187071   7.573   6.219   4.725
28943WAT     H287072   7.457   6.313   4.659
28944WAT      O87073   5.329   5.138   5.476
28944WAT     H187074   5.384   5.216   5.445
28944WAT     H287075   5.362   5.054   5.432
28945WAT      O87076   7.772   1.492   3.685
28945WAT     H187077   7.771   1.494   3.585
28945WAT     H287078   7.867   1.488   3.717
28946WAT      O87079   3.631   9.082   5.597
28946WAT     H187080   3.657   9.142   5.522
28946WAT     H287081   3.673   9.115   5.682
28947WAT      O87082   4.278   7.640   8.902
28947WAT     H187083   4.378   7.646   8.906
28947WAT     H287084   4.245   7.705   8.834
28948WAT      O87085   6.757   7.782   9.658
28948WAT     H187086   6.752   7.799   9.756
28948WAT     H287087   6.688   7.837   9.611
28949WAT      O87088   3.657   4.527   8.556
28949WAT     H187089   3.710   4.520   8.641
28949WAT     H287090   3.567   4.484   8.570
28950WAT      O87091   2.230   7.079   1.900
28950WAT     H187092   2.287   7.018   1.955
28950WAT     H287093   2.283   7.158   1.871
28951WAT      O87094   0.811   9.487   8.126
28951WAT     H187095   0.798   9.460   8.222
28951WAT     H287096   0.766   9.575   8.110
28952WAT      O87097   0.313   5.818   3.560
28952WAT     H187098   0.359   5.766   3.487
28952WAT     H287099   0.285   5.907   3.524
28953WAT      O87100   8.879   6.876   4.000
28953WAT     H187101   8.967   6.879   3.952
28953WAT     H287102   8.840   6.785   3.991
28954WAT      O87103   9.466   2.053   5.789
28954WAT     H187104   9.407   2.001   5.728
28954WAT     H287105   9.468   2.010   5.879
28955WAT      O87106   4.247   3.183   8.086
28955WAT     H187107   4.334   3.170   8.038
28955WAT     H287108   4.172   3.149   8.029
28956WAT      O87109   5.243   8.377   4.438
28956WAT     H187110   5.259   8.344   4.345
28956WAT     H287111   5.249   8.301   4.502
28957WAT      O87112   1.069   7.512   6.087
28957WAT     H187113   1.113   7.579   6.147
28957WAT     H287114   0.976   7.496   6.117
28958WAT      O87115   8.336   2.891   1.033
28958WAT     H187116   8.328   2.822   0.960
28958WAT     H287117   8.323   2.847   1.122
28959WAT      O87118   5.485   0.206   9.069
28959WAT     H187119   5.390   0.225   9.095
28959WAT     H287120   5.533   0.292   9.055
28960WAT      O87121   8.709   3.813   0.561
28960WAT     H187122   8.661   3.900   0.552
28960WAT     H287123   8.715   3.787   0.657
28961WAT      O87124   6.618   7.200   9.249
28961WAT     H187125   6.668   7.212   9.335
28961WAT     H287126   6.577   7.286   9.221
28962WAT      O87127   2.169   1.131   8.858
28962WAT     H187128   2.161   1.032   8.869
28962WAT     H287129   2.261   1.154   8.827
28963WAT      O87130   0.948   0.812   5.203
28963WAT     H187131   0.928   0.907   5.180
28963WAT     H287132   1.015   0.809   5.277
28964WAT      O87133   2.152   6.169   5.680
28964WAT     H187134   2.241   6.167   5.726
28964WAT     H287135   2.081   6.143   5.745
28965WAT      O87136   4.752   5.657   7.701
28965WAT     H187137   4.688   5.679   7.774
28965WAT     H287138   4.714   5.583   7.644
28966WAT      O87139   8.733   8.726   1.277
28966WAT     H187140   8.800   8.799   1.281
28966WAT     H287141   8.778   8.640   1.254
28967WAT      O87142   0.521   0.526   5.782
28967WAT     H187143   0.592   0.509   5.714
28967WAT     H287144   0.530   0.459   5.856
28968WAT      O87145   2.132   8.269   2.407
28968WAT     H187146   2.202   8.203   2.378
28968WAT     H287147   2.168   8.324   2.483
28969WAT      O87148   5.383   2.246   7.434
28969WAT     H187149   5.424   2.296   7.511
28969WAT     H287150   5.455   2.219   7.370
28970WAT      O87151   1.914   8.450   9.782
28970WAT     H187152   1.882   8.517   9.715
28970WAT     H287153   1.942   8.497   9.866
28971WAT      O87154   4.372   8.807   0.362
28971WAT     H187155   4.401   8.838   0.271
28971WAT     H287156   4.418   8.860   0.432
28972WAT      O87157   3.943   0.233   4.127
28972WAT     H187158   3.964   0.218   4.031
28972WAT     H287159   3.871   0.302   4.135
28973WAT      O87160   6.183   7.145   9.451
28973WAT     H187161   6.165   7.212   9.379
28973WAT     H287162   6.138   7.172   9.535
28974WAT      O87163   5.483   1.447   8.105
28974WAT     H187164   5.411   1.395   8.151
28974WAT     H287165   5.463   1.452   8.007
28975WAT      O87166   7.149   6.283   6.979
28975WAT     H187167   7.102   6.368   7.005
28975WAT     H287168   7.241   6.305   6.946
28976WAT      O87169   0.537   8.362   1.809
28976WAT     H187170   0.598   8.407   1.744
28976WAT     H287171   0.453   8.416   1.818
28977WAT      O87172   6.787   8.624   8.958
28977WAT     H187173   6.760   8.532   8.931
28977WAT     H287174   6.857   8.658   8.896
28978WAT      O87175   3.570   2.170   5.341
28978WAT     H187176   3.590   2.251   5.286
28978WAT     H287177   3.645   2.105   5.332
28979WAT      O87178   0.065   0.504   6.042
28979WAT     H187179   0.073   0.404   6.033
28979WAT     H287180  -0.018   0.534   5.994
28980WAT      O87181   9.011   0.805   2.401
28980WAT     H187182   8.997   0.884   2.461
28980WAT     H287183   8.974   0.825   2.310
28981WAT      O87184   6.227   7.297   3.510
28981WAT     H187185   6.265   7.390   3.505
28981WAT     H287186   6.207   7.274   3.605
28982WAT      O87187   2.791   2.608   4.709
28982WAT     H187188   2.886   2.602   4.678
28982WAT     H287189   2.771   2.701   4.739
28983WAT      O87190   2.664   2.969   8.858
28983WAT     H187191   2.573   2.996   8.827
28983WAT     H287192   2.683   3.011   8.946
28984WAT      O87193   6.534   8.950   8.059
28984WAT     H187194   6.458   8.970   7.997
28984WAT     H287195   6.621   8.972   8.014
28985WAT      O87196   7.488   9.033   9.782
28985WAT     H187197   7.408   9.082   9.817
28985WAT     H287198   7.464   8.985   9.699
28986WAT      O87199   8.596   5.686   9.534
28986WAT     H187200   8.663   5.622   9.495
28986WAT     H287201   8.504   5.648   9.524
28987WAT      O87202   1.787   8.295   3.074
28987WAT     H187203   1.757   8.370   3.132
28987WAT     H287204   1.806   8.214   3.130
28988WAT      O87205   6.446   2.813   6.737
28988WAT     H187206   6.488   2.762   6.662
28988WAT     H287207   6.362   2.767   6.766
28989WAT      O87208   7.114   9.795   7.255
28989WAT     H187209   7.197   9.759   7.298
28989WAT     H287210   7.097   9.745   7.170
28990WAT      O87211   6.970   7.326   8.615
28990WAT     H187212   6.929   7.332   8.523
28990WAT     H287213   6.903   7.355   8.683
28991WAT      O87214   5.151   9.398   3.392
28991WAT     H187215   5.242   9.413   3.430
28991WAT     H287216   5.151   9.425   3.295
28992WAT      O87217   8.725   7.856   0.121
28992WAT     H187218   8.686   7.944   0.095
28992WAT     H287219   8.665   7.810   0.186
28993WAT      O87220   4.358   6.703   2.350
28993WAT     H187221   4.388   6.676   2.258
28993WAT     H287222   4.394   6.794   2.372
28994WAT      O87223   5.938   1.825   0.429
28994WAT     H187224   5.960   1.732   0.460
28994WAT     H287225   5.840   1.841   0.442
28995WAT      O87226   0.102   2.632   1.579
28995WAT     H187227   0.010   2.625   1.541
28995WAT     H287228   0.101   2.604   1.675
28996WAT      O87229   0.095   1.543   7.816
28996WAT     H187230   0.046   1.566   7.732
28996WAT     H287231   0.192   1.567   7.806
28997WAT      O87232   7.091   5.074   0.423
28997WAT     H187233   7.139   5.009   0.483
28997WAT     H287234   7.007   5.104   0.467
28998WAT      O87235   2.017   0.907   5.585
28998WAT     H187236   2.046   1.002   5.577
28998WAT     H287237   2.048   0.869   5.672
28999WAT      O87238   5.419   6.614   2.464
28999WAT     H187239   5.494   6.660   2.415
28999WAT     H287240   5.385   6.538   2.410
29000WAT      O87241   5.652   2.332   0.655
29000WAT     H187242   5.689   2.372   0.572
29000WAT     H287243   5.567   2.379   0.680
29001WAT      O87244   3.604   2.847   6.856
29001WAT     H187245   3.585   2.917   6.786
29001WAT     H287246   3.518   2.811   6.891
29002WAT      O87247   6.955   2.559   5.067
29002WAT     H187248   7.050   2.535   5.086
29002WAT     H287249   6.903   2.556   5.153
29003WAT      O87250   9.168   7.782   6.665
29003WAT     H187251   9.220   7.697   6.654
29003WAT     H287252   9.190   7.844   6.589
29004WAT      O87253   5.763   1.568   2.539
29004WAT     H187254   5.678   1.619   2.554
29004WAT     H287255   5.840   1.632   2.542
29005WAT      O87256   1.989   3.599   2.101
29005WAT     H187257   2.026   3.638   2.185
29005WAT     H287258   1.893   3.627   2.091
29006WAT      O87259   3.013   1.882   4.779
29006WAT     H187260   2.982   1.974   4.804
29006WAT     H287261   3.000   1.868   4.681
29007WAT      O87262   1.439   4.589   2.674
29007WAT     H187263   1.512   4.522   2.663
29007WAT     H287264   1.351   4.542   2.684
29008WAT      O87265   3.242   4.693   0.614
29008WAT     H187266   3.297   4.748   0.551
29008WAT     H287267   3.214   4.609   0.568
29009WAT      O87268   7.861   3.199   9.814
29009WAT     H187269   7.939   3.136   9.809
29009WAT     H287270   7.778   3.151   9.785
29010WAT      O87271   9.807   8.018   0.445
29010WAT     H187272   9.900   7.992   0.422
29010WAT     H287273   9.743   7.954   0.404
29011WAT      O87274   2.578   9.569   0.071
29011WAT     H187275   2.587   9.651   0.015
29011WAT     H287276   2.668   9.539   0.101
29012WAT      O87277   3.063   4.596   9.766
29012WAT     H187278   3.092   4.634   9.854
29012WAT     H287279   3.004   4.517   9.782
29013WAT      O87280   3.752   0.844   5.642
29013WAT     H187281   3.756   0.763   5.584
29013WAT     H287282   3.828   0.842   5.708
29014WAT      O87283   5.350   7.397   5.290
29014WAT     H187284   5.364   7.408   5.388
29014WAT     H287285   5.430   7.351   5.249
29015WAT      O87286   2.884   0.352   7.587
29015WAT     H187287   2.842   0.438   7.614
29015WAT     H287288   2.984   0.360   7.592
29016WAT      O87289   8.752   5.491   6.030
29016WAT     H187290   8.827   5.431   6.057
29016WAT     H287291   8.744   5.566   6.096
29017WAT      O87292   7.085   9.035   4.034
29017WAT     H187293   7.120   9.127   4.051
29017WAT     H287294   6.990   9.041   4.003
29018WAT      O87295   1.949   7.611   5.826
29018WAT     H187296   1.991   7.556   5.755
29018WAT     H287297   2.011   7.618   5.904
29019WAT      O87298   5.330   7.842   9.383
29019WAT     H187299   5.232   7.861   9.388
29019WAT     H287300   5.345   7.744   9.394
29020WAT      O87301   4.166   5.799   4.111
29020WAT     H187302   4.200   5.727   4.051
29020WAT     H287303   4.108   5.862   4.059
29021WAT      O87304   2.017   8.906   2.796
29021WAT     H187305   2.029   8.979   2.728
29021WAT     H287306   2.004   8.947   2.886
29022WAT      O87307   6.515   2.633   4.499
29022WAT     H187308   6.486   2.537   4.489
29022WAT     H287309   6.445   2.693   4.459
29023WAT      O87310   3.030   0.274   6.378
29023WAT     H187311   2.955   0.317   6.428
29023WAT     H287312   3.034   0.177   6.401
29024WAT      O87313   8.010   5.730   2.450
29024WAT     H187314   7.957   5.769   2.525
29024WAT     H287315   7.948   5.694   2.380
29025WAT      O87316   0.134   8.302   2.401
29025WAT     H187317   0.132   8.213   2.446
29025WAT     H287318   0.171   8.292   2.309
29026WAT      O87319   7.381   4.075   7.819
29026WAT     H187320   7.291   4.113   7.802
29026WAT     H287321   7.374   3.976   7.834
29027WAT      O87322   6.316   8.908   6.284
29027WAT     H187323   6.410   8.874   6.275
29027WAT     H287324   6.310   8.971   6.361
29028WAT      O87325   3.262   5.186   2.139
29028WAT     H187326   3.240   5.267   2.193
29028WAT     H287327   3.239   5.204   2.043
29029WAT      O87328   9.288   7.226   6.887
29029WAT     H187329   9.291   7.133   6.852
29029WAT     H287330   9.348   7.284   6.832
29030WAT      O87331   4.968   9.128   8.554
29030WAT     H187332   5.049   9.185   8.571
29030WAT     H287333   4.985   9.069   8.475
29031WAT      O87334   3.614   7.148   9.034
29031WAT     H187335   3.614   7.145   8.934
29031WAT     H287336   3.707   7.140   9.068
29032WAT      O87337   4.385   4.374   9.198
29032WAT     H187338   4.450   4.325   9.140
29032WAT     H287339   4.362   4.317   9.277
29033WAT      O87340   1.164   2.654   3.363
29033WAT     H187341   1.223   2.595   3.309
29033WAT     H287342   1.069   2.623   3.355
29034WAT      O87343   1.033   7.800   5.256
29034WAT     H187344   1.065   7.774   5.347
29034WAT     H287345   0.994   7.720   5.210
29035WAT      O87346   6.617   6.727   6.454
29035WAT     H187347   6.519   6.722   6.433
29035WAT     H287348   6.669   6.693   6.376
29036WAT      O87349   4.797   7.773   1.436
29036WAT     H187350   4.751   7.713   1.501
29036WAT     H287351   4.788   7.736   1.343
29037WAT      O87352   3.526   7.441   0.558
29037WAT     H187353   3.519   7.518   0.495
29037WAT     H287354   3.449   7.378   0.542
29038WAT      O87355   1.533   3.339   4.151
29038WAT     H187356   1.615   3.388   4.180
29038WAT     H287357   1.506   3.369   4.060
29039WAT      O87358   1.317   3.877   1.335
29039WAT     H187359   1.314   3.974   1.358
29039WAT     H287360   1.333   3.865   1.237
29040WAT      O87361   7.015   3.402   4.433
29040WAT     H187362   6.971   3.436   4.517
29040WAT     H287363   7.013   3.302   4.432
29041WAT      O87364   0.566   9.292   8.311
29041WAT     H187365   0.539   9.197   8.323
29041WAT     H287366   0.486   9.347   8.289
29042WAT      O87367   2.458   2.172   7.152
29042WAT     H187368   2.395   2.241   7.117
29042WAT     H287369   2.493   2.117   7.076
29043WAT      O87370   2.344   2.467   4.822
29043WAT     H187371   2.442   2.477   4.836
29043WAT     H287372   2.309   2.549   4.775
29044WAT      O87373   6.869   9.353   0.296
29044WAT     H187374   6.885   9.413   0.218
29044WAT     H287375   6.803   9.396   0.358
29045WAT      O87376   9.323   2.867   7.649
29045WAT     H187377   9.247   2.801   7.651
29045WAT     H287378   9.375   2.856   7.564
29046WAT      O87379   0.603   8.095   0.890
29046WAT     H187380   0.609   7.996   0.902
29046WAT     H287381   0.597   8.116   0.793
29047WAT      O87382   0.192   6.071   2.299
29047WAT     H187383   0.260   6.007   2.336
29047WAT     H287384   0.212   6.089   2.203
29048WAT      O87385   0.027   8.188   3.434
29048WAT     H187386  -0.050   8.125   3.424
29048WAT     H287387   0.102   8.159   3.375
29049WAT      O87388   3.457   0.930   6.520
29049WAT     H187389   3.415   1.017   6.495
29049WAT     H287390   3.483   0.880   6.437
29050WAT      O87391   3.884   3.944   2.835
29050WAT     H187392   3.841   3.856   2.857
29050WAT     H287393   3.960   3.960   2.898
29051WAT      O87394   1.827   5.247   9.065
29051WAT     H187395   1.796   5.334   9.102
29051WAT     H287396   1.860   5.261   8.971
29052WAT      O87397   0.896   5.371   3.459
29052WAT     H187398   0.933   5.421   3.380
29052WAT     H287399   0.972   5.333   3.512
29053WAT      O87400   5.891   5.462   5.225
29053WAT     H187401   5.954   5.475   5.148
29053WAT     H287402   5.799   5.490   5.197
29054WAT      O87403   5.291   4.739   6.142
29054WAT     H187404   5.327   4.646   6.134
29054WAT     H287405   5.357   4.797   6.191
29055WAT      O87406   1.385   1.103   3.159
29055WAT     H187407   1.377   1.005   3.140
29055WAT     H287408   1.481   1.131   3.149
29056WAT      O87409   3.840   7.186   8.801
29056WAT     H187410   3.772   7.174   8.728
29056WAT     H287411   3.818   7.267   8.854
29057WAT      O87412   2.630   9.785   9.810
29057WAT     H187413   2.700   9.818   9.873
29057WAT     H287414   2.602   9.860   9.749
29058WAT      O87415   4.044   0.024   4.938
29058WAT     H187416   3.993   0.044   5.022
29058WAT     H287417   4.141   0.011   4.960
29059WAT      O87418   4.981   6.660   8.360
29059WAT     H187419   5.027   6.589   8.414
29059WAT     H287420   4.971   6.630   8.266
29060WAT      O87421   7.657   9.723   4.207
29060WAT     H187422   7.742   9.673   4.229
29060WAT     H287423   7.620   9.688   4.121
29061WAT      O87424   5.087   4.858   8.723
29061WAT     H187425   5.011   4.830   8.665
29061WAT     H287426   5.158   4.788   8.721
29062WAT      O87427   0.006   3.432   6.447
29062WAT     H187428  -0.081   3.460   6.486
29062WAT     H287429   0.037   3.348   6.491
29063WAT      O87430   8.746   4.943   6.561
29063WAT     H187431   8.759   4.845   6.545
29063WAT     H287432   8.823   4.994   6.524
29064WAT      O87433   8.993   3.207   4.518
29064WAT     H187434   9.044   3.294   4.522
29064WAT     H287435   8.968   3.188   4.424
29065WAT      O87436   3.303   1.700   1.362
29065WAT     H187437   3.392   1.709   1.319
29065WAT     H287438   3.314   1.667   1.456
29066WAT      O87439   1.914   8.248   1.011
29066WAT     H187440   1.980   8.321   0.992
29066WAT     H287441   1.948   8.189   1.084
29067WAT      O87442   8.585   4.138   5.878
29067WAT     H187443   8.644   4.074   5.829
29067WAT     H287444   8.627   4.162   5.965
29068WAT      O87445   8.717   5.910   1.810
29068WAT     H187446   8.816   5.897   1.808
29068WAT     H287447   8.695   6.006   1.791
29069WAT      O87448   3.506   9.069   3.864
29069WAT     H187449   3.529   9.165   3.848
29069WAT     H287450   3.516   9.018   3.778
29070WAT      O87451   1.227   8.056   7.497
29070WAT     H187452   1.270   8.146   7.510
29070WAT     H287453   1.130   8.068   7.477
29071WAT      O87454   5.926   6.110   2.921
29071WAT     H187455   5.982   6.190   2.940
29071WAT     H287456   5.911   6.102   2.823
29072WAT      O87457   0.450   7.383   1.327
29072WAT     H187458   0.460   7.325   1.408
29072WAT     H287459   0.475   7.477   1.350
29073WAT      O87460   8.153   1.387   9.335
29073WAT     H187461   8.111   1.407   9.247
29073WAT     H287462   8.143   1.289   9.355
29074WAT      O87463   0.030   3.588   2.136
29074WAT     H187464   0.008   3.643   2.056
29074WAT     H287465  -0.051   3.540   2.168
29075WAT      O87466   2.839   8.804   0.488
29075WAT     H187467   2.785   8.787   0.405
29075WAT     H287468   2.795   8.875   0.543
29076WAT      O87469   1.907   2.320   5.666
29076WAT     H187470   2.006   2.310   5.669
29076WAT     H287471   1.882   2.414   5.688
29077WAT      O87472   8.525   3.844   1.718
29077WAT     H187473   8.509   3.905   1.795
29077WAT     H287474   8.461   3.767   1.723
29078WAT      O87475   1.369   3.648   5.162
29078WAT     H187476   1.310   3.719   5.202
29078WAT     H287477   1.447   3.691   5.116
29079WAT      O87478   2.888   4.952   7.546
29079WAT     H187479   2.818   5.021   7.565
29079WAT     H287480   2.899   4.942   7.447
29080WAT      O87481   1.701   1.930   9.454
29080WAT     H187482   1.632   1.998   9.430
29080WAT     H287483   1.753   1.905   9.372
29081WAT      O87484   0.036   4.568   5.631
29081WAT     H187485  -0.055   4.538   5.604
29081WAT     H287486   0.084   4.492   5.675
29082WAT      O87487   4.105   1.585   7.617
29082WAT     H187488   4.008   1.579   7.640
29082WAT     H287489   4.150   1.654   7.675
29083WAT      O87490   2.746   3.710   0.845
29083WAT     H187491   2.754   3.782   0.776
29083WAT     H287492   2.805   3.732   0.923
29084WAT      O87493   9.472   7.663   3.021
29084WAT     H187494   9.471   7.626   2.928
29084WAT     H287495   9.403   7.617   3.076
29085WAT      O87496   5.292   1.067   1.999
29085WAT     H187497   5.308   0.971   1.980
29085WAT     H287498   5.218   1.076   2.066
29086WAT      O87499   4.790   2.323   6.449
29086WAT     H187500   4.727   2.266   6.503
29086WAT     H287501   4.848   2.264   6.393
29087WAT      O87502   8.870   8.305   3.462
29087WAT     H187503   8.860   8.344   3.553
29087WAT     H287504   8.791   8.331   3.406
29088WAT      O87505   8.388   4.826   6.720
29088WAT     H187506   8.414   4.916   6.685
29088WAT     H287507   8.417   4.755   6.656
29089WAT      O87508   4.269   2.310   8.015
29089WAT     H187509   4.303   2.349   8.101
29089WAT     H287510   4.260   2.211   8.025
29090WAT      O87511   5.301   2.077   7.991
29090WAT     H187512   5.266   2.162   8.028
29090WAT     H287513   5.401   2.080   7.987
29091WAT      O87514   4.278   8.298   8.551
29091WAT     H187515   4.236   8.339   8.471
29091WAT     H287516   4.336   8.366   8.597
29092WAT      O87517   2.044   2.757   6.819
29092WAT     H187518   2.029   2.760   6.720
29092WAT     H287519   2.138   2.787   6.839
29093WAT      O87520   5.817   0.341   4.044
29093WAT     H187521   5.869   0.423   4.019
29093WAT     H287522   5.837   0.268   3.979
29094WAT      O87523   0.973   5.062   5.339
29094WAT     H187524   0.929   4.973   5.329
29094WAT     H287525   1.022   5.066   5.426
29095WAT      O87526   8.491   7.710   9.711
29095WAT     H187527   8.441   7.793   9.687
29095WAT     H287528   8.464   7.680   9.802
29096WAT      O87529   0.747   3.848   3.449
29096WAT     H187530   0.796   3.932   3.471
29096WAT     H287531   0.723   3.800   3.533
29097WAT      O87532   2.511   3.365   7.883
29097WAT     H187533   2.535   3.402   7.794
29097WAT     H287534   2.495   3.266   7.876
29098WAT      O87535   7.115   0.144   3.330
29098WAT     H187536   7.068   0.183   3.251
29098WAT     H287537   7.145   0.218   3.390
29099WAT      O87538   0.297   8.608   9.406
29099WAT     H187539   0.369   8.672   9.381
29099WAT     H287540   0.241   8.647   9.480
29100WAT      O87541   3.612   7.603   4.352
29100WAT     H187542   3.628   7.650   4.439
29100WAT     H287543   3.573   7.667   4.286
29101WAT      O87544   3.755   1.033   8.275
29101WAT     H187545   3.687   0.963   8.300
29101WAT     H287546   3.734   1.118   8.323
29102WAT      O87547   4.169   3.776   1.471
29102WAT     H187548   4.221   3.846   1.423
29102WAT     H287549   4.229   3.729   1.536
29103WAT      O87550   6.223   7.637   5.619
29103WAT     H187551   6.128   7.661   5.635
29103WAT     H287552   6.279   7.720   5.617
29104WAT      O87553   3.535   0.154  -0.001
29104WAT     H187554   3.508   0.165   0.095
29104WAT     H287555   3.627   0.190  -0.014
29105WAT      O87556   5.063   6.695   1.875
29105WAT     H187557   5.072   6.642   1.790
29105WAT     H287558   5.149   6.742   1.894
29106WAT      O87559   0.492   8.424   2.460
29106WAT     H187560   0.448   8.491   2.518
29106WAT     H287561   0.424   8.381   2.400
29107WAT      O87562   9.003   6.789   7.597
29107WAT     H187563   8.921   6.803   7.653
29107WAT     H287564   9.051   6.707   7.629
29108WAT      O87565   5.459   3.341   9.814
29108WAT     H187566   5.369   3.378   9.789
29108WAT     H287567   5.461   3.243   9.795
29109WAT      O87568   4.937   8.211   4.956
29109WAT     H187569   4.941   8.123   5.003
29109WAT     H287570   4.883   8.276   5.010
29110WAT      O87571   6.438   8.320   0.483
29110WAT     H187572   6.413   8.235   0.530
29110WAT     H287573   6.514   8.303   0.420
29111WAT      O87574   8.831   6.596   6.710
29111WAT     H187575   8.925   6.625   6.691
29111WAT     H287576   8.779   6.591   6.625
29112WAT      O87577   8.247   2.360   0.208
29112WAT     H187578   8.308   2.382   0.283
29112WAT     H287579   8.152   2.376   0.236
29113WAT      O87580   9.286   4.831   7.619
29113WAT     H187581   9.315   4.792   7.706
29113WAT     H287582   9.366   4.858   7.566
29114WAT      O87583   5.319   2.752   9.362
29114WAT     H187584   5.390   2.821   9.354
29114WAT     H287585   5.321   2.712   9.454
29115WAT      O87586   3.511   6.953   1.886
29115WAT     H187587   3.440   6.901   1.933
29115WAT     H287588   3.600   6.909   1.904
29116WAT      O87589   4.989   9.202   8.222
29116WAT     H187590   5.008   9.294   8.187
29116WAT     H287591   4.913   9.161   8.172
29117WAT      O87592   6.440   3.210   5.883
29117WAT     H187593   6.445   3.121   5.930
29117WAT     H287594   6.415   3.281   5.949
29118WAT      O87595   2.147   9.623   6.179
29118WAT     H187596   2.216   9.554   6.197
29118WAT     H287597   2.087   9.632   6.258
29119WAT      O87598   1.333   1.812   5.989
29119WAT     H187599   1.421   1.842   6.026
29119WAT     H287600   1.338   1.716   5.964
29120WAT      O87601   6.624   3.868   3.239
29120WAT     H187602   6.525   3.877   3.251
29120WAT     H287603   6.643   3.822   3.153
29121WAT      O87604   6.326   6.231   8.422
29121WAT     H187605   6.249   6.189   8.373
29121WAT     H287606   6.347   6.177   8.503
29122WAT      O87607   7.750   4.373   2.244
29122WAT     H187608   7.678   4.327   2.296
29122WAT     H287609   7.839   4.337   2.272
29123WAT      O87610   0.151   7.588   4.824
29123WAT     H187611   0.124   7.651   4.896
29123WAT     H287612   0.196   7.638   4.750
29124WAT      O87613   3.720   9.147   2.272
29124WAT     H187614   3.786   9.164   2.199
29124WAT     H287615   3.651   9.219   2.272
29125WAT      O87616   7.411   2.360   9.139
29125WAT     H187617   7.335   2.424   9.151
29125WAT     H287618   7.496   2.412   9.129
29126WAT      O87619   4.452   0.119   2.603
29126WAT     H187620   4.518   0.055   2.564
29126WAT     H287621   4.360   0.091   2.578
29127WAT      O87622   2.307   1.986   9.864
29127WAT     H187623   2.365   1.913   9.828
29127WAT     H287624   2.219   1.985   9.818
29128WAT      O87625   7.019   3.831   7.240
29128WAT     H187626   7.056   3.756   7.184
29128WAT     H287627   7.053   3.918   7.204
29129WAT      O87628   3.386   1.516   3.810
29129WAT     H187629   3.377   1.616   3.804
29129WAT     H287630   3.297   1.474   3.796
29130WAT      O87631   3.412   2.621   2.817
29130WAT     H187632   3.465   2.554   2.869
29130WAT     H287633   3.392   2.584   2.726
29131WAT      O87634   5.443   2.852   2.406
29131WAT     H187635   5.454   2.921   2.335
29131WAT     H287636   5.349   2.855   2.441
29132WAT      O87637   7.732   9.498   5.141
29132WAT     H187638   7.660   9.523   5.205
29132WAT     H287639   7.696   9.501   5.048
29133WAT      O87640   8.010   5.578   6.375
29133WAT     H187641   8.109   5.589   6.371
29133WAT     H287642   7.983   5.559   6.470
29134WAT      O87643   1.810   7.415   8.209
29134WAT     H187644   1.819   7.399   8.110
29134WAT     H287645   1.721   7.381   8.240
29135WAT      O87646   8.504   0.257   4.317
29135WAT     H187647   8.570   0.324   4.283
29135WAT     H287648   8.454   0.297   4.394
29136WAT      O87649   6.129   3.436   1.691
29136WAT     H187650   6.113   3.534   1.673
29136WAT     H287651   6.181   3.397   1.615
29137WAT      O87652   1.114   5.490   2.916
29137WAT     H187653   1.140   5.422   2.847
29137WAT     H287654   1.019   5.476   2.942
29138WAT      O87655   0.582   6.516   8.242
29138WAT     H187656   0.630   6.446   8.189
29138WAT     H287657   0.492   6.480   8.268
29139WAT      O87658   9.373   7.745   9.362
29139WAT     H187659   9.360   7.646   9.357
29139WAT     H287660   9.406   7.779   9.274
29140WAT      O87661   7.050   5.222   6.520
29140WAT     H187662   6.989   5.301   6.523
29140WAT     H287663   6.996   5.139   6.508
29141WAT      O87664   1.287   7.909   4.156
29141WAT     H187665   1.371   7.940   4.111
29141WAT     H287666   1.303   7.902   4.255
29142WAT      O87667   7.706   5.474   7.796
29142WAT     H187668   7.725   5.418   7.715
29142WAT     H287669   7.720   5.570   7.774
29143WAT      O87670   8.399   0.089   4.127
29143WAT     H187671   8.434   0.138   4.206
29143WAT     H287672   8.475   0.064   4.067
29144WAT      O87673   8.760   6.585   0.052
29144WAT     H187674   8.687   6.646   0.081
29144WAT     H287675   8.795   6.615  -0.037
29145WAT      O87676   3.133   8.088   7.321
29145WAT     H187677   3.100   8.104   7.414
29145WAT     H287678   3.055   8.072   7.260
29146WAT      O87679   0.775   5.375   4.584
29146WAT     H187680   0.777   5.276   4.568
29146WAT     H287681   0.761   5.422   4.496
29147WAT      O87682   2.354   7.467   0.673
29147WAT     H187683   2.327   7.379   0.634
29147WAT     H287684   2.349   7.462   0.773
29148WAT      O87685   4.069   0.871   7.537
29148WAT     H187686   4.136   0.945   7.539
29148WAT     H287687   3.990   0.897   7.593
29149WAT      O87688   5.434   3.885   9.319
29149WAT     H187689   5.336   3.900   9.327
29149WAT     H287690   5.462   3.810   9.379
29150WAT      O87691   8.482   5.604   0.934
29150WAT     H187692   8.536   5.684   0.960
29150WAT     H287693   8.420   5.629   0.859
29151WAT      O87694   0.552   2.323   0.742
29151WAT     H187695   0.522   2.388   0.673
29151WAT     H287696   0.557   2.368   0.831
29152WAT      O87697   6.318   7.085   7.836
29152WAT     H187698   6.401   7.090   7.892
29152WAT     H287699   6.298   7.176   7.799
29153WAT      O87700   4.929   5.171   8.272
29153WAT     H187701   4.892   5.110   8.343
29153WAT     H287702   4.930   5.123   8.184
29154WAT      O87703   8.953   7.864   6.826
29154WAT     H187704   8.903   7.777   6.828
29154WAT     H287705   9.036   7.853   6.771
29155WAT      O87706   1.634   8.939   5.125
29155WAT     H187707   1.636   8.885   5.209
29155WAT     H287708   1.610   9.033   5.147
29156WAT      O87709   3.553   6.868   1.618
29156WAT     H187710   3.530   6.771   1.606
29156WAT     H287711   3.557   6.889   1.715
29157WAT      O87712   7.146   0.758   7.268
29157WAT     H187713   7.121   0.664   7.292
29157WAT     H287714   7.246   0.768   7.276
29158WAT      O87715   8.075   1.526   0.587
29158WAT     H187716   8.116   1.538   0.496
29158WAT     H287717   8.147   1.509   0.654
29159WAT      O87718   8.817   4.892   8.278
29159WAT     H187719   8.872   4.925   8.202
29159WAT     H287720   8.736   4.846   8.242
29160WAT      O87721   3.922   3.730   1.421
29160WAT     H187722   3.916   3.688   1.330
29160WAT     H287723   4.017   3.755   1.439
29161WAT      O87724   2.555   7.699   4.907
29161WAT     H187725   2.614   7.660   4.837
29161WAT     H287726   2.547   7.798   4.892
29162WAT      O87727   4.792   5.833   4.130
29162WAT     H187728   4.804   5.879   4.218
29162WAT     H287729   4.843   5.747   4.129
29163WAT      O87730   4.319   3.581   9.304
29163WAT     H187731   4.393   3.649   9.304
29163WAT     H287732   4.322   3.530   9.218
29164WAT      O87733   5.003   5.886   1.773
29164WAT     H187734   5.009   5.848   1.866
29164WAT     H287735   4.924   5.847   1.726
29165WAT      O87736   5.702   9.490   2.071
29165WAT     H187737   5.634   9.529   2.132
29165WAT     H287738   5.740   9.406   2.111
29166WAT      O87739   6.586   0.628   1.489
29166WAT     H187740   6.498   0.623   1.536
29166WAT     H287741   6.588   0.710   1.430
29167WAT      O87742   0.561   3.784   7.168
29167WAT     H187743   0.515   3.746   7.248
29167WAT     H287744   0.659   3.764   7.173
29168WAT      O87745   0.624   9.219   1.887
29168WAT     H187746   0.716   9.247   1.913
29168WAT     H287747   0.626   9.126   1.850
29169WAT      O87748   1.697   7.565   6.890
29169WAT     H187749   1.711   7.499   6.816
29169WAT     H287750   1.622   7.627   6.866
29170WAT      O87751   3.325   6.379   1.452
29170WAT     H187752   3.359   6.462   1.497
29170WAT     H287753   3.384   6.356   1.375
29171WAT      O87754   9.015   2.060   5.557
29171WAT     H187755   9.019   1.961   5.552
29171WAT     H287756   9.024   2.090   5.652
29172WAT      O87757   2.270   7.615   8.968
29172WAT     H187758   2.202   7.580   9.032
29172WAT     H287759   2.225   7.652   8.887
29173WAT      O87760   5.461   0.235   6.084
29173WAT     H187761   5.437   0.315   6.138
29173WAT     H287762   5.439   0.152   6.136
29174WAT      O87763   7.983   7.740   5.286
29174WAT     H187764   8.016   7.649   5.262
29174WAT     H287765   7.968   7.746   5.384
29175WAT      O87766   8.290   2.800   2.659
29175WAT     H187767   8.379   2.796   2.703
29175WAT     H287768   8.296   2.856   2.576
29176WAT      O87769   7.740   8.582   9.693
29176WAT     H187770   7.649   8.624   9.695
29176WAT     H287771   7.760   8.553   9.600
29177WAT      O87772   2.052   6.450   2.122
29177WAT     H187773   2.047   6.435   2.023
29177WAT     H287774   1.967   6.419   2.164
29178WAT      O87775   9.719   0.363   5.689
29178WAT     H187776   9.794   0.316   5.642
29178WAT     H287777   9.744   0.458   5.706
29179WAT      O87778   6.476   5.513   8.580
29179WAT     H187779   6.542   5.453   8.535
29179WAT     H287780   6.467   5.598   8.528
29180WAT      O87781   3.341   8.296   6.064
29180WAT     H187782   3.422   8.328   6.014
29180WAT     H287783   3.264   8.289   6.001
29181WAT      O87784   2.490   7.709   0.642
29181WAT     H187785   2.467   7.612   0.650
29181WAT     H287786   2.532   7.725   0.552
29182WAT      O87787   8.642   1.077   2.753
29182WAT     H187788   8.636   0.993   2.700
29182WAT     H287789   8.630   1.057   2.850
29183WAT      O87790   1.359   8.816   8.412
29183WAT     H187791   1.267   8.786   8.437
29183WAT     H287792   1.427   8.762   8.461
29184WAT      O87793   8.270   9.514   4.088
29184WAT     H187794   8.304   9.580   4.155
29184WAT     H287795   8.171   9.501   4.100
29185WAT      O87796   9.185   6.224   5.145
29185WAT     H187797   9.157   6.308   5.100
29185WAT     H287798   9.144   6.219   5.236
29186WAT      O87799   1.811   5.426   5.264
29186WAT     H187800   1.900   5.466   5.240
29186WAT     H287801   1.826   5.339   5.312
29187WAT      O87802   9.302   9.470   0.255
29187WAT     H187803   9.235   9.501   0.322
29187WAT     H287804   9.351   9.391   0.290
29188WAT      O87805   0.067   3.908   4.775
29188WAT     H187806   0.044   3.824   4.728
29188WAT     H287807   0.064   3.984   4.710
29189WAT      O87808   3.733   7.239   4.226
29189WAT     H187809   3.763   7.213   4.134
29189WAT     H287810   3.689   7.160   4.270
29190WAT      O87811   0.871   2.417   7.006
29190WAT     H187812   0.961   2.444   7.042
29190WAT     H287813   0.833   2.491   6.951
29191WAT      O87814   2.249   4.044   7.967
29191WAT     H187815   2.217   3.962   8.014
29191WAT     H287816   2.342   4.066   7.999
29192WAT      O87817   1.172   3.186   1.783
29192WAT     H187818   1.172   3.135   1.869
29192WAT     H287819   1.266   3.204   1.755
29193WAT      O87820   8.491   0.746   1.618
29193WAT     H187821   8.472   0.653   1.649
29193WAT     H287822   8.435   0.766   1.538
29194WAT      O87823   6.766   9.448   5.379
29194WAT     H187824   6.667   9.462   5.376
29194WAT     H287825   6.806   9.507   5.449
29195WAT      O87826   2.934   4.998   2.042
29195WAT     H187827   2.993   4.953   1.974
29195WAT     H287828   2.895   5.081   2.003
29196WAT      O87829   0.423   0.558   0.282
29196WAT     H187830   0.384   0.497   0.351
29196WAT     H287831   0.416   0.653   0.314
29197WAT      O87832   5.422   4.046   1.887
29197WAT     H187833   5.447   4.048   1.791
29197WAT     H287834   5.489   4.097   1.941
29198WAT      O87835   4.642   0.604   3.773
29198WAT     H187836   4.708   0.538   3.740
29198WAT     H287837   4.587   0.638   3.697
29199WAT      O87838   4.052   1.987   5.574
29199WAT     H187839   4.045   2.082   5.605
29199WAT     H287840   3.995   1.929   5.632
29200WAT      O87841   1.891   0.669   3.135
29200WAT     H187842   1.973   0.722   3.159
29200WAT     H287843   1.810   0.721   3.160
29201WAT      O87844   2.295   6.504   0.035
29201WAT     H187845   2.359   6.436  -0.002
29201WAT     H287846   2.277   6.485   0.131
29202WAT      O87847   7.930   4.757   6.649
29202WAT     H187848   7.957   4.812   6.728
29202WAT     H287849   8.010   4.707   6.615
29203WAT      O87850   4.960   6.541   8.122
29203WAT     H187851   4.889   6.605   8.090
29203WAT     H287852   5.037   6.542   8.059
29204WAT      O87853   6.623   9.799   2.885
29204WAT     H187854   6.568   9.716   2.878
29204WAT     H287855   6.570   9.870   2.931
29205WAT      O87856   2.312   8.649   0.885
29205WAT     H187857   2.377   8.659   0.809
29205WAT     H287858   2.340   8.573   0.943
29206WAT      O87859   1.911   2.943   3.183
29206WAT     H187860   1.918   3.022   3.245
29206WAT     H287861   1.815   2.916   3.174
29207WAT      O87862   5.558   0.371   7.408
29207WAT     H187863   5.615   0.453   7.420
29207WAT     H287864   5.615   0.289   7.413
29208WAT      O87865   2.416   8.152   3.433
29208WAT     H187866   2.437   8.070   3.486
29208WAT     H287867   2.457   8.232   3.477
29209WAT      O87868   2.743   7.220   7.037
29209WAT     H187869   2.646   7.197   7.026
29209WAT     H287870   2.799   7.144   7.002
29210WAT      O87871   9.174   2.185   4.037
29210WAT     H187872   9.251   2.161   3.978
29210WAT     H287873   9.143   2.103   4.086
29211WAT      O87874   4.115   4.417   9.057
29211WAT     H187875   4.124   4.366   8.972
29211WAT     H287876   4.206   4.441   9.091
29212WAT      O87877   7.114   5.799   0.665
29212WAT     H187878   7.144   5.723   0.723
29212WAT     H287879   7.073   5.871   0.722
29213WAT      O87880   3.121   9.410   1.763
29213WAT     H187881   3.218   9.396   1.782
29213WAT     H287882   3.095   9.362   1.679
29214WAT      O87883   3.986   8.950   7.235
29214WAT     H187884   3.979   8.931   7.137
29214WAT     H287885   4.014   9.045   7.249
29215WAT      O87886   5.325   5.635   6.112
29215WAT     H187887   5.397   5.698   6.086
29215WAT     H287888   5.364   5.547   6.137
29216WAT      O87889   6.515   1.777   1.864
29216WAT     H187890   6.570   1.859   1.846
29216WAT     H287891   6.482   1.739   1.777
29217WAT      O87892   6.825   7.729   7.857
29217WAT     H187893   6.898   7.738   7.924
29217WAT     H287894   6.742   7.774   7.891
29218WAT      O87895   2.802   8.717   9.430
29218WAT     H187896   2.856   8.710   9.513
29218WAT     H287897   2.752   8.804   9.429
29219WAT      O87898   6.474   3.923   9.804
29219WAT     H187899   6.466   4.023   9.801
29219WAT     H287900   6.567   3.898   9.833
29220WAT      O87901   1.912   5.873   7.060
29220WAT     H187902   1.856   5.952   7.086
29220WAT     H287903   1.981   5.857   7.131
29221WAT      O87904   8.508   8.229   8.878
29221WAT     H187905   8.576   8.161   8.906
29221WAT     H287906   8.418   8.201   8.912
29222WAT      O87907   5.402   7.368   8.343
29222WAT     H187908   5.428   7.404   8.253
29222WAT     H287909   5.338   7.431   8.387
29223WAT      O87910   0.051   5.931   4.945
29223WAT     H187911   0.131   5.959   5.000
29223WAT     H287912   0.033   6.001   4.876
29224WAT      O87913   4.265   6.600   4.184
29224WAT     H187914   4.238   6.504   4.173
29224WAT     H287915   4.364   6.607   4.192
29225WAT      O87916   3.122   4.934   7.653
29225WAT     H187917   3.130   5.007   7.721
29225WAT     H287918   3.040   4.947   7.599
29226WAT      O87919   0.175   0.198   0.982
29226WAT     H187920   0.133   0.254   1.053
29226WAT     H287921   0.273   0.188   1.002
29227WAT      O87922   9.345   6.933   4.242
29227WAT     H187923   9.360   7.032   4.245
29227WAT     H287924   9.426   6.887   4.279
29228WAT      O87925   2.971   8.767   7.882
29228WAT     H187926   2.893   8.814   7.842
29228WAT     H287927   3.033   8.736   7.810
29229WAT      O87928   1.134   3.148   4.753
29229WAT     H187929   1.050   3.129   4.703
29229WAT     H287930   1.157   3.245   4.742
29230WAT      O87931   5.356   7.601   9.479
29230WAT     H187932   5.281   7.608   9.544
29230WAT     H287933   5.341   7.523   9.418
29231WAT      O87934   8.573   3.256   5.087
29231WAT     H187935   8.528   3.176   5.126
29231WAT     H287936   8.538   3.273   4.995
29232WAT      O87937   4.946   6.561   2.096
29232WAT     H187938   4.961   6.464   2.081
29232WAT     H287939   5.010   6.614   2.039
29233WAT      O87940   8.052   0.312   4.502
29233WAT     H187941   8.014   0.265   4.422
29233WAT     H287942   7.978   0.353   4.555
29234WAT      O87943   9.128   3.481   5.209
29234WAT     H187944   9.059   3.553   5.213
29234WAT     H287945   9.185   3.494   5.128
29235WAT      O87946   3.340   7.162   0.104
29235WAT     H187947   3.283   7.238   0.072
29235WAT     H287948   3.428   7.198   0.137
29236WAT      O87949   1.213   4.425   2.720
29236WAT     H187950   1.115   4.428   2.703
29236WAT     H287951   1.234   4.349   2.782
29237WAT      O87952   3.100   3.267   2.703
29237WAT     H187953   3.055   3.305   2.784
29237WAT     H287954   3.038   3.204   2.657
29238WAT      O87955   8.381   5.850   7.936
29238WAT     H187956   8.339   5.807   8.016
29238WAT     H287957   8.413   5.779   7.873
29239WAT      O87958   0.743   2.149   0.541
29239WAT     H187959   0.644   2.154   0.543
29239WAT     H287960   0.780   2.181   0.629
29240WAT      O87961   4.626   6.482   8.031
29240WAT     H187962   4.540   6.485   7.980
29240WAT     H287963   4.667   6.573   8.032
29241WAT      O87964   1.633   6.084   8.131
29241WAT     H187965   1.593   6.026   8.060
29241WAT     H287966   1.583   6.171   8.135
29242WAT      O87967   7.523   9.112   1.677
29242WAT     H187968   7.452   9.054   1.715
29242WAT     H287969   7.612   9.066   1.685
29243WAT      O87970   6.257   3.067   9.309
29243WAT     H187971   6.176   3.122   9.333
29243WAT     H287972   6.300   3.035   9.393
29244WAT      O87973   0.953   8.160   7.455
29244WAT     H187974   0.853   8.157   7.464
29244WAT     H287975   0.980   8.240   7.402
29245WAT      O87976   8.326   0.531   4.990
29245WAT     H187977   8.328   0.433   4.969
29245WAT     H287978   8.412   0.557   5.033
29246WAT      O87979   5.742   1.959   9.440
29246WAT     H187980   5.663   1.909   9.476
29246WAT     H287981   5.803   1.895   9.393
29247WAT      O87982   1.237   1.433   1.154
29247WAT     H187983   1.178   1.509   1.124
29247WAT     H287984   1.328   1.468   1.174
29248WAT      O87985   7.061   0.856   7.524
29248WAT     H187986   7.094   0.775   7.572
29248WAT     H287987   7.123   0.877   7.449
29249WAT      O87988   3.219   6.976   5.977
29249WAT     H187989   3.311   6.969   6.016
29249WAT     H287990   3.171   7.053   6.018
29250WAT      O87991   7.473   0.587   2.850
29250WAT     H187992   7.421   0.667   2.879
29250WAT     H287993   7.457   0.512   2.916
29251WAT      O87994   6.509   4.037   3.833
29251WAT     H187995   6.517   4.030   3.734
29251WAT     H287996   6.440   4.107   3.856
29252WAT      O87997   0.928   1.960   7.243
29252WAT     H187998   0.977   2.037   7.285
29252WAT     H287999   0.920   1.886   7.310
29253WAT      O88000   0.828   8.729   6.644
29253WAT     H188001   0.852   8.639   6.606
29253WAT     H288002   0.745   8.762   6.600
29254WAT      O88003   4.877   0.373   0.189
29254WAT     H188004   4.974   0.397   0.188
29254WAT     H288005   4.845   0.354   0.096
29255WAT      O88006   7.748   0.414   6.622
29255WAT     H188007   7.782   0.406   6.716
29255WAT     H288008   7.825   0.430   6.560
29256WAT      O88009   1.506   8.715   7.500
29256WAT     H188010   1.504   8.669   7.411
29256WAT     H288011   1.555   8.657   7.566
29257WAT      O88012   1.907   3.546   7.439
29257WAT     H188013   1.829   3.520   7.382
29257WAT     H288014   1.992   3.518   7.395
29258WAT      O88015   6.556   7.499   9.799
29258WAT     H188016   6.640   7.533   9.843
29258WAT     H288017   6.580   7.454   9.713
29259WAT      O88018   8.379   2.221   6.006
29259WAT     H188019   8.465   2.264   5.979
29259WAT     H288020   8.315   2.224   5.930
29260WAT      O88021   7.496   0.378   1.095
29260WAT     H188022   7.413   0.379   1.151
29260WAT     H288023   7.514   0.470   1.060
29261WAT      O88024   0.852   7.898   4.436
29261WAT     H188025   0.820   7.836   4.365
29261WAT     H288026   0.778   7.914   4.501
29262WAT      O88027   4.946   9.194   9.244
29262WAT     H188028   4.971   9.187   9.341
29262WAT     H288029   5.024   9.163   9.189
29263WAT      O88030   1.224   5.447   7.905
29263WAT     H188031   1.324   5.441   7.901
29263WAT     H288032   1.198   5.534   7.947
29264WAT      O88033   3.800   8.622   8.001
29264WAT     H188034   3.888   8.655   8.033
29264WAT     H288035   3.809   8.527   7.970
29265WAT      O88036   5.359   2.521   6.789
29265WAT     H188037   5.351   2.583   6.867
29265WAT     H288038   5.306   2.438   6.806
29266WAT      O88039   0.907   9.108   4.896
29266WAT     H188040   0.993   9.156   4.877
29266WAT     H288041   0.858   9.156   4.968
29267WAT      O88042   2.743   7.993   9.402
29267WAT     H188043   2.776   7.905   9.368
29267WAT     H288044   2.653   8.013   9.362
29268WAT      O88045   8.012   0.667   7.111
29268WAT     H188046   7.924   0.620   7.124
29268WAT     H288047   8.003   0.737   7.040
29269WAT      O88048   1.429   4.759   6.488
29269WAT     H188049   1.334   4.746   6.516
29269WAT     H288050   1.453   4.690   6.420
29270WAT      O88051   7.536   7.663   8.699
29270WAT     H188052   7.474   7.739   8.723
29270WAT     H288053   7.528   7.644   8.602
29271WAT      O88054   5.283   3.929   6.128
29271WAT     H188055   5.184   3.932   6.144
29271WAT     H288056   5.307   3.845   6.080
29272WAT      O88057   6.061   8.479   4.051
29272WAT     H188058   6.157   8.483   4.079
29272WAT     H288059   6.005   8.529   4.116
29273WAT      O88060   9.214   8.664   6.071
29273WAT     H188061   9.279   8.588   6.058
29273WAT     H288062   9.246   8.722   6.145
29274WAT      O88063   8.648   4.608   4.014
29274WAT     H188064   8.730   4.556   3.989
29274WAT     H288065   8.572   4.545   4.032
29275WAT      O88066   7.441   2.528   2.494
29275WAT     H188067   7.375   2.484   2.433
29275WAT     H288068   7.471   2.462   2.563
29276WAT      O88069   7.396   5.937   6.111
29276WAT     H188070   7.434   5.877   6.181
29276WAT     H288071   7.351   6.015   6.154
29277WAT      O88072   8.978   3.544   3.880
29277WAT     H188073   9.075   3.565   3.870
29277WAT     H288074   8.925   3.628   3.885
29278WAT      O88075   6.399   6.172   1.981
29278WAT     H188076   6.328   6.235   2.011
29278WAT     H288077   6.363   6.079   1.977
29279WAT      O88078   1.482   0.488   9.023
29279WAT     H188079   1.499   0.392   9.005
29279WAT     H288080   1.568   0.532   9.051
29280WAT      O88081   1.328   6.453   3.544
29280WAT     H188082   1.360   6.363   3.574
29280WAT     H288083   1.285   6.445   3.454
29281WAT      O88084   6.160   0.538   2.638
29281WAT     H188085   6.201   0.600   2.571
29281WAT     H288086   6.086   0.584   2.686
29282WAT      O88087   0.582   3.106   9.369
29282WAT     H188088   0.485   3.122   9.391
29282WAT     H288089   0.613   3.174   9.303
29283WAT      O88090   7.539   5.712   2.829
29283WAT     H188091   7.591   5.627   2.821
29283WAT     H288092   7.600   5.790   2.815
29284WAT      O88093   7.048   3.576   6.975
29284WAT     H188094   7.088   3.580   6.884
29284WAT     H288095   7.117   3.546   7.041
29285WAT      O88096   5.359   3.908   0.372
29285WAT     H188097   5.419   3.915   0.451
29285WAT     H288098   5.264   3.926   0.401
29286WAT      O88099   8.072   3.629   9.808
29286WAT     H188100   7.979   3.593   9.805
29286WAT     H288101   8.101   3.655   9.715
29287WAT      O88102   4.695   6.602   3.283
29287WAT     H188103   4.678   6.554   3.197
29287WAT     H288104   4.629   6.676   3.294
29288WAT      O88105   3.590   9.751   5.032
29288WAT     H188106   3.591   9.659   4.993
29288WAT     H288107   3.497   9.786   5.033
29289WAT      O88108   5.764   6.915   7.572
29289WAT     H188109   5.736   6.820   7.557
29289WAT     H288110   5.774   6.961   7.484
29290WAT      O88111   1.758   4.493   7.365
29290WAT     H188112   1.758   4.477   7.464
29290WAT     H288113   1.761   4.591   7.347
29291WAT      O88114   5.566   2.636   5.391
29291WAT     H188115   5.584   2.715   5.449
29291WAT     H288116   5.486   2.654   5.333
29292WAT      O88117   6.333   6.616   9.232
29292WAT     H188118   6.315   6.582   9.324
29292WAT     H288119   6.295   6.708   9.222
29293WAT      O88120   0.165   9.331   4.770
29293WAT     H188121   0.071   9.325   4.806
29293WAT     H288122   0.222   9.380   4.837
29294WAT      O88123   3.709   5.134   8.562
29294WAT     H188124   3.621   5.094   8.537
29294WAT     H288125   3.729   5.212   8.503
29295WAT      O88126   6.906   1.390   2.038
29295WAT     H188127   6.902   1.291   2.054
29295WAT     H288128   6.861   1.412   1.952
29296WAT      O88129   9.680   5.982   0.526
29296WAT     H188130   9.674   6.073   0.484
29296WAT     H288131   9.588   5.949   0.547
29297WAT      O88132   6.860   7.312   9.381
29297WAT     H188133   6.841   7.391   9.439
29297WAT     H288134   6.933   7.336   9.316
29298WAT      O88135   6.575   9.673   8.005
29298WAT     H188136   6.542   9.667   7.911
29298WAT     H288137   6.593   9.581   8.040
29299WAT      O88138   6.014   4.506   0.396
29299WAT     H188139   5.940   4.515   0.329
29299WAT     H288140   6.000   4.423   0.451
29300WAT      O88141   4.606   3.068   9.790
29300WAT     H188142   4.547   3.133   9.743
29300WAT     H288143   4.642   3.109   9.874
29301WAT      O88144   6.207   5.604   8.325
29301WAT     H188145   6.185   5.565   8.415
29301WAT     H288146   6.301   5.638   8.325
29302WAT      O88147   4.930   3.414   3.882
29302WAT     H188148   4.830   3.422   3.882
29302WAT     H288149   4.962   3.402   3.788
29303WAT      O88150   9.146   1.210   4.025
29303WAT     H188151   9.110   1.135   4.081
29303WAT     H288152   9.229   1.180   3.978
29304WAT      O88153   5.886   7.382   4.494
29304WAT     H188154   5.797   7.426   4.504
29304WAT     H288155   5.954   7.432   4.548
29305WAT      O88156   9.819   9.325   6.858
29305WAT     H188157   9.762   9.406   6.874
29305WAT     H288158   9.761   9.248   6.834
29306WAT      O88159   1.864   8.380   7.870
29306WAT     H188160   1.915   8.402   7.787
29306WAT     H288161   1.916   8.315   7.925
29307WAT      O88162   1.360   7.866   8.951
29307WAT     H188163   1.404   7.780   8.927
29307WAT     H288164   1.264   7.863   8.923
29308WAT      O88165   3.351   0.342   0.611
29308WAT     H188166   3.378   0.411   0.544
29308WAT     H288167   3.348   0.383   0.702
29309WAT      O88168   5.453   6.093   7.873
29309WAT     H188169   5.473   6.037   7.793
29309WAT     H288170   5.514   6.173   7.874
29310WAT      O88171   0.311   9.575   6.236
29310WAT     H188172   0.382   9.529   6.289
29310WAT     H288173   0.228   9.518   6.235
29311WAT      O88174   4.639   3.208   5.384
29311WAT     H188175   4.549   3.237   5.353
29311WAT     H288176   4.710   3.258   5.333
29312WAT      O88177   2.521   8.116   5.191
29312WAT     H188178   2.613   8.139   5.221
29312WAT     H288179   2.519   8.021   5.159
29313WAT      O88180   8.919   4.799   6.220
29313WAT     H188181   9.015   4.793   6.194
29313WAT     H288182   8.892   4.715   6.268
29314WAT      O88183   4.561   0.914   6.235
29314WAT     H188184   4.626   0.922   6.159
29314WAT     H288185   4.560   0.999   6.287
29315WAT      O88186   9.740   9.617   7.881
29315WAT     H188187   9.731   9.665   7.968
29315WAT     H288188   9.792   9.673   7.817
29316WAT      O88189   8.376   7.030   3.270
29316WAT     H188190   8.345   6.954   3.213
29316WAT     H288191   8.405   6.995   3.360
29317WAT      O88192   8.341   5.338   9.573
29317WAT     H188193   8.256   5.304   9.615
29317WAT     H288194   8.412   5.346   9.644
29318WAT      O88195   9.402   8.691   6.393
29318WAT     H188196   9.313   8.656   6.422
29318WAT     H288197   9.447   8.623   6.334
29319WAT      O88198   0.962   4.450   2.632
29319WAT     H188199   0.940   4.528   2.573
29319WAT     H288200   0.936   4.365   2.586
29320WAT      O88201   3.779   1.303   7.919
29320WAT     H188202   3.808   1.225   7.975
29320WAT     H288203   3.815   1.387   7.958
29321WAT      O88204   6.012   4.643   1.215
29321WAT     H188205   6.038   4.652   1.312
29321WAT     H288206   6.047   4.722   1.164
29322WAT      O88207   6.102   0.888   3.902
29322WAT     H188208   6.045   0.829   3.845
29322WAT     H288209   6.064   0.980   3.904
29323WAT      O88210   8.432   2.327   2.724
29323WAT     H188211   8.438   2.400   2.793
29323WAT     H288212   8.368   2.257   2.756
29324WAT      O88213   1.700   8.558   1.917
29324WAT     H188214   1.758   8.516   1.987
29324WAT     H288215   1.687   8.495   1.841
29325WAT      O88216   5.389   9.278   3.621
29325WAT     H188217   5.451   9.320   3.554
29325WAT     H288218   5.348   9.350   3.678
29326WAT      O88219   0.444   7.966   0.638
29326WAT     H188220   0.368   7.916   0.595
29326WAT     H288221   0.496   7.903   0.695
29327WAT      O88222   5.179   4.272   9.013
29327WAT     H188223   5.244   4.294   8.940
29327WAT     H288224   5.108   4.343   9.016
29328WAT      O88225   7.568   4.241   8.142
29328WAT     H188226   7.588   4.180   8.065
29328WAT     H288227   7.521   4.191   8.214
29329WAT      O88228   1.491   2.017   8.350
29329WAT     H188229   1.529   1.961   8.424
29329WAT     H288230   1.563   2.037   8.284
29330WAT      O88231   0.150   4.554   3.656
29330WAT     H188232   0.152   4.549   3.756
29330WAT     H288233   0.188   4.641   3.626
29331WAT      O88234   2.232   1.713   0.533
29331WAT     H188235   2.197   1.632   0.486
29331WAT     H288236   2.219   1.703   0.632
29332WAT      O88237   4.158   0.595   1.887
29332WAT     H188238   4.138   0.510   1.839
29332WAT     H288239   4.224   0.577   1.960
29333WAT      O88240   3.718   5.594   5.828
29333WAT     H188241   3.652   5.660   5.865
29333WAT     H288242   3.763   5.634   5.748
29334WAT      O88243   3.617   8.321   5.591
29334WAT     H188244   3.623   8.367   5.503
29334WAT     H288245   3.613   8.222   5.577
29335WAT      O88246   8.326   6.613   6.174
29335WAT     H188247   8.350   6.583   6.081
29335WAT     H288248   8.294   6.708   6.171
29336WAT      O88249   8.240   7.427   7.931
29336WAT     H188250   8.263   7.440   7.834
29336WAT     H288251   8.142   7.442   7.944
29337WAT      O88252   5.863   0.494   9.646
29337WAT     H188253   5.938   0.559   9.657
29337WAT     H288254   5.891   0.421   9.584
29338WAT      O88255   6.346   7.097   3.766
29338WAT     H188256   6.319   7.079   3.671
29338WAT     H288257   6.430   7.048   3.786
29339WAT      O88258   5.970   7.656   9.816
29339WAT     H188259   5.899   7.586   9.827
29339WAT     H288260   5.926   7.746   9.811
29340WAT      O88261   5.722   6.684   2.953
29340WAT     H188262   5.660   6.629   2.896
29340WAT     H288263   5.806   6.702   2.902
29341WAT      O88264   0.840   2.634   9.829
29341WAT     H188265   0.920   2.644   9.770
29341WAT     H288266   0.758   2.620   9.773
29342WAT      O88267   8.777   1.194   0.530
29342WAT     H188268   8.813   1.228   0.443
29342WAT     H288269   8.704   1.254   0.562
29343WAT      O88270   7.580   7.578   0.080
29343WAT     H188271   7.647   7.648   0.057
29343WAT     H288272   7.625   7.489   0.087
29344WAT      O88273   2.010   9.368   1.433
29344WAT     H188274   1.961   9.432   1.493
29344WAT     H288275   1.987   9.388   1.338
29345WAT      O88276   3.193   9.115   6.784
29345WAT     H188277   3.257   9.174   6.834
29345WAT     H288278   3.204   9.129   6.686
29346WAT      O88279   2.372   4.553   1.342
29346WAT     H188280   2.459   4.601   1.349
29346WAT     H288281   2.346   4.543   1.246
29347WAT      O88282   3.191   4.864   6.737
29347WAT     H188283   3.110   4.875   6.794
29347WAT     H288284   3.207   4.767   6.720
29348WAT      O88285   2.803   9.635   5.338
29348WAT     H188286   2.715   9.621   5.292
29348WAT     H288287   2.818   9.561   5.404
29349WAT      O88288   1.821   0.109   7.544
29349WAT     H188289   1.778   0.180   7.489
29349WAT     H288290   1.853   0.035   7.485
29350WAT      O88291   4.640   2.281   7.399
29350WAT     H188292   4.714   2.322   7.345
29350WAT     H288293   4.556   2.334   7.385
29351WAT      O88294   4.841   0.867   7.956
29351WAT     H188295   4.937   0.894   7.956
29351WAT     H288296   4.787   0.936   8.002
29352WAT      O88297   7.724   8.567   9.424
29352WAT     H188298   7.809   8.527   9.389
29352WAT     H288299   7.647   8.507   9.399
29353WAT      O88300   8.088   9.289   6.819
29353WAT     H188301   8.142   9.238   6.885
29353WAT     H288302   8.148   9.339   6.757
29354WAT      O88303   5.305   2.785   9.077
29354WAT     H188304   5.240   2.725   9.030
29354WAT     H288305   5.315   2.755   9.172
29355WAT      O88306   9.513   5.460   0.283
29355WAT     H188307   9.569   5.412   0.351
29355WAT     H288308   9.461   5.533   0.328
29356WAT      O88309   3.453   6.585   6.579
29356WAT     H188310   3.381   6.598   6.510
29356WAT     H288311   3.515   6.513   6.548
29357WAT      O88312   1.194   2.638   6.535
29357WAT     H188313   1.163   2.637   6.630
29357WAT     H288314   1.219   2.545   6.507
29358WAT      O88315   1.390   2.195   7.379
29358WAT     H188316   1.452   2.237   7.313
29358WAT     H288317   1.295   2.213   7.352
29359WAT      O88318   8.110   2.510   9.651
29359WAT     H188319   8.171   2.453   9.707
29359WAT     H288320   8.139   2.506   9.556
29360WAT      O88321   6.904   2.237   7.453
29360WAT     H188322   6.832   2.288   7.500
29360WAT     H288323   6.917   2.149   7.498
29361WAT      O88324   5.354   8.793   1.402
29361WAT     H188325   5.451   8.780   1.420
29361WAT     H288326   5.336   8.889   1.380
29362WAT      O88327   7.734   9.825   7.102
29362WAT     H188328   7.660   9.783   7.049
29362WAT     H288329   7.809   9.760   7.113
29363WAT      O88330   5.116   3.949   1.436
29363WAT     H188331   5.170   3.874   1.398
29363WAT     H288332   5.032   3.960   1.384
29364WAT      O88333   9.747   0.433   4.689
29364WAT     H188334   9.747   0.358   4.756
29364WAT     H288335   9.744   0.521   4.737
29365WAT      O88336   6.467   1.788   3.197
29365WAT     H188337   6.491   1.853   3.269
29365WAT     H288338   6.441   1.701   3.238
29366WAT      O88339   6.610   2.092   0.419
29366WAT     H188340   6.594   2.180   0.463
29366WAT     H288341   6.709   2.079   0.407
29367WAT      O88342   9.051   0.094   0.080
29367WAT     H188343   9.072   0.186   0.114
29367WAT     H288344   8.979   0.100   0.011
29368WAT      O88345   2.681   7.911   3.240
29368WAT     H188346   2.742   7.894   3.317
29368WAT     H288347   2.614   7.837   3.233
29369WAT      O88348   0.988   1.981   7.868
29369WAT     H188349   1.072   1.962   7.816
29369WAT     H288350   1.001   1.953   7.963
29370WAT      O88351   5.532   3.011   8.739
29370WAT     H188352   5.547   3.097   8.691
29370WAT     H288353   5.445   3.015   8.788
29371WAT      O88354   2.607   4.006   7.571
29371WAT     H188355   2.701   3.974   7.556
29371WAT     H288356   2.610   4.098   7.612
29372WAT      O88357   8.666   8.749   0.866
29372WAT     H188358   8.567   8.734   0.861
29372WAT     H288359   8.709   8.668   0.907
29373WAT      O88360   5.872   3.566   1.573
29373WAT     H188361   5.870   3.467   1.587
29373WAT     H288362   5.879   3.585   1.475
29374WAT      O88363   8.785   5.405   1.937
29374WAT     H188364   8.812   5.437   2.027
29374WAT     H288365   8.691   5.434   1.919
29375WAT      O88366   8.278   5.685   9.193
29375WAT     H188367   8.271   5.633   9.108
29375WAT     H288368   8.190   5.684   9.240
29376WAT      O88369   5.718   2.802   7.253
29376WAT     H188370   5.645   2.766   7.311
29376WAT     H288371   5.777   2.728   7.222
29377WAT      O88372   7.582   5.217   5.244
29377WAT     H188373   7.649   5.142   5.236
29377WAT     H288374   7.629   5.300   5.275
29378WAT      O88375   5.672   3.060   4.813
29378WAT     H188376   5.639   2.981   4.761
29378WAT     H288377   5.622   3.066   4.900
29379WAT      O88378   8.502   0.747   2.087
29379WAT     H188379   8.436   0.822   2.079
29379WAT     H288380   8.464   0.664   2.047
29380WAT      O88381   6.476   9.509   5.236
29380WAT     H188382   6.405   9.471   5.296
29380WAT     H288383   6.435   9.540   5.151
29381WAT      O88384   2.356   0.626   0.472
29381WAT     H188385   2.374   0.676   0.556
29381WAT     H288386   2.287   0.555   0.489
29382WAT      O88387   0.175   1.403   2.396
29382WAT     H188388   0.214   1.485   2.439
29382WAT     H288389   0.087   1.426   2.355
29383WAT      O88390   8.544   6.108   6.913
29383WAT     H188391   8.547   6.019   6.958
29383WAT     H288392   8.600   6.173   6.965
29384WAT      O88393   6.786   7.230   2.015
29384WAT     H188394   6.750   7.285   1.940
29384WAT     H288395   6.813   7.140   1.980
29385WAT      O88396   0.369   6.791   4.622
29385WAT     H188397   0.422   6.805   4.705
29385WAT     H288398   0.430   6.790   4.543
29386WAT      O88399   9.295   6.532   2.986
29386WAT     H188400   9.228   6.479   2.934
29386WAT     H288401   9.387   6.513   2.951
29387WAT      O88402   6.101   4.737   4.283
29387WAT     H188403   6.023   4.699   4.333
29387WAT     H288404   6.184   4.687   4.308
29388WAT      O88405   5.058   6.581   1.633
29388WAT     H188406   5.118   6.569   1.554
29388WAT     H288407   4.970   6.618   1.603
29389WAT      O88408   5.320   0.112   0.726
29389WAT     H188409   5.345   0.162   0.809
29389WAT     H288410   5.350   0.017   0.734
29390WAT      O88411   0.092   4.402   8.922
29390WAT     H188412   0.003   4.434   8.952
29390WAT     H288413   0.127   4.333   8.986
29391WAT      O88414   6.625   4.658   9.290
29391WAT     H188415   6.641   4.744   9.241
29391WAT     H288416   6.613   4.584   9.224
29392WAT      O88417   4.837   8.987   7.452
29392WAT     H188418   4.928   9.028   7.451
29392WAT     H288419   4.845   8.888   7.440
29393WAT      O88420   1.891   0.237   3.457
29393WAT     H188421   1.791   0.235   3.454
29393WAT     H288422   1.924   0.172   3.526
29394WAT      O88423   0.074   7.553   5.158
29394WAT     H188424   0.110   7.619   5.091
29394WAT     H288425   0.090   7.460   5.125
29395WAT      O88426   9.245   3.212   4.975
29395WAT     H188427   9.332   3.194   5.020
29395WAT     H288428   9.231   3.147   4.900
29396WAT      O88429   6.156   1.708   7.462
29396WAT     H188430   6.153   1.615   7.497
29396WAT     H288431   6.108   1.712   7.374
29397WAT      O88432   3.633   8.268   7.709
29397WAT     H188433   3.593   8.242   7.621
29397WAT     H288434   3.719   8.317   7.693
29398WAT      O88435   2.008   8.506   8.923
29398WAT     H188436   1.942   8.461   8.863
29398WAT     H288437   1.964   8.531   9.009
29399WAT      O88438   0.994   1.550   3.139
29399WAT     H188439   1.088   1.519   3.140
29399WAT     H288440   0.961   1.552   3.044
29400WAT      O88441   2.476   7.819   5.972
29400WAT     H188442   2.465   7.724   5.943
29400WAT     H288443   2.457   7.879   5.894
29401WAT      O88444   0.435   2.592   9.169
29401WAT     H188445   0.535   2.600   9.161
29401WAT     H288446   0.397   2.565   9.080
29402WAT      O88447   9.890   5.096   4.987
29402WAT     H188448   9.796   5.115   5.017
29402WAT     H288449   9.913   5.002   5.009
29403WAT      O88450   4.776   2.191   2.755
29403WAT     H188451   4.684   2.154   2.742
29403WAT     H288452   4.826   2.133   2.820
29404WAT      O88453   6.356   8.334   4.716
29404WAT     H188454   6.296   8.272   4.665
29404WAT     H288455   6.372   8.417   4.662
29405WAT      O88456   9.879   3.041   7.555
29405WAT     H188457   9.906   2.976   7.485
29405WAT     H288458   9.946   3.041   7.629
29406WAT      O88459   2.789   2.266   4.472
29406WAT     H188460   2.848   2.347   4.468
29406WAT     H288461   2.769   2.235   4.379
29407WAT      O88462   3.826   3.394   7.827
29407WAT     H188463   3.815   3.296   7.846
29407WAT     H288464   3.739   3.430   7.792
29408WAT      O88465   5.024   7.581   4.895
29408WAT     H188466   4.927   7.564   4.880
29408WAT     H288467   5.068   7.495   4.922
29409WAT      O88468   5.182   1.836   3.003
29409WAT     H188469   5.174   1.925   2.958
29409WAT     H288470   5.133   1.767   2.949
29410WAT      O88471   9.135   7.529   9.754
29410WAT     H188472   9.186   7.485   9.828
29410WAT     H288473   9.188   7.527   9.670
29411WAT      O88474   9.057   9.178   6.805
29411WAT     H188475   9.009   9.262   6.831
29411WAT     H288476   9.156   9.194   6.806
29412WAT      O88477   5.417   4.806   9.521
29412WAT     H188478   5.375   4.736   9.464
29412WAT     H288479   5.358   4.887   9.522
29413WAT      O88480   6.364   3.161   7.188
29413WAT     H188481   6.423   3.145   7.109
29413WAT     H288482   6.340   3.258   7.192
29414WAT      O88483   9.874   6.853   8.003
29414WAT     H188484   9.867   6.758   7.972
29414WAT     H288485   9.786   6.899   7.990
29415WAT      O88486   3.459   3.433   6.790
29415WAT     H188487   3.522   3.366   6.751
29415WAT     H288488   3.433   3.500   6.720
29416WAT      O88489   2.464   7.892   0.115
29416WAT     H188490   2.479   7.800   0.078
29416WAT     H288491   2.517   7.958   0.062
29417WAT      O88492   1.892   1.300   4.853
29417WAT     H188493   1.851   1.371   4.910
29417WAT     H288494   1.992   1.304   4.861
29418WAT      O88495   5.099   0.542   5.334
29418WAT     H188496   5.151   0.628   5.335
29418WAT     H288497   5.162   0.466   5.317
29419WAT      O88498   3.351   3.508   1.809
29419WAT     H188499   3.311   3.600   1.807
29419WAT     H288500   3.423   3.504   1.878
29420WAT      O88501   9.391   8.540   2.301
29420WAT     H188502   9.311   8.507   2.350
29420WAT     H288503   9.441   8.606   2.358
29421WAT      O88504   3.877   1.826   7.644
29421WAT     H188505   3.938   1.902   7.622
29421WAT     H288506   3.783   1.851   7.620
29422WAT      O88507   1.046   6.587   6.044
29422WAT     H188508   1.084   6.659   5.985
29422WAT     H288509   0.984   6.529   5.990
29423WAT      O88510   9.160   1.881   0.071
29423WAT     H188511   9.121   1.799   0.027
29423WAT     H288512   9.259   1.875   0.071
29424WAT      O88513   5.247   4.952   2.342
29424WAT     H188514   5.301   5.033   2.365
29424WAT     H288515   5.299   4.894   2.278
29425WAT      O88516   1.342   4.107   7.089
29425WAT     H188517   1.256   4.157   7.096
29425WAT     H288518   1.389   4.134   7.005
29426WAT      O88519   4.453   8.533   2.565
29426WAT     H188520   4.433   8.468   2.639
29426WAT     H288521   4.378   8.531   2.499
29427WAT      O88522   6.704   8.307   3.736
29427WAT     H188523   6.736   8.250   3.660
29427WAT     H288524   6.647   8.251   3.797
29428WAT      O88525   3.141   8.758   6.491
29428WAT     H188526   3.044   8.751   6.468
29428WAT     H288527   3.161   8.849   6.527
29429WAT      O88528   0.755   9.306   6.824
29429WAT     H188529   0.852   9.313   6.848
29429WAT     H288530   0.717   9.223   6.864
29430WAT      O88531   6.955   9.834   6.751
29430WAT     H188532   6.906   9.769   6.694
29430WAT     H288533   7.025   9.881   6.697
29431WAT      O88534   4.129   6.471   6.754
29431WAT     H188535   4.180   6.491   6.838
29431WAT     H288536   4.190   6.428   6.688
29432WAT      O88537   9.121   7.442   6.896
29432WAT     H188538   9.033   7.405   6.926
29432WAT     H288539   9.142   7.408   6.804
29433WAT      O88540   8.768   6.670   4.342
29433WAT     H188541   8.835   6.725   4.293
29433WAT     H288542   8.690   6.651   4.282
29434WAT      O88543   1.237   1.036   0.002
29434WAT     H188544   1.215   1.005   0.095
29434WAT     H288545   1.158   1.081  -0.038
29435WAT      O88546   2.344   7.904   9.058
29435WAT     H188547   2.248   7.927   9.074
29435WAT     H288548   2.351   7.807   9.033
29436WAT      O88549   7.866   9.317   5.494
29436WAT     H188550   7.798   9.247   5.516
29436WAT     H288551   7.934   9.278   5.431
29437WAT      O88552   9.043   1.016   7.867
29437WAT     H188553   9.142   1.004   7.860
29437WAT     H288554   9.023   1.093   7.928
29438WAT      O88555   4.452   9.315   4.673
29438WAT     H188556   4.453   9.414   4.661
29438WAT     H288557   4.503   9.271   4.599
29439WAT      O88558   7.615   7.553   7.693
29439WAT     H188559   7.699   7.608   7.685
29439WAT     H288560   7.605   7.496   7.611
29440WAT      O88561   0.616   6.688   3.305
29440WAT     H188562   0.643   6.596   3.332
29440WAT     H288563   0.519   6.702   3.327
29441WAT      O88564   2.110   4.735   3.423
29441WAT     H188565   2.196   4.737   3.371
29441WAT     H288566   2.097   4.823   3.468
29442WAT      O88567   0.057   8.189   9.069
29442WAT     H188568   0.112   8.213   8.990
29442WAT     H288569  -0.013   8.258   9.084
29443WAT      O88570   4.337   8.836   8.250
29443WAT     H188571   4.292   8.846   8.339
29443WAT     H288572   4.290   8.894   8.183
29444WAT      O88573   5.516   7.956   1.740
29444WAT     H188574   5.548   8.016   1.814
29444WAT     H288575   5.429   7.992   1.704
29445WAT      O88576   1.586   2.017   5.719
29445WAT     H188577   1.630   2.071   5.648
29445WAT     H288578   1.492   2.049   5.732
29446WAT      O88579   2.381   7.320   3.501
29446WAT     H188580   2.392   7.334   3.403
29446WAT     H288581   2.469   7.296   3.542
29447WAT      O88582   7.539   9.418   0.203
29447WAT     H188583   7.590   9.499   0.230
29447WAT     H288584   7.488   9.382   0.281
29448WAT      O88585   2.230   6.944   8.567
29448WAT     H188586   2.220   7.012   8.494
29448WAT     H288587   2.142   6.932   8.613
29449WAT      O88588   0.258   2.030   4.829
29449WAT     H188589   0.280   2.048   4.733
29449WAT     H288590   0.340   2.039   4.885
29450WAT      O88591   0.019   1.880   6.463
29450WAT     H188592   0.061   1.833   6.541
29450WAT     H288593  -0.072   1.913   6.489
29451WAT      O88594   3.033   7.795   9.483
29451WAT     H188595   3.074   7.717   9.529
29451WAT     H288596   2.963   7.764   9.419
29452WAT      O88597   1.408   2.838   9.704
29452WAT     H188598   1.418   2.745   9.670
29452WAT     H288599   1.475   2.854   9.777
29453WAT      O88600   0.708   7.556   7.064
29453WAT     H188601   0.739   7.620   6.993
29453WAT     H288602   0.740   7.464   7.042
29454WAT      O88603   6.842   1.222   4.939
29454WAT     H188604   6.880   1.153   5.000
29454WAT     H288605   6.839   1.186   4.846
29455WAT      O88606   7.088   1.196   8.017
29455WAT     H188607   7.180   1.226   8.044
29455WAT     H288608   7.075   1.214   7.920
29456WAT      O88609   9.280   8.999   7.484
29456WAT     H188610   9.339   8.970   7.559
29456WAT     H288611   9.207   9.057   7.519
29457WAT      O88612   8.116   4.083   3.117
29457WAT     H188613   8.150   4.160   3.063
29457WAT     H288614   8.044   4.115   3.178
29458WAT      O88615   3.163   6.144   8.624
29458WAT     H188616   3.073   6.101   8.631
29458WAT     H288617   3.179   6.200   8.705
29459WAT      O88618   1.980   7.734   6.377
29459WAT     H188619   1.965   7.678   6.295
29459WAT     H288620   1.996   7.829   6.350
29460WAT      O88621   8.146   4.597   6.567
29460WAT     H188622   8.170   4.538   6.644
29460WAT     H288623   8.202   4.575   6.488
29461WAT      O88624   0.748   1.341   5.689
29461WAT     H188625   0.763   1.300   5.599
29461WAT     H288626   0.819   1.409   5.707
29462WAT      O88627   2.187   8.401   2.644
29462WAT     H188628   2.209   8.491   2.682
29462WAT     H288629   2.254   8.334   2.676
29463WAT      O88630   6.994   5.245   1.243
29463WAT     H188631   7.071   5.250   1.180
29463WAT     H288632   7.020   5.192   1.324
29464WAT      O88633   7.950   6.719   6.831
29464WAT     H188634   7.904   6.768   6.756
29464WAT     H288635   7.968   6.625   6.803
29465WAT      O88636   1.395   7.753   6.507
29465WAT     H188637   1.483   7.707   6.501
29465WAT     H288638   1.396   7.818   6.583
29466WAT      O88639   6.040   4.153   7.038
29466WAT     H188640   6.129   4.188   7.069
29466WAT     H288641   6.052   4.060   7.003
29467WAT      O88642   2.205   2.649   5.419
29467WAT     H188643   2.162   2.734   5.449
29467WAT     H288644   2.303   2.664   5.407
29468WAT      O88645   7.687   8.344   9.115
29468WAT     H188646   7.615   8.389   9.169
29468WAT     H288647   7.771   8.340   9.168
29469WAT      O88648   8.057   1.472   9.076
29469WAT     H188649   8.035   1.389   9.025
29469WAT     H288650   7.975   1.530   9.081
29470WAT      O88651   0.364   2.344   1.770
29470WAT     H188652   0.419   2.368   1.690
29470WAT     H288653   0.267   2.350   1.748
29471WAT      O88654   6.430   2.025   0.646
29471WAT     H188655   6.480   2.022   0.559
29471WAT     H288656   6.375   1.941   0.655
29472WAT      O88657   2.748   0.132   5.548
29472WAT     H188658   2.680   0.062   5.526
29472WAT     H288659   2.827   0.122   5.487
29473WAT      O88660   9.231   5.250   1.332
29473WAT     H188661   9.291   5.171   1.347
29473WAT     H288662   9.180   5.268   1.415
29474WAT      O88663   0.745   6.698   4.622
29474WAT     H188664   0.842   6.724   4.622
29474WAT     H288665   0.700   6.740   4.543
29475WAT      O88666   2.471   0.836   1.595
29475WAT     H188667   2.413   0.785   1.659
29475WAT     H288668   2.451   0.806   1.502
29476WAT      O88669   8.660   7.409   6.087
29476WAT     H188670   8.595   7.334   6.089
29476WAT     H288671   8.612   7.496   6.082
29477WAT      O88672   3.441   5.540   7.823
29477WAT     H188673   3.349   5.575   7.803
29477WAT     H288674   3.438   5.441   7.828
29478WAT      O88675   1.434   1.784   1.866
29478WAT     H188676   1.461   1.689   1.851
29478WAT     H288677   1.335   1.789   1.880
29479WAT      O88678   4.714   1.090   2.574
29479WAT     H188679   4.755   1.032   2.645
29479WAT     H288680   4.615   1.095   2.588
29480WAT      O88681   8.915   4.264   8.898
29480WAT     H188682   8.890   4.264   8.995
29480WAT     H288683   9.014   4.254   8.890
29481WAT      O88684   3.461   0.927   8.934
29481WAT     H188685   3.487   0.938   8.838
29481WAT     H288686   3.543   0.924   8.991
29482WAT      O88687   3.961   0.942   8.923
29482WAT     H188688   3.890   0.872   8.934
29482WAT     H288689   3.918   1.031   8.912
29483WAT      O88690   9.827   6.587   7.664
29483WAT     H188691   9.807   6.509   7.606
29483WAT     H288692   9.776   6.667   7.632
29484WAT      O88693   2.231   2.320   4.219
29484WAT     H188694   2.165   2.373   4.166
29484WAT     H288695   2.209   2.223   4.210
29485WAT      O88696   7.014   8.440   6.257
29485WAT     H188697   6.961   8.521   6.232
29485WAT     H288698   6.953   8.361   6.260
29486WAT      O88699   2.177   7.735   7.348
29486WAT     H188700   2.228   7.686   7.420
29486WAT     H288701   2.221   7.822   7.330
29487WAT      O88702   8.507   2.164   1.705
29487WAT     H188703   8.523   2.190   1.610
29487WAT     H288704   8.569   2.213   1.765
29488WAT      O88705   4.617   0.322   9.439
29488WAT     H188706   4.541   0.333   9.376
29488WAT     H288707   4.687   0.390   9.420
29489WAT      O88708   7.270   6.567   5.746
29489WAT     H188709   7.283   6.603   5.839
29489WAT     H288710   7.173   6.556   5.728
29490WAT      O88711   7.840   1.616   1.914
29490WAT     H188712   7.929   1.620   1.868
29490WAT     H288713   7.770   1.656   1.854
29491WAT      O88714   3.137   7.575   9.594
29491WAT     H188715   3.197   7.522   9.534
29491WAT     H288716   3.086   7.512   9.653
29492WAT      O88717   0.004   2.920   3.105
29492WAT     H188718   0.002   2.853   3.179
29492WAT     H288719   0.057   3.000   3.133
29493WAT      O88720   7.770   6.528   3.977
29493WAT     H188721   7.838   6.514   4.049
29493WAT     H288722   7.759   6.444   3.924
29494WAT      O88723   4.955   6.302   7.589
29494WAT     H188724   5.034   6.248   7.615
29494WAT     H288725   4.974   6.352   7.504
29495WAT      O88726   7.827   7.413   9.706
29495WAT     H188727   7.869   7.452   9.624
29495WAT     H288728   7.746   7.465   9.731
29496WAT      O88729   4.585   8.464   7.046
29496WAT     H188730   4.504   8.510   7.082
29496WAT     H288731   4.559   8.406   6.968
29497WAT      O88732   7.336   4.823   3.479
29497WAT     H188733   7.278   4.795   3.556
29497WAT     H288734   7.291   4.898   3.431
29498WAT      O88735   1.653   3.453   9.715
29498WAT     H188736   1.562   3.466   9.753
29498WAT     H288737   1.715   3.523   9.752
29499WAT      O88738   1.934   6.703   0.723
29499WAT     H188739   1.838   6.676   0.719
29499WAT     H288740   1.959   6.721   0.818
29500WAT      O88741   9.829   2.615   2.850
29500WAT     H188742   9.834   2.714   2.836
29500WAT     H288743   9.812   2.596   2.947
29501WAT      O88744   4.543   0.102   0.407
29501WAT     H188745   4.517   0.193   0.440
29501WAT     H288746   4.603   0.058   0.474
29502WAT      O88747   9.031   1.314   8.070
29502WAT     H188748   9.111   1.279   8.119
29502WAT     H288749   8.953   1.253   8.085
29503WAT      O88750   8.291   3.336   4.144
29503WAT     H188751   8.297   3.421   4.091
29503WAT     H288752   8.213   3.282   4.111
29504WAT      O88753   2.023   6.282   6.580
29504WAT     H188754   2.066   6.300   6.669
29504WAT     H288755   1.950   6.215   6.590
29505WAT      O88756   4.716   6.297   8.652
29505WAT     H188757   4.707   6.220   8.588
29505WAT     H288758   4.680   6.270   8.742
29506WAT      O88759   6.987   7.251   0.540
29506WAT     H188760   7.032   7.322   0.593
29506WAT     H288761   7.002   7.267   0.442
29507WAT      O88762   0.499   1.267   7.907
29507WAT     H188763   0.525   1.251   7.811
29507WAT     H288764   0.407   1.231   7.922
29508WAT      O88765   4.293   2.165   9.152
29508WAT     H188766   4.212   2.127   9.107
29508WAT     H288767   4.351   2.208   9.084
29509WAT      O88768   9.231   9.308   5.561
29509WAT     H188769   9.177   9.225   5.575
29509WAT     H288770   9.276   9.304   5.472
29510WAT      O88771   4.615   8.534   3.165
29510WAT     H188772   4.578   8.567   3.252
29510WAT     H288773   4.701   8.485   3.181
29511WAT      O88774   1.814   7.493   5.190
29511WAT     H188775   1.738   7.544   5.229
29511WAT     H288776   1.785   7.400   5.169
29512WAT      O88777   6.597   2.453   8.486
29512WAT     H188778   6.649   2.452   8.571
29512WAT     H288779   6.526   2.383   8.489
29513WAT      O88780   9.465   7.183   3.773
29513WAT     H188781   9.496   7.135   3.855
29513WAT     H288782   9.515   7.148   3.693
29514WAT      O88783   8.467   0.811   4.657
29514WAT     H188784   8.534   0.769   4.719
29514WAT     H288785   8.376   0.776   4.678
29515WAT      O88786   8.448   1.914   8.050
29515WAT     H188787   8.357   1.892   8.084
29515WAT     H288788   8.461   2.013   8.049
29516WAT      O88789   1.638   5.147   5.948
29516WAT     H188790   1.600   5.058   5.924
29516WAT     H288791   1.618   5.167   6.043
29517WAT      O88792   8.292   7.762   8.946
29517WAT     H188793   8.312   7.858   8.962
29517WAT     H288794   8.198   7.742   8.974
29518WAT      O88795   9.580   5.000   4.461
29518WAT     H188796   9.639   4.997   4.380
29518WAT     H288797   9.621   4.943   4.533
29519WAT      O88798   2.319   4.272   5.389
29519WAT     H188799   2.288   4.332   5.315
29519WAT     H288800   2.365   4.327   5.459
29520WAT      O88801   9.185   0.206   2.096
29520WAT     H188802   9.125   0.132   2.124
29520WAT     H288803   9.276   0.170   2.075
29521WAT      O88804   3.537   5.047   5.570
29521WAT     H188805   3.618   5.089   5.611
29521WAT     H288806   3.552   4.949   5.560
29522WAT      O88807   3.210   6.672   5.356
29522WAT     H188808   3.157   6.589   5.371
29522WAT     H288809   3.165   6.749   5.402
29523WAT      O88810   0.764   3.150   9.597
29523WAT     H188811   0.691   3.154   9.529
29523WAT     H288812   0.827   3.226   9.582
29524WAT      O88813   3.918   7.375   8.425
29524WAT     H188814   3.948   7.371   8.520
29524WAT     H288815   3.901   7.471   8.400
29525WAT      O88816   6.595   3.075   0.501
29525WAT     H188817   6.571   3.034   0.413
29525WAT     H288818   6.680   3.127   0.491
29526WAT      O88819   3.108   3.615   7.357
29526WAT     H188820   3.082   3.616   7.453
29526WAT     H288821   3.166   3.695   7.337
29527WAT      O88822   9.719   2.418   4.041
29527WAT     H188823   9.625   2.382   4.033
29527WAT     H288824   9.744   2.422   4.137
29528WAT      O88825   4.663   3.069   2.387
29528WAT     H188826   4.740   3.108   2.437
29528WAT     H288827   4.674   2.969   2.380
29529WAT      O88828   3.475   5.998   7.724
29529WAT     H188829   3.499   6.093   7.741
29529WAT     H288830   3.534   5.938   7.777
29530WAT      O88831   3.483   9.636   0.951
29530WAT     H188832   3.416   9.590   0.893
29530WAT     H288833   3.536   9.567   1.002
29531WAT      O88834   7.671   9.292   8.067
29531WAT     H188835   7.647   9.365   8.003
29531WAT     H288836   7.735   9.229   8.023
29532WAT      O88837   2.738   8.334   3.203
29532WAT     H188838   2.757   8.326   3.301
29532WAT     H288839   2.825   8.333   3.153
29533WAT      O88840   6.070   0.267   7.023
29533WAT     H188841   6.086   0.294   6.928
29533WAT     H288842   6.028   0.176   7.025
29534WAT      O88843   5.169   0.915   3.373
29534WAT     H188844   5.140   1.003   3.337
29534WAT     H288845   5.104   0.844   3.345
29535WAT      O88846   8.035   0.711   7.377
29535WAT     H188847   8.050   0.702   7.278
29535WAT     H288848   8.065   0.801   7.407
29536WAT      O88849   1.644   2.799   0.643
29536WAT     H188850   1.580   2.801   0.566
29536WAT     H288851   1.597   2.826   0.727
29537WAT      O88852   8.379   8.654   5.448
29537WAT     H188853   8.294   8.602   5.437
29537WAT     H288854   8.409   8.649   5.543
29538WAT      O88855   5.456   0.330   6.716
29538WAT     H188856   5.526   0.286   6.661
29538WAT     H288857   5.401   0.391   6.659
29539WAT      O88858   5.992   3.011   2.287
29539WAT     H188859   6.066   3.034   2.224
29539WAT     H288860   5.972   2.913   2.281
29540WAT      O88861   4.977   8.793   3.487
29540WAT     H188862   5.056   8.852   3.470
29540WAT     H288863   4.950   8.800   3.583
29541WAT      O88864   5.068   0.254   5.190
29541WAT     H188865   4.999   0.316   5.229
29541WAT     H288866   5.158   0.277   5.227
29542WAT      O88867   5.979   1.149   0.715
29542WAT     H188868   6.051   1.154   0.646
29542WAT     H288869   5.891   1.129   0.671
29543WAT      O88870   8.900   0.974   6.878
29543WAT     H188871   8.858   1.049   6.930
29543WAT     H288872   8.846   0.955   6.796
29544WAT      O88873   6.974   1.545   2.880
29544WAT     H188874   6.967   1.551   2.980
29544WAT     H288875   7.026   1.622   2.845
29545WAT      O88876   0.942   4.160   6.046
29545WAT     H188877   0.906   4.092   6.111
29545WAT     H288878   1.039   4.174   6.062
29546WAT      O88879   0.303   9.498   1.770
29546WAT     H188880   0.376   9.480   1.835
29546WAT     H288881   0.216   9.507   1.819
29547WAT      O88882   8.845   8.026   3.480
29547WAT     H188883   8.770   7.979   3.434
29547WAT     H288884   8.850   8.121   3.447
29548WAT      O88885   3.639   7.442   2.026
29548WAT     H188886   3.660   7.381   2.103
29548WAT     H288887   3.655   7.393   1.940
29549WAT      O88888   3.698   4.016   4.648
29549WAT     H188889   3.706   4.057   4.739
29549WAT     H288890   3.601   4.005   4.625
29550WAT      O88891   6.163   8.104   2.580
29550WAT     H188892   6.190   8.169   2.652
29550WAT     H288893   6.065   8.085   2.589
29551WAT      O88894   2.764   6.537   3.922
29551WAT     H188895   2.750   6.605   3.851
29551WAT     H288896   2.780   6.447   3.880
29552WAT      O88897   0.963   1.666   4.617
29552WAT     H188898   1.060   1.643   4.615
29552WAT     H288899   0.948   1.753   4.571
29553WAT      O88900   3.271   4.435   0.025
29553WAT     H188901   3.303   4.486  -0.055
29553WAT     H288902   3.301   4.340   0.017
29554WAT      O88903   0.311   0.187   0.607
29554WAT     H188904   0.370   0.138   0.543
29554WAT     H288905   0.252   0.122   0.655
29555WAT      O88906   5.583   1.855   6.708
29555WAT     H188907   5.546   1.823   6.621
29555WAT     H288908   5.683   1.847   6.706
29556WAT      O88909   8.407   4.608   5.656
29556WAT     H188910   8.330   4.623   5.594
29556WAT     H288911   8.474   4.681   5.644
29557WAT      O88912   7.634   6.406   6.630
29557WAT     H188913   7.622   6.307   6.631
29557WAT     H288914   7.657   6.436   6.538
29558WAT      O88915   9.604   8.736   0.601
29558WAT     H188916   9.544   8.813   0.581
29558WAT     H288917   9.640   8.744   0.694
29559WAT      O88918   0.483   4.330   0.252
29559WAT     H188919   0.556   4.317   0.319
29559WAT     H288920   0.411   4.264   0.268
29560WAT      O88921   7.678   9.791   1.482
29560WAT     H188922   7.717   9.873   1.524
29560WAT     H288923   7.648   9.813   1.389
29561WAT      O88924   9.308   4.396   4.705
29561WAT     H188925   9.231   4.341   4.671
29561WAT     H288926   9.365   4.424   4.628
29562WAT      O88927   7.050   3.890   8.625
29562WAT     H188928   7.119   3.861   8.559
29562WAT     H288929   6.968   3.833   8.614
29563WAT      O88930   7.627   6.470   8.618
29563WAT     H188931   7.668   6.417   8.544
29563WAT     H288932   7.696   6.489   8.688
29564WAT      O88933   1.430   3.706   3.612
29564WAT     H188934   1.478   3.733   3.528
29564WAT     H288935   1.467   3.758   3.689
29565WAT      O88936   5.752   2.589   0.519
29565WAT     H188937   5.759   2.687   0.537
29565WAT     H288938   5.663   2.556   0.551
29566WAT      O88939   1.629   7.381   2.069
29566WAT     H188940   1.565   7.398   1.994
29566WAT     H288941   1.612   7.290   2.107
29567WAT      O88942   7.095   4.995   5.557
29567WAT     H188943   7.176   4.944   5.587
29567WAT     H288944   7.123   5.074   5.504
29568WAT      O88945   7.315   3.041   3.287
29568WAT     H188946   7.407   3.030   3.250
29568WAT     H288947   7.318   3.033   3.387
29569WAT      O88948   4.268   8.318   0.792
29569WAT     H188949   4.305   8.409   0.813
29569WAT     H288950   4.207   8.290   0.866
29570WAT      O88951   5.686   9.170   8.850
29570WAT     H188952   5.777   9.195   8.884
29570WAT     H288953   5.689   9.079   8.809
29571WAT      O88954   9.113   3.551   9.788
29571WAT     H188955   9.119   3.633   9.845
29571WAT     H288956   9.134   3.471   9.844
29572WAT      O88957   1.670   0.515   0.774
29572WAT     H188958   1.599   0.584   0.771
29572WAT     H288959   1.725   0.526   0.857
29573WAT      O88960   3.153   7.173   3.778
29573WAT     H188961   3.183   7.166   3.682
29573WAT     H288962   3.058   7.141   3.785
29574WAT      O88963   6.433   1.009   6.225
29574WAT     H188964   6.374   1.084   6.255
29574WAT     H288965   6.509   0.998   6.289
29575WAT      O88966   5.489   2.283   5.151
29575WAT     H188967   5.474   2.357   5.085
29575WAT     H288968   5.401   2.257   5.192
29576WAT      O88969   6.982   8.040   4.449
29576WAT     H188970   6.980   8.095   4.533
29576WAT     H288971   6.938   7.952   4.466
29577WAT      O88972   1.646   1.618   7.222
29577WAT     H188973   1.550   1.604   7.244
29577WAT     H288974   1.702   1.560   7.282
29578WAT      O88975   4.931   4.212   2.681
29578WAT     H188976   4.867   4.205   2.604
29578WAT     H288977   4.898   4.281   2.745
29579WAT      O88978   7.259   5.501   6.224
29579WAT     H188979   7.332   5.557   6.183
29579WAT     H288980   7.300   5.425   6.274
29580WAT      O88981   9.073   1.039   4.231
29580WAT     H188982   9.064   1.020   4.329
29580WAT     H288983   9.008   0.982   4.180
29581WAT      O88984   6.330   4.225   3.878
29581WAT     H188985   6.272   4.152   3.914
29581WAT     H288986   6.289   4.263   3.795
29582WAT      O88987   8.726   3.102   8.801
29582WAT     H188988   8.709   3.089   8.703
29582WAT     H288989   8.660   3.049   8.853
29583WAT      O88990   5.782   3.356   1.947
29583WAT     H188991   5.752   3.447   1.974
29583WAT     H288992   5.803   3.355   1.849
29584WAT      O88993   8.269   3.014   1.510
29584WAT     H188994   8.357   3.063   1.511
29584WAT     H288995   8.263   2.955   1.590
29585WAT      O88996   1.230   3.010   8.323
29585WAT     H188997   1.244   3.100   8.282
29585WAT     H288998   1.270   3.009   8.415
29586WAT      O88999   0.742   2.129   0.260
29586WAT     H189000   0.821   2.170   0.215
29586WAT     H289001   0.747   2.145   0.359
29587WAT      O89002   6.138   6.174   9.708
29587WAT     H189003   6.077   6.185   9.630
29587WAT     H289004   6.185   6.087   9.703
29588WAT      O89005   2.719   0.881   6.319
29588WAT     H189006   2.638   0.829   6.348
29588WAT     H289007   2.801   0.825   6.333
29589WAT      O89008   9.485   3.151   8.654
29589WAT     H189009   9.570   3.188   8.692
29589WAT     H289010   9.432   3.225   8.614
29590WAT      O89011   6.244   0.046   5.786
29590WAT     H189012   6.310   0.006   5.722
29590WAT     H289013   6.168  -0.017   5.800
29591WAT      O89014   1.984   8.131   4.554
29591WAT     H189015   1.908   8.194   4.534
29591WAT     H289016   1.955   8.065   4.623
29592WAT      O89017   1.520   8.125   8.883
29592WAT     H189018   1.447   8.068   8.920
29592WAT     H289019   1.586   8.145   8.956
29593WAT      O89020   2.328   3.131   7.388
29593WAT     H189021   2.331   3.213   7.331
29593WAT     H289022   2.400   3.136   7.457
29594WAT      O89023   5.464   3.402   9.440
29594WAT     H189024   5.437   3.494   9.469
29594WAT     H289025   5.388   3.359   9.392
29595WAT      O89026   2.873   3.385   2.977
29595WAT     H189027   2.930   3.455   2.934
29595WAT     H289028   2.777   3.409   2.965
29596WAT      O89029   2.471   2.387   3.867
29596WAT     H189030   2.388   2.443   3.864
29596WAT     H289031   2.530   2.411   3.790
29597WAT      O89032   7.717   9.243   2.836
29597WAT     H189033   7.754   9.332   2.864
29597WAT     H289034   7.753   9.172   2.897
29598WAT      O89035   8.505   7.882   3.928
29598WAT     H189036   8.569   7.838   3.991
29598WAT     H289037   8.453   7.812   3.879
29599WAT      O89038   4.943   2.462   2.164
29599WAT     H189039   4.903   2.457   2.072
29599WAT     H289040   5.012   2.389   2.174
29600WAT      O89041   3.554   3.407   3.306
29600WAT     H189042   3.586   3.319   3.339
29600WAT     H289043   3.473   3.435   3.358
29601WAT      O89044   5.502   6.328   1.281
29601WAT     H189045   5.567   6.260   1.247
29601WAT     H289046   5.545   6.379   1.356
29602WAT      O89047   6.391   4.525   8.411
29602WAT     H189048   6.350   4.436   8.389
29602WAT     H289049   6.474   4.537   8.358
29603WAT      O89050   0.678   4.288   5.183
29603WAT     H189051   0.593   4.332   5.155
29603WAT     H289052   0.756   4.339   5.147
29604WAT      O89053   5.342   9.461   3.814
29604WAT     H189054   5.257   9.438   3.861
29604WAT     H289055   5.326   9.536   3.750
29605WAT      O89056   2.231   7.676   9.308
29605WAT     H189057   2.173   7.620   9.249
29605WAT     H289058   2.174   7.729   9.371
29606WAT      O89059   0.423   2.861   9.890
29606WAT     H189060   0.520   2.846   9.874
29606WAT     H289061   0.388   2.927   9.822
29607WAT      O89062   5.579   5.940   9.017
29607WAT     H189063   5.571   5.916   9.114
29607WAT     H289064   5.534   6.027   9.000
29608WAT      O89065   6.119   2.816   8.672
29608WAT     H189066   6.172   2.901   8.667
29608WAT     H289067   6.071   2.812   8.759
29609WAT      O89068   5.338   8.250   6.673
29609WAT     H189069   5.318   8.324   6.736
29609WAT     H289070   5.270   8.178   6.683
29610WAT      O89071   4.266   9.101   8.952
29610WAT     H189072   4.268   9.001   8.948
29610WAT     H289073   4.172   9.133   8.949
29611WAT      O89074   5.751   8.977   6.337
29611WAT     H189075   5.796   8.934   6.415
29611WAT     H289076   5.684   8.913   6.298
29612WAT      O89077   7.515   3.839   4.600
29612WAT     H189078   7.530   3.821   4.697
29612WAT     H289079   7.599   3.874   4.558
29613WAT      O89080   9.630   9.328   4.309
29613WAT     H189081   9.635   9.244   4.362
29613WAT     H289082   9.659   9.405   4.365
29614WAT      O89083   4.586   7.581   9.354
29614WAT     H189084   4.648   7.526   9.299
29614WAT     H289085   4.555   7.528   9.433
29615WAT      O89086   6.018   4.020   5.992
29615WAT     H189087   6.038   3.937   5.940
29615WAT     H289088   5.939   4.066   5.952
29616WAT      O89089   6.430   7.884   1.923
29616WAT     H189090   6.527   7.878   1.900
29616WAT     H289091   6.377   7.896   1.839
29617WAT      O89092   2.369   2.645   5.044
29617WAT     H189093   2.335   2.573   4.983
29617WAT     H289094   2.415   2.715   4.989
29618WAT      O89095   6.775   9.555   4.260
29618WAT     H189096   6.738   9.648   4.251
29618WAT     H289097   6.859   9.548   4.206
29619WAT      O89098   1.491   7.329   1.728
29619WAT     H189099   1.463   7.418   1.763
29619WAT     H289100   1.436   7.258   1.772
29620WAT      O89101   9.621   3.710   3.762
29620WAT     H189102   9.664   3.680   3.847
29620WAT     H289103   9.563   3.789   3.780
29621WAT      O89104   0.116   2.309   5.416
29621WAT     H189105   0.155   2.327   5.325
29621WAT     H289106   0.170   2.239   5.462
29622WAT      O89107   6.624   7.215   7.157
29622WAT     H189108   6.722   7.224   7.144
29622WAT     H289109   6.577   7.232   7.070
29623WAT      O89110   2.479   5.922   2.273
29623WAT     H189111   2.498   5.897   2.178
29623WAT     H289112   2.439   6.014   2.275
29624WAT      O89113   9.275   3.727   7.311
29624WAT     H189114   9.262   3.631   7.338
29624WAT     H289115   9.292   3.732   7.213
29625WAT      O89116   7.413   7.526   1.162
29625WAT     H189117   7.397   7.435   1.198
29625WAT     H289118   7.508   7.553   1.180
29626WAT      O89119   4.422   7.596   9.757
29626WAT     H189120   4.477   7.679   9.752
29626WAT     H289121   4.402   7.564   9.664
29627WAT      O89122   3.531   9.169   7.307
29627WAT     H189123   3.464   9.145   7.377
29627WAT     H289124   3.566   9.085   7.265
29628WAT      O89125   1.668   0.385   2.757
29628WAT     H189126   1.603   0.453   2.791
29628WAT     H289127   1.655   0.299   2.807
29629WAT      O89128   7.982   9.494   7.062
29629WAT     H189129   7.907   9.436   7.033
29629WAT     H289130   7.948   9.563   7.126
29630WAT      O89131   5.020   4.754   0.958
29630WAT     H189132   4.979   4.840   0.987
29630WAT     H289133   5.015   4.746   0.858
29631WAT      O89134   8.728   1.632   8.258
29631WAT     H189135   8.660   1.648   8.186
29631WAT     H289136   8.779   1.717   8.273
29632WAT      O89137   5.097   1.728   7.368
29632WAT     H189138   5.111   1.674   7.450
29632WAT     H289139   5.184   1.743   7.321
29633WAT      O89140   5.648   0.683   5.526
29633WAT     H189141   5.746   0.665   5.527
29633WAT     H289142   5.605   0.638   5.605
29634WAT      O89143   8.665   7.917   9.602
29634WAT     H189144   8.633   7.995   9.549
29634WAT     H289145   8.687   7.842   9.541
29635WAT      O89146   0.889   7.341   1.292
29635WAT     H189147   0.841   7.412   1.240
29635WAT     H289148   0.976   7.377   1.326
29636WAT      O89149   1.734   5.541   1.595
29636WAT     H189150   1.725   5.442   1.601
29636WAT     H289151   1.644   5.584   1.597
29637WAT      O89152   1.650   2.226   0.028
29637WAT     H189153   1.725   2.169  -0.007
29637WAT     H289154   1.585   2.169   0.078
29638WAT      O89155   6.214   6.786   0.897
29638WAT     H189156   6.298   6.759   0.943
29638WAT     H289157   6.215   6.751   0.803
29639WAT      O89158   8.931   5.319   6.908
29639WAT     H189159   9.028   5.298   6.909
29639WAT     H289160   8.880   5.249   6.957
29640WAT      O89161   8.429   6.770   4.633
29640WAT     H189162   8.338   6.770   4.591
29640WAT     H289163   8.423   6.733   4.726
29641WAT      O89164   8.519   5.312   4.138
29641WAT     H189165   8.507   5.361   4.052
29641WAT     H289166   8.430   5.293   4.179
29642WAT      O89167   7.001   4.375   8.841
29642WAT     H189168   7.053   4.440   8.895
29642WAT     H289169   7.008   4.398   8.744
29643WAT      O89170   8.738   5.094   4.379
29643WAT     H189171   8.820   5.073   4.326
29643WAT     H289172   8.659   5.051   4.336
29644WAT      O89173   3.925   2.180   9.482
29644WAT     H189174   3.960   2.268   9.449
29644WAT     H289175   3.842   2.157   9.432
29645WAT      O89176   8.817   2.636   2.696
29645WAT     H189177   8.801   2.552   2.747
29645WAT     H289178   8.913   2.641   2.670
29646WAT      O89179   9.308   7.732   2.735
29646WAT     H189180   9.354   7.646   2.757
29646WAT     H289181   9.232   7.747   2.798
29647WAT      O89182   7.701   5.615   0.007
29647WAT     H189183   7.657   5.704  -0.008
29647WAT     H289184   7.637   5.554   0.053
29648WAT      O89185   6.234   6.412   0.411
29648WAT     H189186   6.142   6.426   0.447
29648WAT     H289187   6.299   6.409   0.487
29649WAT      O89188   2.240   6.631   2.119
29649WAT     H189189   2.177   6.554   2.127
29649WAT     H289190   2.331   6.597   2.096
29650WAT      O89191   5.110   5.887   7.586
29650WAT     H189192   5.159   5.812   7.542
29650WAT     H289193   5.027   5.908   7.534
29651WAT      O89194   3.805   9.201   3.010
29651WAT     H189195   3.900   9.169   3.017
29651WAT     H289196   3.767   9.174   2.922
29652WAT      O89197   1.724   4.709   5.185
29652WAT     H189198   1.781   4.694   5.265
29652WAT     H289199   1.780   4.744   5.110
29653WAT      O89200   0.693   2.880   8.386
29653WAT     H189201   0.776   2.860   8.437
29653WAT     H289202   0.716   2.907   8.293
29654WAT      O89203   3.459   4.977   0.917
29654WAT     H189204   3.406   5.055   0.884
29654WAT     H289205   3.556   5.004   0.925
29655WAT      O89206   9.431   6.071   4.606
29655WAT     H189207   9.352   6.073   4.668
29655WAT     H289208   9.508   6.025   4.652
29656WAT      O89209   5.953   7.462   9.020
29656WAT     H189210   5.854   7.451   9.014
29656WAT     H289211   5.997   7.415   8.944
29657WAT      O89212   0.234   2.058   8.351
29657WAT     H189213   0.328   2.090   8.358
29657WAT     H289214   0.229   1.985   8.283
29658WAT      O89215   5.145   7.393   3.234
29658WAT     H189216   5.114   7.306   3.273
29658WAT     H289217   5.097   7.469   3.278
29659WAT      O89218   1.801   6.023   2.571
29659WAT     H189219   1.760   5.969   2.645
29659WAT     H289220   1.898   5.999   2.563
29660WAT      O89221   4.556   6.695   3.982
29660WAT     H189222   4.525   6.753   4.057
29660WAT     H289223   4.615   6.748   3.921
29661WAT      O89224   1.651   3.386   7.726
29661WAT     H189225   1.618   3.352   7.814
29661WAT     H289226   1.751   3.375   7.721
29662WAT      O89227   6.400   7.469   1.469
29662WAT     H189228   6.402   7.550   1.527
29662WAT     H289229   6.446   7.393   1.515
29663WAT      O89230   6.931   8.240   5.949
29663WAT     H189231   6.904   8.336   5.959
29663WAT     H289232   6.887   8.201   5.868
29664WAT      O89233   0.313   0.609   3.059
29664WAT     H189234   0.324   0.513   3.032
29664WAT     H289235   0.352   0.622   3.150
29665WAT      O89236   2.306   3.318   6.538
29665WAT     H189237   2.326   3.322   6.636
29665WAT     H289238   2.390   3.336   6.487
29666WAT      O89239   0.492   6.895   8.362
29666WAT     H189240   0.578   6.853   8.391
29666WAT     H289241   0.499   6.994   8.374
29667WAT      O89242   0.186   2.009   0.182
29667WAT     H189243   0.284   2.031   0.175
29667WAT     H289244   0.169   1.920   0.139
29668WAT      O89245   1.033   1.170   2.982
29668WAT     H189246   0.999   1.146   3.073
29668WAT     H289247   1.067   1.088   2.936
29669WAT      O89248   3.231   6.901   1.880
29669WAT     H189249   3.270   6.993   1.868
29669WAT     H289250   3.228   6.854   1.792
29670WAT      O89251   1.852   6.193   9.715
29670WAT     H189252   1.830   6.262   9.784
29670WAT     H289253   1.938   6.218   9.669
29671WAT      O89254   8.916   0.168   3.971
29671WAT     H189255   8.973   0.125   3.902
29671WAT     H289256   8.831   0.201   3.929
29672WAT      O89257   6.693   3.849   6.156
29672WAT     H189258   6.693   3.882   6.061
29672WAT     H289259   6.784   3.858   6.195
29673WAT      O89260   1.585   3.771   2.410
29673WAT     H189261   1.678   3.760   2.445
29673WAT     H289262   1.524   3.707   2.458
29674WAT      O89263   0.727   4.983   7.430
29674WAT     H189264   0.808   4.929   7.453
29674WAT     H289265   0.701   5.039   7.509
29675WAT      O89266   1.132   5.411   7.251
29675WAT     H189267   1.069   5.376   7.319
29675WAT     H289268   1.169   5.335   7.197
29676WAT      O89269   5.992   2.712   2.301
29676WAT     H189270   5.900   2.712   2.340
29676WAT     H289271   6.031   2.620   2.307
29677WAT      O89272   6.560   1.835   8.213
29677WAT     H189273   6.625   1.824   8.288
29677WAT     H289274   6.467   1.833   8.249
29678WAT      O89275   8.319   2.182   1.898
29678WAT     H189276   8.396   2.168   1.835
29678WAT     H289277   8.236   2.146   1.856
29679WAT      O89278   5.617   7.069   1.195
29679WAT     H189279   5.573   7.106   1.113
29679WAT     H289280   5.562   7.091   1.275
29680WAT      O89281   6.232   1.549   3.221
29680WAT     H189282   6.155   1.544   3.157
29680WAT     H289283   6.308   1.495   3.187
29681WAT      O89284   0.039   4.494   7.911
29681WAT     H189285   0.106   4.535   7.973
29681WAT     H289286   0.038   4.395   7.924
29682WAT      O89287   4.545   4.509   5.747
29682WAT     H189288   4.567   4.453   5.827
29682WAT     H289289   4.469   4.570   5.769
29683WAT      O89290   3.817   4.419   0.616
29683WAT     H189291   3.826   4.478   0.696
29683WAT     H289292   3.772   4.469   0.542
29684WAT      O89293   1.814   7.734   7.089
29684WAT     H189294   1.867   7.681   7.156
29684WAT     H289295   1.775   7.672   7.021
29685WAT      O89296   3.660   6.980   2.553
29685WAT     H189297   3.689   6.944   2.464
29685WAT     H289298   3.719   6.944   2.625
29686WAT      O89299   7.772   1.013   5.073
29686WAT     H189300   7.853   1.022   5.131
29686WAT     H289301   7.792   1.047   4.981
29687WAT      O89302   6.347   5.432   4.238
29687WAT     H189303   6.371   5.517   4.189
29687WAT     H289304   6.352   5.355   4.175
29688WAT      O89305   7.263   1.858   8.811
29688WAT     H189306   7.246   1.847   8.909
29688WAT     H289307   7.328   1.788   8.781
29689WAT      O89308   2.966   0.202   8.328
29689WAT     H189309   3.032   0.261   8.375
29689WAT     H289310   2.875   0.219   8.365
29690WAT      O89311   7.068   7.676   6.908
29690WAT     H189312   6.984   7.653   6.860
29690WAT     H289313   7.146   7.634   6.862
29691WAT      O89314   7.073   9.172   9.334
29691WAT     H189315   7.104   9.080   9.359
29691WAT     H289316   7.124   9.240   9.387
29692WAT      O89317   2.598   0.867   2.663
29692WAT     H189318   2.566   0.784   2.618
29692WAT     H289319   2.543   0.945   2.634
29693WAT      O89320   2.622   9.548   8.790
29693WAT     H189321   2.590   9.457   8.767
29693WAT     H289322   2.544   9.608   8.808
29694WAT      O89323   2.885   4.271   6.945
29694WAT     H189324   2.818   4.337   6.911
29694WAT     H289325   2.837   4.190   6.978
29695WAT      O89326   6.631   7.797   2.347
29695WAT     H189327   6.651   7.802   2.444
29695WAT     H289328   6.540   7.756   2.334
29696WAT      O89329   4.308   3.106   9.472
29696WAT     H189330   4.324   3.205   9.480
29696WAT     H289331   4.340   3.074   9.383
29697WAT      O89332   4.803   3.538   5.534
29697WAT     H189333   4.730   3.503   5.593
29697WAT     H289334   4.892   3.508   5.569
29698WAT      O89335   8.220   7.851   3.938
29698WAT     H189336   8.189   7.933   3.985
29698WAT     H289337   8.153   7.778   3.949
29699WAT      O89338   7.987   6.153   8.926
29699WAT     H189339   8.021   6.245   8.944
29699WAT     H289340   8.018   6.092   8.999
29700WAT      O89341   9.109   1.106   5.398
29700WAT     H189342   9.134   1.143   5.308
29700WAT     H289343   9.032   1.157   5.434
29701WAT      O89344   7.565   9.160   6.070
29701WAT     H189345   7.473   9.195   6.051
29701WAT     H289346   7.632   9.213   6.020
29702WAT      O89347   5.389   0.672   1.506
29702WAT     H189348   5.460   0.652   1.573
29702WAT     H289349   5.420   0.745   1.445
29703WAT      O89350   0.495   7.079   6.697
29703WAT     H189351   0.471   7.006   6.761
29703WAT     H289352   0.449   7.063   6.610
29704WAT      O89353   9.739   2.955   5.915
29704WAT     H189354   9.777   2.865   5.939
29704WAT     H289355   9.649   2.965   5.958
29705WAT      O89356   4.571   2.046   3.908
29705WAT     H189357   4.592   1.968   3.967
29705WAT     H289358   4.503   2.018   3.840
29706WAT      O89359   2.922   2.532   5.739
29706WAT     H189360   2.911   2.618   5.790
29706WAT     H289361   2.848   2.469   5.763
29707WAT      O89362   7.139   4.694   6.678
29707WAT     H189363   7.121   4.749   6.759
29707WAT     H289364   7.166   4.753   6.603
29708WAT      O89365   4.504   1.882   8.431
29708WAT     H189366   4.581   1.946   8.435
29708WAT     H289367   4.421   1.930   8.405
29709WAT      O89368   1.512   1.457   6.818
29709WAT     H189369   1.534   1.391   6.890
29709WAT     H289370   1.498   1.547   6.860
29710WAT      O89371   0.912   9.328   0.400
29710WAT     H189372   0.979   9.346   0.471
29710WAT     H289373   0.835   9.277   0.438
29711WAT      O89374   9.049   5.766   2.571
29711WAT     H189375   9.133   5.725   2.607
29711WAT     H289376   9.067   5.860   2.543
29712WAT      O89377   6.423   0.194   2.917
29712WAT     H189378   6.476   0.273   2.948
29712WAT     H289379   6.332   0.224   2.891
29713WAT      O89380   5.355   3.859   6.889
29713WAT     H189381   5.282   3.895   6.831
29713WAT     H289382   5.418   3.805   6.833
29714WAT      O89383   8.947   0.730   2.063
29714WAT     H189384   9.036   0.685   2.066
29714WAT     H289385   8.957   0.827   2.088
29715WAT      O89386   1.070   1.943   0.767
29715WAT     H189387   1.120   1.856   0.766
29715WAT     H289388   1.131   2.016   0.735
29716WAT      O89389   3.311   4.863   4.466
29716WAT     H189390   3.294   4.957   4.436
29716WAT     H289391   3.387   4.861   4.531
29717WAT      O89392   7.558   5.391   7.385
29717WAT     H189393   7.468   5.435   7.388
29717WAT     H289394   7.583   5.358   7.476
29718WAT      O89395   7.935   3.525   2.995
29718WAT     H189396   8.011   3.552   3.054
29718WAT     H289397   7.860   3.489   3.050
29719WAT      O89398   4.711   4.815   0.246
29719WAT     H189399   4.737   4.745   0.313
29719WAT     H289400   4.739   4.785   0.155
29720WAT      O89401   6.634   3.539   7.463
29720WAT     H189402   6.716   3.597   7.465
29720WAT     H289403   6.644   3.470   7.391
29721WAT      O89404   0.938   8.188   1.342
29721WAT     H189405   0.860   8.186   1.404
29721WAT     H289406   1.022   8.201   1.395
29722WAT      O89407   5.664   7.187   3.237
29722WAT     H189408   5.684   7.095   3.272
29722WAT     H289409   5.638   7.246   3.313
29723WAT      O89410   5.180   1.648   5.262
29723WAT     H189411   5.093   1.610   5.294
29723WAT     H289412   5.249   1.637   5.333
29724WAT      O89413   0.950   2.765   7.906
29724WAT     H189414   0.961   2.737   8.002
29724WAT     H289415   1.034   2.744   7.856
29725WAT      O89416   6.121   6.786   9.062
29725WAT     H189417   6.077   6.697   9.071
29725WAT     H289418   6.207   6.776   9.013
29726WAT      O89419   3.994   1.316   2.092
29726WAT     H189420   3.964   1.223   2.113
29726WAT     H289421   3.962   1.340   2.000
29727WAT      O89422   1.595   9.095   1.071
29727WAT     H189423   1.676   9.039   1.053
29727WAT     H289424   1.623   9.187   1.099
29728WAT      O89425   1.338   7.132   1.828
29728WAT     H189426   1.291   7.180   1.902
29728WAT     H289427   1.347   7.036   1.852
29729WAT      O89428   8.646   3.326   9.676
29729WAT     H189429   8.567   3.296   9.730
29729WAT     H289430   8.705   3.383   9.733
29730WAT      O89431   6.922   7.887   8.737
29730WAT     H189432   6.981   7.810   8.759
29730WAT     H289433   6.954   7.968   8.786
29731WAT      O89434   0.868   8.793   9.565
29731WAT     H189435   0.951   8.739   9.550
29731WAT     H289436   0.788   8.736   9.552
29732WAT      O89437   3.539   6.707   7.217
29732WAT     H189438   3.629   6.703   7.175
29732WAT     H289439   3.482   6.773   7.168
29733WAT      O89440   4.579   4.450   2.604
29733WAT     H189441   4.603   4.542   2.572
29733WAT     H289442   4.625   4.382   2.547
29734WAT      O89443   4.109   3.140   2.799
29734WAT     H189444   4.071   3.102   2.883
29734WAT     H289445   4.091   3.238   2.796
29735WAT      O89446   2.237   5.224   3.703
29735WAT     H189447   2.264   5.173   3.784
29735WAT     H289448   2.139   5.212   3.686
29736WAT      O89449   1.265   8.095   5.101
29736WAT     H189450   1.223   8.159   5.037
29736WAT     H289451   1.247   8.001   5.071
29737WAT      O89452   0.967   5.320   1.736
29737WAT     H189453   0.891   5.272   1.693
29737WAT     H289454   1.052   5.271   1.717
29738WAT      O89455   4.801   3.791   9.374
29738WAT     H189456   4.777   3.719   9.309
29738WAT     H289457   4.745   3.782   9.457
29739WAT      O89458   8.785   2.274   4.011
29739WAT     H189459   8.836   2.319   3.938
29739WAT     H289460   8.771   2.338   4.087
29740WAT      O89461   9.419   7.467   3.792
29740WAT     H189462   9.436   7.371   3.814
29740WAT     H289463   9.383   7.514   3.872
29741WAT      O89464   3.016   4.528   1.011
29741WAT     H189465   2.928   4.511   0.966
29741WAT     H289466   3.046   4.444   1.056
29742WAT      O89467   5.857   4.979   8.481
29742WAT     H189468   5.820   4.886   8.480
29742WAT     H289469   5.791   5.041   8.523
29743WAT      O89470   2.722   7.617   9.573
29743WAT     H189471   2.638   7.651   9.531
29743WAT     H289472   2.764   7.549   9.512
29744WAT      O89473   5.105   5.354   6.798
29744WAT     H189474   5.111   5.305   6.885
29744WAT     H289475   5.195   5.391   6.774
29745WAT      O89476   5.233   7.843   7.634
29745WAT     H189477   5.329   7.868   7.645
29745WAT     H289478   5.177   7.926   7.633
29746WAT      O89479   7.639   7.794   9.321
29746WAT     H189480   7.584   7.723   9.363
29746WAT     H289481   7.607   7.884   9.350
29747WAT      O89482   7.865   4.355   1.496
29747WAT     H189483   7.915   4.392   1.417
29747WAT     H289484   7.767   4.353   1.475
29748WAT      O89485   9.209   4.463   0.809
29748WAT     H189486   9.262   4.478   0.892
29748WAT     H289487   9.255   4.504   0.731
29749WAT      O89488   0.564   8.273   4.261
29749WAT     H189489   0.604   8.205   4.200
29749WAT     H289490   0.473   8.243   4.289
29750WAT      O89491   7.582   1.630   5.612
29750WAT     H189492   7.550   1.721   5.588
29750WAT     H289493   7.589   1.574   5.529
29751WAT      O89494   6.122   4.429   5.311
29751WAT     H189495   6.050   4.359   5.312
29751WAT     H289496   6.189   4.408   5.382
29752WAT      O89497   4.214   5.679   5.950
29752WAT     H189498   4.302   5.713   5.981
29752WAT     H289499   4.187   5.601   6.005
29753WAT      O89500   7.997   9.047   7.307
29753WAT     H189501   8.093   9.045   7.336
29753WAT     H289502   7.939   9.025   7.386
29754WAT      O89503   2.679   6.216   8.026
29754WAT     H189504   2.657   6.133   7.975
29754WAT     H289505   2.775   6.239   8.013
29755WAT      O89506   2.279   6.288   8.954
29755WAT     H189507   2.371   6.296   8.916
29755WAT     H289508   2.230   6.374   8.941
29756WAT      O89509   3.984   6.745   8.906
29756WAT     H189510   4.035   6.826   8.933
29756WAT     H289511   3.887   6.769   8.894
29757WAT      O89512   1.507   9.599   0.078
29757WAT     H189513   1.476   9.660   0.006
29757WAT     H289514   1.512   9.649   0.165
29758WAT      O89515   6.829   1.744   9.234
29758WAT     H189516   6.798   1.810   9.165
29758WAT     H289517   6.777   1.659   9.224
29759WAT      O89518   0.998   0.389   9.087
29759WAT     H189519   1.006   0.340   9.000
29759WAT     H289520   1.068   0.355   9.151
29760WAT      O89521   5.813   1.517   1.190
29760WAT     H189522   5.886   1.585   1.192
29760WAT     H289523   5.783   1.496   1.283
29761WAT      O89524   0.225   9.357   2.165
29761WAT     H189525   0.319   9.393   2.171
29761WAT     H289526   0.227   9.257   2.172
29762WAT      O89527   4.772   9.806   4.689
29762WAT     H189528   4.788   9.721   4.640
29762WAT     H289529   4.797   9.794   4.785
29763WAT      O89530   8.757   1.828   1.867
29763WAT     H189531   8.806   1.891   1.927
29763WAT     H289532   8.742   1.871   1.778
29764WAT      O89533   0.477   6.803   5.649
29764WAT     H189534   0.470   6.816   5.748
29764WAT     H289535   0.403   6.743   5.619
29765WAT      O89536   1.583   1.034   6.863
29765WAT     H189537   1.560   1.111   6.922
29765WAT     H289538   1.499   0.986   6.837
29766WAT      O89539   4.826   8.665   4.740
29766WAT     H189540   4.849   8.747   4.687
29766WAT     H289541   4.908   8.608   4.750
29767WAT      O89542   1.173   1.287   9.343
29767WAT     H189543   1.254   1.315   9.291
29767WAT     H289544   1.177   1.189   9.362
29768WAT      O89545   8.490   6.414   2.252
29768WAT     H189546   8.580   6.373   2.263
29768WAT     H289547   8.452   6.435   2.342
29769WAT      O89548   8.331   0.396   4.525
29769WAT     H189549   8.248   0.342   4.509
29769WAT     H289550   8.381   0.357   4.603
29770WAT      O89551   7.874   4.579   2.897
29770WAT     H189552   7.954   4.606   2.951
29770WAT     H289553   7.832   4.661   2.857
29771WAT      O89554   6.166   2.659   9.844
29771WAT     H189555   6.160   2.747   9.891
29771WAT     H289556   6.080   2.640   9.798
29772WAT      O89557   1.525   8.364   9.142
29772WAT     H189558   1.536   8.437   9.210
29772WAT     H289559   1.518   8.276   9.189
29773WAT      O89560   4.598   6.559   2.977
29773WAT     H189561   4.596   6.647   2.929
29773WAT     H289562   4.663   6.498   2.932
29774WAT      O89563   0.674   0.460   6.205
29774WAT     H189564   0.678   0.558   6.185
29774WAT     H289565   0.757   0.433   6.255
29775WAT      O89566   7.246   3.100   6.603
29775WAT     H189567   7.297   3.042   6.540
29775WAT     H289568   7.157   3.121   6.564
29776WAT      O89569   4.935   3.927   4.467
29776WAT     H189570   5.002   3.877   4.412
29776WAT     H289571   4.842   3.901   4.438
29777WAT      O89572   0.166   8.066   6.204
29777WAT     H189573   0.249   8.115   6.176
29777WAT     H289574   0.131   8.014   6.126
29778WAT      O89575   9.704   9.840   6.741
29778WAT     H189576   9.750   9.767   6.792
29778WAT     H289577   9.747   9.928   6.762
29779WAT      O89578   2.847   7.596   0.284
29779WAT     H189579   2.884   7.515   0.330
29779WAT     H289580   2.763   7.571   0.237
29780WAT      O89581   4.399   3.568   7.960
29780WAT     H189582   4.416   3.488   7.902
29780WAT     H289583   4.486   3.615   7.979
29781WAT      O89584   5.507   1.245   9.325
29781WAT     H189585   5.573   1.249   9.251
29781WAT     H289586   5.432   1.183   9.300
29782WAT      O89587   2.214   9.353   2.598
29782WAT     H189588   2.270   9.339   2.679
29782WAT     H289589   2.128   9.397   2.624
29783WAT      O89590   7.934   7.045   8.468
29783WAT     H189591   7.845   7.017   8.503
29783WAT     H289592   8.004   6.981   8.500
29784WAT      O89593   6.986   8.552   4.309
29784WAT     H189594   6.921   8.480   4.336
29784WAT     H289595   7.074   8.511   4.287
29785WAT      O89596   0.884   3.584   9.116
29785WAT     H189597   0.930   3.519   9.176
29785WAT     H289598   0.785   3.576   9.127
29786WAT      O89599   3.305   3.750   8.722
29786WAT     H189600   3.285   3.848   8.729
29786WAT     H289601   3.219   3.699   8.716
29787WAT      O89602   9.110   9.586   8.527
29787WAT     H189603   9.132   9.681   8.550
29787WAT     H289604   9.075   9.582   8.433
29788WAT      O89605   6.514   4.172   3.177
29788WAT     H189606   6.598   4.167   3.124
29788WAT     H289607   6.532   4.219   3.263
29789WAT      O89608   6.343   7.935   9.316
29789WAT     H189609   6.339   7.874   9.395
29789WAT     H289610   6.360   8.029   9.347
29790WAT      O89611   4.135   5.154   6.300
29790WAT     H189612   4.174   5.085   6.361
29790WAT     H289613   4.128   5.118   6.207
29791WAT      O89614   6.071   4.792   8.868
29791WAT     H189615   6.027   4.882   8.877
29791WAT     H289616   6.147   4.785   8.933
29792WAT      O89617   2.770   8.490   7.799
29792WAT     H189618   2.740   8.585   7.810
29792WAT     H289619   2.706   8.429   7.844
29793WAT      O89620   5.701   0.679   2.602
29793WAT     H189621   5.721   0.777   2.599
29793WAT     H289622   5.606   0.663   2.575
29794WAT      O89623   3.815   5.713   4.084
29794WAT     H189624   3.886   5.758   4.139
29794WAT     H289625   3.775   5.638   4.136
29795WAT      O89626   6.420   5.845   3.903
29795WAT     H189627   6.514   5.814   3.915
29795WAT     H289628   6.368   5.825   3.986
29796WAT      O89629   0.951   4.526   1.372
29796WAT     H189630   0.965   4.439   1.420
29796WAT     H289631   0.956   4.511   1.273
29797WAT      O89632   5.962   3.199   3.336
29797WAT     H189633   5.886   3.145   3.300
29797WAT     H289634   5.958   3.292   3.298
29798WAT      O89635   4.672   5.168   4.248
29798WAT     H189636   4.616   5.091   4.278
29798WAT     H289637   4.748   5.180   4.312
29799WAT      O89638   8.394   3.994   1.209
29799WAT     H189639   8.308   3.952   1.180
29799WAT     H289640   8.375   4.074   1.266
29800WAT      O89641   7.776   6.016   1.578
29800WAT     H189642   7.765   5.917   1.562
29800WAT     H289643   7.722   6.043   1.657
29801WAT      O89644   5.907   9.145   3.388
29801WAT     H189645   5.913   9.113   3.483
29801WAT     H289646   5.876   9.071   3.329
29802WAT      O89647   3.218   7.096   7.565
29802WAT     H189648   3.267   7.023   7.612
29802WAT     H289649   3.266   7.182   7.578
29803WAT      O89650   4.728   0.548   5.090
29803WAT     H189651   4.690   0.633   5.127
29803WAT     H289652   4.657   0.497   5.042
29804WAT      O89653   5.893   3.186   9.776
29804WAT     H189654   5.807   3.206   9.822
29804WAT     H289655   5.896   3.090   9.749
29805WAT      O89656   0.470   2.982   6.595
29805WAT     H189657   0.396   2.921   6.626
29805WAT     H289658   0.476   2.980   6.496
29806WAT      O89659   6.017   5.587   0.920
29806WAT     H189660   6.076   5.572   0.841
29806WAT     H289661   5.963   5.670   0.906
29807WAT      O89662   3.698   3.884   3.989
29807WAT     H189663   3.745   3.847   4.069
29807WAT     H289664   3.679   3.981   4.003
29808WAT      O89665   2.990   3.084   9.238
29808WAT     H189666   3.024   2.996   9.271
29808WAT     H289667   2.957   3.138   9.315
29809WAT      O89668   2.767   4.192   0.913
29809WAT     H189669   2.732   4.260   0.977
29809WAT     H289670   2.756   4.226   0.820
29810WAT      O89671   7.505   2.940   7.563
29810WAT     H189672   7.587   2.996   7.549
29810WAT     H289673   7.491   2.923   7.660
29811WAT      O89674   5.855   9.215   4.341
29811WAT     H189675   5.851   9.140   4.275
29811WAT     H289676   5.932   9.201   4.403
29812WAT      O89677   5.862   6.924   1.019
29812WAT     H189678   5.885   7.015   0.985
29812WAT     H289679   5.900   6.912   1.111
29813WAT      O89680   7.038   3.354   9.090
29813WAT     H189681   7.025   3.352   8.990
29813WAT     H289682   6.970   3.415   9.130
29814WAT      O89683   3.802   7.372   0.648
29814WAT     H189684   3.795   7.433   0.568
29814WAT     H289685   3.711   7.342   0.675
29815WAT      O89686   4.467   0.651   0.972
29815WAT     H189687   4.464   0.673   0.875
29815WAT     H289688   4.526   0.717   1.019
29816WAT      O89689   4.468   1.268   4.665
29816WAT     H189690   4.489   1.362   4.692
29816WAT     H289691   4.426   1.268   4.574
29817WAT      O89692   1.437   4.522   4.523
29817WAT     H189693   1.494   4.483   4.595
29817WAT     H289694   1.384   4.598   4.560
29818WAT      O89695   6.217   0.053   4.219
29818WAT     H189696   6.205   0.020   4.126
29818WAT     H289697   6.249   0.148   4.218
29819WAT      O89698   9.639   6.509   2.274
29819WAT     H189699   9.688   6.427   2.303
29819WAT     H289700   9.704   6.579   2.245
29820WAT      O89701   4.317   4.351   0.192
29820WAT     H189702   4.309   4.332   0.094
29820WAT     H289703   4.313   4.450   0.207
29821WAT      O89704   5.898   2.472   6.746
29821WAT     H189705   5.866   2.539   6.813
29821WAT     H289706   5.876   2.380   6.778
29822WAT      O89707   0.240   3.388   8.994
29822WAT     H189708   0.302   3.379   8.915
29822WAT     H289709   0.241   3.303   9.046
29823WAT      O89710   7.280   6.145   0.095
29823WAT     H189711   7.218   6.082   0.048
29823WAT     H289712   7.246   6.238   0.088
29824WAT      O89713   2.341   1.120   6.330
29824WAT     H189714   2.351   1.220   6.339
29824WAT     H289715   2.248   1.094   6.356
29825WAT      O89716   7.061   7.027   2.154
29825WAT     H189717   7.062   7.052   2.058
29825WAT     H289718   7.025   7.103   2.208
29826WAT      O89719   0.926   1.837   7.501
29826WAT     H189720   0.849   1.835   7.565
29826WAT     H289721   0.992   1.906   7.530
29827WAT      O89722   0.041   6.353   8.713
29827WAT     H189723   0.035   6.291   8.635
29827WAT     H289724   0.065   6.445   8.681
29828WAT      O89725   5.737   8.546   4.459
29828WAT     H189726   5.712   8.525   4.553
29828WAT     H289727   5.777   8.464   4.416
29829WAT      O89728   0.798   2.937   8.758
29829WAT     H189729   0.710   2.983   8.767
29829WAT     H289730   0.816   2.884   8.841
29830WAT      O89731   9.129   4.223   3.588
29830WAT     H189732   9.099   4.272   3.505
29830WAT     H289733   9.229   4.219   3.590
29831WAT      O89734   1.622   7.846   9.370
29831WAT     H189735   1.689   7.894   9.314
29831WAT     H289736   1.654   7.842   9.465
29832WAT      O89737   2.350   9.542   5.898
29832WAT     H189738   2.384   9.458   5.941
29832WAT     H289739   2.294   9.592   5.964
29833WAT      O89740   0.530   8.222   9.502
29833WAT     H189741   0.623   8.218   9.539
29833WAT     H289742   0.473   8.280   9.561
29834WAT      O89743   4.455   2.223   9.354
29834WAT     H189744   4.513   2.148   9.385
29834WAT     H289745   4.411   2.198   9.268
29835WAT      O89746   9.766   5.088   9.296
29835WAT     H189747   9.786   5.080   9.394
29835WAT     H289748   9.702   5.016   9.269
29836WAT      O89749   9.700   7.523   9.355
29836WAT     H189750   9.626   7.539   9.290
29836WAT     H289751   9.768   7.462   9.314
29837WAT      O89752   0.218   3.715   4.509
29837WAT     H189753   0.183   3.676   4.424
29837WAT     H289754   0.147   3.713   4.579
29838WAT      O89755   8.204   1.764   7.466
29838WAT     H189756   8.183   1.742   7.561
29838WAT     H289757   8.300   1.745   7.447
29839WAT      O89758   1.156   7.893   2.160
29839WAT     H189759   1.147   7.814   2.221
29839WAT     H289760   1.182   7.973   2.214
29840WAT      O89761   5.830   1.498   6.885
29840WAT     H189762   5.904   1.431   6.882
29840WAT     H289763   5.823   1.536   6.978
29841WAT      O89764   2.065   3.774   8.931
29841WAT     H189765   2.052   3.802   9.026
29841WAT     H289766   2.093   3.678   8.929
29842WAT      O89767   4.407   2.684   1.062
29842WAT     H189768   4.320   2.734   1.067
29842WAT     H289769   4.476   2.733   1.114
29843WAT      O89770   3.576   7.007   3.916
29843WAT     H189771   3.666   7.036   3.950
29843WAT     H289772   3.575   7.014   3.816
29844WAT      O89773   6.367   9.291   3.659
29844WAT     H189774   6.272   9.322   3.664
29844WAT     H289775   6.423   9.362   3.615
29845WAT      O89776   8.770   0.078   2.047
29845WAT     H189777   8.805   0.170   2.066
29845WAT     H289778   8.734   0.075   1.953
29846WAT      O89779   1.745   5.997   9.468
29846WAT     H189780   1.746   6.017   9.566
29846WAT     H289781   1.655   5.962   9.442
29847WAT      O89782   4.815   5.677   5.223
29847WAT     H189783   4.796   5.584   5.255
29847WAT     H289784   4.878   5.722   5.286
29848WAT      O89785   1.532   6.111   4.448
29848WAT     H189786   1.532   6.131   4.350
29848WAT     H289787   1.576   6.023   4.464
29849WAT      O89788   2.000   5.853   0.509
29849WAT     H189789   2.051   5.914   0.448
29849WAT     H289790   2.047   5.765   0.516
29850WAT      O89791   6.217   5.499   5.937
29850WAT     H189792   6.148   5.487   6.008
29850WAT     H289793   6.307   5.472   5.972
29851WAT      O89794   8.103   0.521   4.838
29851WAT     H189795   8.177   0.508   4.903
29851WAT     H289796   8.022   0.555   4.886
29852WAT      O89797   0.896   1.279   9.403
29852WAT     H189798   0.988   1.247   9.377
29852WAT     H289799   0.840   1.288   9.320
29853WAT      O89800   6.420   3.768   6.651
29853WAT     H189801   6.412   3.677   6.609
29853WAT     H289802   6.386   3.837   6.588
29854WAT      O89803   7.801   8.659   6.350
29854WAT     H189804   7.895   8.693   6.347
29854WAT     H289805   7.796   8.571   6.303
29855WAT      O89806   8.417   8.465   8.998
29855WAT     H189807   8.457   8.385   8.954
29855WAT     H289808   8.383   8.528   8.928
29856WAT      O89809   6.151   0.265   9.415
29856WAT     H189810   6.055   0.246   9.433
29856WAT     H289811   6.160   0.346   9.357
29857WAT      O89812   8.383   6.237   2.785
29857WAT     H189813   8.390   6.323   2.734
29857WAT     H289814   8.359   6.256   2.880
29858WAT      O89815   1.798   4.905   6.196
29858WAT     H189816   1.868   4.874   6.260
29858WAT     H289817   1.751   4.826   6.158
29859WAT      O89818   7.405   9.776   2.180
29859WAT     H189819   7.458   9.856   2.207
29859WAT     H289820   7.364   9.792   2.090
29860WAT      O89821   8.593   2.518   7.071
29860WAT     H189822   8.570   2.492   6.977
29860WAT     H289823   8.618   2.615   7.074
29861WAT      O89824   4.792   5.502   3.275
29861WAT     H189825   4.814   5.591   3.235
29861WAT     H289826   4.693   5.490   3.276
29862WAT      O89827   5.968   3.047   2.853
29862WAT     H189828   5.946   2.978   2.922
29862WAT     H289829   5.904   3.039   2.777
29863WAT      O89830   1.927   6.309   2.760
29863WAT     H189831   1.998   6.338   2.825
29863WAT     H289832   1.907   6.385   2.698
29864WAT      O89833   4.559   3.576   3.689
29864WAT     H189834   4.568   3.650   3.755
29864WAT     H289835   4.623   3.590   3.613
29865WAT      O89836   2.528   0.646   8.655
29865WAT     H189837   2.517   0.565   8.597
29865WAT     H289838   2.619   0.684   8.642
29866WAT      O89839   2.535   7.572   6.316
29866WAT     H189840   2.614   7.631   6.305
29866WAT     H289841   2.566   7.480   6.340
29867WAT      O89842   8.377   2.737   2.948
29867WAT     H189843   8.463   2.773   2.911
29867WAT     H289844   8.368   2.764   3.044
29868WAT      O89845   7.666   8.380   6.812
29868WAT     H189846   7.702   8.402   6.722
29868WAT     H289847   7.570   8.352   6.803
29869WAT      O89848   9.342   9.572   4.364
29869WAT     H189849   9.424   9.569   4.422
29869WAT     H289850   9.352   9.644   4.296
29870WAT      O89851   9.315   3.331   8.537
29870WAT     H189852   9.283   3.419   8.501
29870WAT     H289853   9.271   3.257   8.486
29871WAT      O89854   8.228   5.177   7.712
29871WAT     H189855   8.271   5.257   7.672
29871WAT     H289856   8.296   5.105   7.727
29872WAT      O89857   9.810   9.687   1.499
29872WAT     H189858   9.850   9.776   1.522
29872WAT     H289859   9.872   9.614   1.527
29873WAT      O89860   0.162   9.456   6.702
29873WAT     H189861   0.246   9.495   6.739
29873WAT     H289862   0.098   9.437   6.776
29874WAT      O89863   1.215   6.424   0.526
29874WAT     H189864   1.207   6.357   0.600
29874WAT     H289865   1.226   6.376   0.439
29875WAT      O89866   2.144   1.787   3.387
29875WAT     H189867   2.114   1.694   3.408
29875WAT     H289868   2.064   1.844   3.368
29876WAT      O89869   5.964   2.505   7.602
29876WAT     H189870   5.914   2.428   7.562
29876WAT     H289871   5.970   2.579   7.535
29877WAT      O89872   4.107   3.122   4.117
29877WAT     H189873   4.053   3.202   4.143
29877WAT     H289874   4.141   3.134   4.024
29878WAT      O89875   3.259   7.591   1.911
29878WAT     H189876   3.313   7.590   1.995
29878WAT     H289877   3.311   7.548   1.837
29879WAT      O89878   1.181   4.555   0.663
29879WAT     H189879   1.200   4.635   0.607
29879WAT     H289880   1.261   4.535   0.720
29880WAT      O89881   2.352   5.292   7.430
29880WAT     H189882   2.395   5.221   7.485
29880WAT     H289883   2.420   5.362   7.407
29881WAT      O89884   5.604   2.755   6.636
29881WAT     H189885   5.566   2.727   6.724
29881WAT     H289886   5.544   2.823   6.593
29882WAT      O89887   9.413   8.481   5.989
29882WAT     H189888   9.487   8.544   5.966
29882WAT     H289889   9.409   8.407   5.921
29883WAT      O89890   4.539   6.980   6.881
29883WAT     H189891   4.459   6.924   6.906
29883WAT     H289892   4.527   7.072   6.918
29884WAT      O89893   2.926   0.987   8.071
29884WAT     H189894   2.886   1.037   8.148
29884WAT     H289895   3.000   0.929   8.104
29885WAT      O89896   3.483   6.477   5.880
29885WAT     H189897   3.413   6.520   5.823
29885WAT     H289898   3.461   6.380   5.892
29886WAT      O89899   6.133   7.852   2.282
29886WAT     H189900   6.192   7.932   2.297
29886WAT     H289901   6.173   7.795   2.211
29887WAT      O89902   4.167   6.134   7.403
29887WAT     H189903   4.090   6.147   7.340
29887WAT     H289904   4.149   6.056   7.463
29888WAT      O89905   1.363   5.019   2.768
29888WAT     H189906   1.355   4.920   2.764
29888WAT     H289907   1.443   5.048   2.716
29889WAT      O89908   4.604   3.495   9.576
29889WAT     H189909   4.642   3.587   9.568
29889WAT     H289910   4.671   3.428   9.546
29890WAT      O89911   3.784   7.690   1.069
29890WAT     H189912   3.791   7.787   1.045
29890WAT     H289913   3.737   7.641   0.995
29891WAT      O89914   8.280   1.837   0.480
29891WAT     H189915   8.309   1.906   0.414
29891WAT     H289916   8.321   1.749   0.457
29892WAT      O89917   3.317   9.821   3.876
29892WAT     H189918   3.223   9.799   3.849
29892WAT     H289919   3.324   9.821   3.976
29893WAT      O89920   6.289   3.944   6.482
29893WAT     H189921   6.334   3.999   6.412
29893WAT     H289922   6.236   3.871   6.440
29894WAT      O89923   4.727   0.277   8.265
29894WAT     H189924   4.776   0.312   8.186
29894WAT     H289925   4.638   0.241   8.237
29895WAT      O89926   9.467   2.930   1.188
29895WAT     H189927   9.445   2.890   1.277
29895WAT     H289928   9.445   3.028   1.188
29896WAT      O89929   2.227   2.118   8.448
29896WAT     H189930   2.259   2.024   8.447
29896WAT     H289931   2.272   2.170   8.375
29897WAT      O89932   1.787   5.752   3.777
29897WAT     H189933   1.764   5.755   3.874
29897WAT     H289934   1.714   5.792   3.724
29898WAT      O89935   9.492   8.076   7.221
29898WAT     H189936   9.401   8.034   7.230
29898WAT     H289937   9.531   8.090   7.312
29899WAT      O89938   0.126   7.670   2.399
29899WAT     H189939   0.123   7.740   2.328
29899WAT     H289940   0.215   7.623   2.396
29900WAT      O89941   9.047   7.126   8.035
29900WAT     H189942   9.007   7.205   8.082
29900WAT     H289943   8.974   7.072   7.993
29901WAT      O89944   5.972   4.151   8.418
29901WAT     H189945   5.899   4.187   8.476
29901WAT     H289946   5.935   4.129   8.328
29902WAT      O89947   9.555   8.968   7.311
29902WAT     H189948   9.472   8.913   7.320
29902WAT     H289949   9.627   8.932   7.371
29903WAT      O89950   0.773   2.925   8.134
29903WAT     H189951   0.726   2.954   8.051
29903WAT     H289952   0.871   2.916   8.117
29904WAT      O89953   4.982   2.421   3.243
29904WAT     H189954   5.077   2.446   3.229
29904WAT     H289955   4.923   2.485   3.194
29905WAT      O89956   7.581   4.881   3.627
29905WAT     H189957   7.597   4.817   3.702
29905WAT     H289958   7.488   4.871   3.593
29906WAT      O89959   1.095   7.365   6.348
29906WAT     H189960   1.179   7.327   6.386
29906WAT     H289961   1.111   7.399   6.256
29907WAT      O89962   9.684   4.471   4.519
29907WAT     H189963   9.698   4.373   4.530
29907WAT     H289964   9.684   4.515   4.609
29908WAT      O89965   4.543   2.165   0.632
29908WAT     H189966   4.583   2.245   0.588
29908WAT     H289967   4.446   2.160   0.611
29909WAT      O89968   0.692   0.545   0.792
29909WAT     H189969   0.650   0.522   0.704
29909WAT     H289970   0.621   0.554   0.861
29910WAT      O89971   9.814   0.529   6.943
29910WAT     H189972   9.719   0.504   6.964
29910WAT     H289973   9.875   0.462   6.984
29911WAT      O89974   1.786   2.856   1.380
29911WAT     H189975   1.734   2.901   1.452
29911WAT     H289976   1.764   2.897   1.291
29912WAT      O89977   2.811   8.233   8.518
29912WAT     H189978   2.771   8.289   8.590
29912WAT     H289979   2.909   8.222   8.535
29913WAT      O89980   9.793   7.414   2.901
29913WAT     H189981   9.767   7.487   2.965
29913WAT     H289982   9.796   7.451   2.808
29914WAT      O89983   0.965   3.501   6.727
29914WAT     H189984   0.959   3.593   6.766
29914WAT     H289985   0.910   3.438   6.781
29915WAT      O89986   1.611   2.964   7.887
29915WAT     H189987   1.549   2.996   7.816
29915WAT     H289988   1.579   2.995   7.977
29916WAT      O89989   9.650   2.216   2.635
29916WAT     H189990   9.652   2.278   2.556
29916WAT     H289991   9.571   2.155   2.627
29917WAT      O89992   8.702   1.700   2.801
29917WAT     H189993   8.693   1.668   2.707
29917WAT     H289994   8.612   1.695   2.846
29918WAT      O89995   4.088   8.226   6.271
29918WAT     H189996   4.095   8.309   6.215
29918WAT     H289997   4.007   8.175   6.245
29919WAT      O89998   8.174   6.893   3.545
29919WAT     H189999   8.267   6.911   3.514
29919WAT     H290000   8.117   6.868   3.466
29920WAT      O90001   5.952   3.369   9.062
29920WAT     H190002   5.871   3.364   9.121
29920WAT     H290003   5.928   3.338   8.970
29921WAT      O90004   7.047   2.332   3.930
29921WAT     H190005   7.055   2.416   3.983
29921WAT     H290006   7.121   2.269   3.956
29922WAT      O90007   8.722   6.786   4.956
29922WAT     H190008   8.722   6.880   4.922
29922WAT     H290009   8.632   6.745   4.940
29923WAT      O90010   2.984   8.472   7.161
29923WAT     H190011   2.895   8.513   7.179
29923WAT     H290012   2.972   8.389   7.106
29924WAT      O90013   4.222   4.746   8.387
29924WAT     H190014   4.258   4.830   8.427
29924WAT     H290015   4.236   4.670   8.451
29925WAT      O90016   6.794   9.747   1.484
29925WAT     H190017   6.869   9.782   1.429
29925WAT     H290018   6.784   9.803   1.566
29926WAT      O90019   1.503   6.245   3.255
29926WAT     H190020   1.427   6.211   3.198
29926WAT     H290021   1.552   6.316   3.205
29927WAT      O90022   7.759   7.290   4.552
29927WAT     H190023   7.855   7.269   4.534
29927WAT     H290024   7.701   7.253   4.480
29928WAT      O90025   5.492   9.196   9.056
29928WAT     H190026   5.530   9.219   9.145
29928WAT     H290027   5.565   9.197   8.987
29929WAT      O90028   7.224   8.196   0.188
29929WAT     H190029   7.310   8.231   0.151
29929WAT     H290030   7.147   8.235   0.137
29930WAT      O90031   1.647   8.840   4.556
29930WAT     H190032   1.578   8.806   4.621
29930WAT     H290033   1.738   8.817   4.590
29931WAT      O90034   3.719   6.160   6.007
29931WAT     H190035   3.714   6.152   5.907
29931WAT     H290036   3.633   6.200   6.041
29932WAT      O90037   3.177   6.395   4.478
29932WAT     H190038   3.115   6.318   4.497
29932WAT     H290039   3.271   6.363   4.486
29933WAT      O90040   9.851   5.889   5.930
29933WAT     H190041   9.766   5.926   5.966
29933WAT     H290042   9.840   5.869   5.832
29934WAT      O90043   6.024   4.998   5.577
29934WAT     H190044   6.026   4.910   5.529
29934WAT     H290045   6.011   4.983   5.675
29935WAT      O90046   3.258   8.752   3.308
29935WAT     H190047   3.334   8.764   3.244
29935WAT     H290048   3.181   8.709   3.261
29936WAT      O90049   9.146   8.375   5.645
29936WAT     H190050   9.093   8.298   5.679
29936WAT     H290051   9.214   8.343   5.578
29937WAT      O90052   5.303   7.470   7.944
29937WAT     H190053   5.383   7.475   8.005
29937WAT     H290054   5.220   7.483   7.997
29938WAT      O90055   0.725   3.083   2.035
29938WAT     H190056   0.746   3.026   1.955
29938WAT     H290057   0.698   3.174   2.005
29939WAT      O90058   5.335   2.532   6.493
29939WAT     H190059   5.324   2.526   6.593
29939WAT     H290060   5.322   2.627   6.465
29940WAT      O90061   9.554   9.727   8.285
29940WAT     H190062   9.556   9.758   8.380
29940WAT     H290063   9.461   9.696   8.262
29941WAT      O90064   1.327   4.846   3.340
29941WAT     H190065   1.348   4.908   3.264
29941WAT     H290066   1.254   4.783   3.314
29942WAT      O90067   6.002   7.788   5.926
29942WAT     H190068   5.949   7.735   5.859
29942WAT     H290069   5.975   7.762   6.018
29943WAT      O90070   6.925   2.474   1.872
29943WAT     H190071   6.987   2.483   1.794
29943WAT     H290072   6.869   2.557   1.879
29944WAT      O90073   5.878   7.070   1.960
29944WAT     H190074   5.879   6.970   1.955
29944WAT     H290075   5.862   7.098   2.055
29945WAT      O90076   8.211   0.682   2.057
29945WAT     H190077   8.210   0.619   1.980
29945WAT     H290078   8.118   0.695   2.091
29946WAT      O90079   9.242   8.157   7.810
29946WAT     H190080   9.237   8.128   7.715
29946WAT     H290081   9.192   8.091   7.867
29947WAT      O90082   2.442   7.418   9.326
29947WAT     H190083   2.408   7.341   9.379
29947WAT     H290084   2.365   7.478   9.302
29948WAT      O90085   6.770   3.057   3.535
29948WAT     H190086   6.727   3.142   3.505
29948WAT     H290087   6.869   3.071   3.545
29949WAT      O90088   3.838   4.435   4.902
29949WAT     H190089   3.936   4.436   4.920
29949WAT     H290090   3.790   4.480   4.977
29950WAT      O90091   6.200   5.561   6.347
29950WAT     H190092   6.133   5.555   6.273
29950WAT     H290093   6.287   5.595   6.312
29951WAT      O90094   3.600   6.196   0.529
29951WAT     H190095   3.697   6.176   0.523
29951WAT     H290096   3.586   6.288   0.566
29952WAT      O90097   3.019   6.718   1.117
29952WAT     H190098   2.940   6.697   1.059
29952WAT     H290099   3.092   6.755   1.060
29953WAT      O90100   7.638   3.599   1.137
29953WAT     H190101   7.572   3.525   1.126
29953WAT     H290102   7.730   3.561   1.145
29954WAT      O90103   9.594   5.685   5.748
29954WAT     H190104   9.686   5.722   5.738
29954WAT     H290105   9.536   5.721   5.675
29955WAT      O90106   5.069   2.333   7.032
29955WAT     H190107   5.139   2.305   6.966
29955WAT     H290108   5.104   2.319   7.125
29956WAT      O90109   8.823   2.561   9.782
29956WAT     H190110   8.730   2.593   9.768
29956WAT     H290111   8.884   2.605   9.716
29957WAT      O90112   4.823   2.610   8.437
29957WAT     H190113   4.803   2.699   8.395
29957WAT     H290114   4.893   2.563   8.383
29958WAT      O90115   4.204   5.366   7.750
29958WAT     H190116   4.239   5.274   7.730
29958WAT     H290117   4.276   5.419   7.796
29959WAT      O90118   8.698   7.457   8.854
29959WAT     H190119   8.714   7.441   8.756
29959WAT     H290120   8.650   7.378   8.893
29960WAT      O90121   1.903   8.924   5.057
29960WAT     H190122   1.957   8.998   5.097
29960WAT     H290123   1.812   8.922   5.098
29961WAT      O90124   1.643   1.438   0.298
29961WAT     H190125   1.649   1.339   0.285
29961WAT     H290126   1.728   1.471   0.340
29962WAT      O90127   3.499   6.203   8.792
29962WAT     H190128   3.548   6.262   8.727
29962WAT     H290129   3.458   6.127   8.742
29963WAT      O90130   3.356   6.658   4.897
29963WAT     H190131   3.438   6.607   4.921
29963WAT     H290132   3.336   6.646   4.800
29964WAT      O90133   9.094   2.046   6.412
29964WAT     H190134   9.010   2.100   6.409
29964WAT     H290135   9.079   1.963   6.466
29965WAT      O90136   2.131   7.221   4.244
29965WAT     H190137   2.103   7.316   4.263
29965WAT     H290138   2.172   7.182   4.326
29966WAT      O90139   9.753   9.078   7.768
29966WAT     H190140   9.711   9.139   7.836
29966WAT     H290141   9.840   9.044   7.804
29967WAT      O90142   6.471   5.635   9.611
29967WAT     H190143   6.425   5.585   9.537
29967WAT     H290144   6.439   5.601   9.699
29968WAT      O90145   6.708   6.099   0.965
29968WAT     H190146   6.768   6.135   0.894
29968WAT     H290147   6.763   6.063   1.040
29969WAT      O90148   8.551   2.087   6.662
29969WAT     H190149   8.484   2.084   6.737
29969WAT     H290150   8.553   1.998   6.616
29970WAT      O90151   2.245   3.900   2.972
29970WAT     H190152   2.156   3.941   2.989
29970WAT     H290153   2.281   3.863   3.057
29971WAT      O90154   0.469   2.737   3.393
29971WAT     H190155   0.516   2.810   3.442
29971WAT     H290156   0.463   2.656   3.452
29972WAT      O90157   0.311   9.006   4.246
29972WAT     H190158   0.336   8.927   4.190
29972WAT     H290159   0.385   9.074   4.244
29973WAT      O90160   8.090   1.264   3.780
29973WAT     H190161   8.088   1.363   3.797
29973WAT     H290162   8.144   1.246   3.697
29974WAT      O90163   8.781   5.777   9.085
29974WAT     H190164   8.714   5.845   9.054
29974WAT     H290165   8.739   5.687   9.090
29975WAT      O90166   4.151   2.810   1.431
29975WAT     H190167   4.079   2.830   1.498
29975WAT     H290168   4.138   2.868   1.350
29976WAT      O90169   1.007   9.373   2.634
29976WAT     H190170   0.927   9.413   2.680
29976WAT     H290171   1.068   9.446   2.605
29977WAT      O90172   5.941   7.406   1.596
29977WAT     H190173   5.904   7.498   1.607
29977WAT     H290174   6.010   7.406   1.523
29978WAT      O90175   9.309   3.264   5.953
29978WAT     H190176   9.217   3.226   5.964
29978WAT     H290177   9.368   3.198   5.907
29979WAT      O90178   6.918   4.657   3.302
29979WAT     H190179   6.869   4.612   3.227
29979WAT     H290180   6.995   4.709   3.265
29980WAT      O90181   4.846   7.638   5.539
29980WAT     H190182   4.762   7.592   5.508
29980WAT     H290183   4.822   7.716   5.596
29981WAT      O90184   8.518   9.819   3.136
29981WAT     H190185   8.574   9.737   3.127
29981WAT     H290186   8.467   9.816   3.222
29982WAT      O90187   6.745   7.676   4.934
29982WAT     H190188   6.698   7.697   4.848
29982WAT     H290189   6.759   7.578   4.941
29983WAT      O90190   3.546   4.991   5.980
29983WAT     H190191   3.457   4.952   6.000
29983WAT     H290192   3.538   5.090   5.968
29984WAT      O90193   6.919   0.423   8.419
29984WAT     H190194   6.962   0.336   8.394
29984WAT     H290195   6.946   0.448   8.512
29985WAT      O90196   0.014   8.077   6.744
29985WAT     H190197  -0.056   8.124   6.797
29985WAT     H290198   0.010   8.107   6.649
29986WAT      O90199   7.132   2.575   9.886
29986WAT     H190200   7.173   2.570   9.796
29986WAT     H290201   7.138   2.486   9.931
29987WAT      O90202   6.369   8.591   0.504
29987WAT     H190203   6.372   8.491   0.496
29987WAT     H290204   6.283   8.625   0.467
29988WAT      O90205   5.645   0.735   9.040
29988WAT     H190206   5.716   0.704   8.976
29988WAT     H290207   5.685   0.748   9.130
29989WAT      O90208   6.606   7.641   7.516
29989WAT     H190209   6.506   7.642   7.518
29989WAT     H290210   6.641   7.712   7.578
29990WAT      O90211   9.230   8.609   2.081
29990WAT     H190212   9.305   8.587   2.144
29990WAT     H290213   9.197   8.702   2.101
29991WAT      O90214   6.350   2.548   3.438
29991WAT     H190215   6.349   2.641   3.474
29991WAT     H290216   6.277   2.537   3.370
29992WAT      O90217   9.288   4.373   6.600
29992WAT     H190218   9.365   4.326   6.643
29992WAT     H290219   9.312   4.399   6.507
29993WAT      O90220   6.327   1.855   0.993
29993WAT     H190221   6.279   1.941   0.975
29993WAT     H290222   6.415   1.874   1.037
29994WAT      O90223   3.486   6.209   4.996
29994WAT     H190224   3.563   6.148   5.009
29994WAT     H290225   3.506   6.297   5.039
29995WAT      O90226   1.334   1.350   4.544
29995WAT     H190227   1.259   1.343   4.610
29995WAT     H290228   1.348   1.261   4.500
29996WAT      O90229   2.518   3.154   7.603
29996WAT     H190230   2.535   3.248   7.575
29996WAT     H290231   2.604   3.103   7.602
29997WAT      O90232   1.917   2.102   5.286
29997WAT     H190233   1.935   2.071   5.380
29997WAT     H290234   1.934   2.026   5.223
29998WAT      O90235   6.309   2.971   4.670
29998WAT     H190236   6.284   3.059   4.708
29998WAT     H290237   6.367   2.985   4.590
29999WAT      O90238   5.785   6.519   9.244
29999WAT     H190239   5.755   6.424   9.232
29999WAT     H290240   5.727   6.565   9.311
30000WAT      O90241   5.635   8.283   5.905
30000WAT     H190242   5.571   8.281   5.982
30000WAT     H290243   5.684   8.370   5.906
30001WAT      O90244   8.043   8.894   0.152
30001WAT     H190245   7.996   8.980   0.132
30001WAT     H290246   7.979   8.829   0.194
30002WAT      O90247   6.784   1.831   0.724
30002WAT     H190248   6.688   1.804   0.731
30002WAT     H290249   6.792   1.929   0.742
30003WAT      O90250   4.472   8.929   2.698
30003WAT     H190251   4.484   8.930   2.797
30003WAT     H290252   4.408   8.856   2.674
30004WAT      O90253   3.851   5.051   0.096
30004WAT     H190254   3.934   5.107   0.096
30004WAT     H290255   3.772   5.107   0.073
30005WAT      O90256   5.548   0.420   6.961
30005WAT     H190257   5.596   0.350   7.015
30005WAT     H290258   5.505   0.377   6.882
30006WAT      O90259   8.014   6.213   5.242
30006WAT     H190260   8.000   6.141   5.174
30006WAT     H290261   7.999   6.302   5.199
30007WAT      O90262   0.759   2.816   0.326
30007WAT     H190263   0.783   2.732   0.278
30007WAT     H290264   0.762   2.800   0.425
30008WAT      O90265   3.015   9.755   1.142
30008WAT     H190266   2.923   9.781   1.169
30008WAT     H290267   3.081   9.817   1.183
30009WAT      O90268   4.360   4.704   6.234
30009WAT     H190269   4.327   4.617   6.196
30009WAT     H290270   4.413   4.686   6.316
30010WAT      O90271   8.925   6.142   7.982
30010WAT     H190272   8.897   6.238   7.986
30010WAT     H290273   9.015   6.132   8.025
30011WAT      O90274   2.239   8.136   4.695
30011WAT     H190275   2.227   8.055   4.753
30011WAT     H290276   2.150   8.167   4.662
30012WAT      O90277   5.363   6.640   7.072
30012WAT     H190278   5.340   6.663   6.977
30012WAT     H290279   5.290   6.673   7.133
30013WAT      O90280   5.971   2.089   4.850
30013WAT     H190281   6.050   2.047   4.895
30013WAT     H290282   5.923   2.148   4.916
30014WAT      O90283   3.694   5.445   3.948
30014WAT     H190284   3.774   5.494   3.981
30014WAT     H290285   3.614   5.472   4.003
30015WAT      O90286   4.512   0.528   8.829
30015WAT     H190287   4.436   0.532   8.894
30015WAT     H290288   4.573   0.605   8.844
30016WAT      O90289   3.610   2.911   2.460
30016WAT     H190290   3.650   2.936   2.549
30016WAT     H290291   3.647   2.823   2.430
30017WAT      O90292   1.982   4.776   7.698
30017WAT     H190293   2.028   4.843   7.640
30017WAT     H290294   1.944   4.823   7.779
30018WAT      O90295   1.731   4.747   4.690
30018WAT     H190296   1.732   4.807   4.610
30018WAT     H290297   1.790   4.668   4.673
30019WAT      O90298   5.516   7.846   7.284
30019WAT     H190299   5.436   7.785   7.285
30019WAT     H290300   5.507   7.910   7.207
30020WAT      O90301   1.294   3.138   5.959
30020WAT     H190302   1.339   3.129   6.048
30020WAT     H290303   1.288   3.235   5.935
30021WAT      O90304   2.475   8.656   2.976
30021WAT     H190305   2.382   8.619   2.981
30021WAT     H290306   2.528   8.605   2.908
30022WAT      O90307   3.867   3.970   0.858
30022WAT     H190308   3.921   3.894   0.893
30022WAT     H290309   3.772   3.962   0.889
30023WAT      O90310   0.003   4.632   7.306
30023WAT     H190311  -0.081   4.626   7.361
30023WAT     H290312   0.065   4.697   7.350
30024WAT      O90313   1.179   7.477   1.464
30024WAT     H190314   1.204   7.536   1.388
30024WAT     H290315   1.204   7.382   1.443
30025WAT      O90316   7.936   3.775   5.285
30025WAT     H190317   7.845   3.815   5.297
30025WAT     H290318   7.982   3.770   5.374
30026WAT      O90319   9.877   5.375   0.010
30026WAT     H190320   9.887   5.290   0.060
30026WAT     H290321   9.931   5.371  -0.075
30027WAT      O90322   3.560   1.542   3.440
30027WAT     H190323   3.505   1.475   3.491
30027WAT     H290324   3.657   1.528   3.461
30028WAT      O90325   4.842   1.163   3.667
30028WAT     H190326   4.936   1.146   3.696
30028WAT     H290327   4.842   1.221   3.586
30029WAT      O90328   9.712   4.513   5.177
30029WAT     H190329   9.754   4.592   5.220
30029WAT     H290330   9.717   4.434   5.238
30030WAT      O90331   4.749   9.678   4.322
30030WAT     H190332   4.825   9.650   4.381
30030WAT     H290333   4.762   9.773   4.294
30031WAT      O90334   5.408   3.348   3.917
30031WAT     H190335   5.373   3.255   3.927
30031WAT     H290336   5.500   3.345   3.879
30032WAT      O90337   4.926   2.673   0.655
30032WAT     H190338   4.845   2.633   0.698
30032WAT     H290339   4.936   2.768   0.685
30033WAT      O90340   5.505   9.704   3.982
30033WAT     H190341   5.602   9.692   3.965
30033WAT     H290342   5.461   9.614   3.992
30034WAT      O90343   5.544   7.946   6.881
30034WAT     H190344   5.568   8.021   6.819
30034WAT     H290345   5.627   7.911   6.925
30035WAT      O90346   9.253   8.062   1.120
30035WAT     H190347   9.166   8.014   1.128
30035WAT     H290348   9.253   8.117   1.036
30036WAT      O90349   7.708   5.940   1.976
30036WAT     H190350   7.624   5.948   1.922
30036WAT     H290351   7.709   5.853   2.024
30037WAT      O90352   3.527   6.061   0.094
30037WAT     H190353   3.562   6.030   0.006
30037WAT     H290354   3.507   5.982   0.152
30038WAT      O90355   3.200   4.652   3.072
30038WAT     H190356   3.106   4.656   3.104
30038WAT     H290357   3.212   4.573   3.012
30039WAT      O90358   5.321   1.574   6.128
30039WAT     H190359   5.260   1.529   6.193
30039WAT     H290360   5.274   1.584   6.040
30040WAT      O90361   2.335   3.790   4.698
30040WAT     H190362   2.287   3.751   4.776
30040WAT     H290363   2.433   3.798   4.719
30041WAT      O90364   2.821   2.480   5.483
30041WAT     H190365   2.847   2.529   5.567
30041WAT     H290366   2.721   2.475   5.478
30042WAT      O90367   9.630   5.402   2.931
30042WAT     H190368   9.544   5.441   2.964
30042WAT     H290369   9.685   5.372   3.009
30043WAT      O90370   4.576   9.395   0.130
30043WAT     H190371   4.486   9.367   0.098
30043WAT     H290372   4.636   9.411   0.052
30044WAT      O90373   5.556   1.217   3.865
30044WAT     H190374   5.628   1.248   3.927
30044WAT     H290375   5.582   1.237   3.770
30045WAT      O90376   9.137   9.703   3.888
30045WAT     H190377   9.195   9.737   3.962
30045WAT     H290378   9.096   9.616   3.914
30046WAT      O90379   0.971   6.573   3.885
30046WAT     H190380   0.899   6.521   3.932
30046WAT     H290381   1.020   6.630   3.952
30047WAT      O90382   4.320   5.610   6.727
30047WAT     H190383   4.356   5.522   6.758
30047WAT     H290384   4.272   5.597   6.640
30048WAT      O90385   5.254   3.724   9.692
30048WAT     H190386   5.293   3.782   9.763
30048WAT     H290387   5.160   3.752   9.673
30049WAT      O90388   0.164   8.218   4.042
30049WAT     H190389   0.121   8.263   4.121
30049WAT     H290390   0.111   8.238   3.960
30050WAT      O90391   7.630   0.502   7.480
30050WAT     H190392   7.548   0.513   7.536
30050WAT     H290393   7.677   0.417   7.506
30051WAT      O90394   0.935   5.297   8.081
30051WAT     H190395   0.900   5.317   8.173
30051WAT     H290396   1.035   5.292   8.083
30052WAT      O90397   5.602   2.379   6.188
30052WAT     H190398   5.690   2.395   6.143
30052WAT     H290399   5.540   2.454   6.166
30053WAT      O90400   2.639   0.808   8.225
30053WAT     H190401   2.590   0.723   8.245
30053WAT     H290402   2.728   0.806   8.271
30054WAT      O90403   2.261   5.649   3.515
30054WAT     H190404   2.165   5.675   3.507
30054WAT     H290405   2.303   5.649   3.424
30055WAT      O90406   9.648   0.972   0.545
30055WAT     H190407   9.720   0.920   0.499
30055WAT     H290408   9.559   0.943   0.510
30056WAT      O90409   2.378   3.210   1.496
30056WAT     H190410   2.339   3.122   1.524
30056WAT     H290411   2.430   3.197   1.411
30057WAT      O90412   9.680   6.043   8.522
30057WAT     H190413   9.658   6.056   8.619
30057WAT     H290414   9.625   5.967   8.486
30058WAT      O90415   6.306   5.275   9.604
30058WAT     H190416   6.278   5.190   9.559
30058WAT     H290417   6.308   5.261   9.703
30059WAT      O90418   1.265   0.494   0.392
30059WAT     H190419   1.177   0.451   0.373
30059WAT     H290420   1.337   0.425   0.390
30060WAT      O90421   3.784   4.164   9.784
30060WAT     H190422   3.763   4.066   9.786
30060WAT     H290423   3.856   4.184   9.851
30061WAT      O90424   1.639   5.389   7.440
30061WAT     H190425   1.596   5.299   7.429
30061WAT     H290426   1.733   5.386   7.408
30062WAT      O90427   2.175   4.606   2.292
30062WAT     H190428   2.080   4.587   2.315
30062WAT     H290429   2.234   4.587   2.371
30063WAT      O90430   8.559   8.308   4.364
30063WAT     H190431   8.586   8.330   4.458
30063WAT     H290432   8.639   8.312   4.304
30064WAT      O90433   3.865   3.630   7.963
30064WAT     H190434   3.844   3.541   7.922
30064WAT     H290435   3.892   3.617   8.058
30065WAT      O90436   0.939   0.730   4.793
30065WAT     H190437   0.908   0.734   4.888
30065WAT     H290438   1.014   0.664   4.786
30066WAT      O90439   9.216   7.810   7.887
30066WAT     H190440   9.310   7.838   7.868
30066WAT     H290441   9.204   7.714   7.861
30067WAT      O90442   8.306   5.827   9.634
30067WAT     H190443   8.323   5.743   9.582
30067WAT     H290444   8.330   5.906   9.577
30068WAT      O90445   8.848   0.856   8.504
30068WAT     H190446   8.778   0.927   8.516
30068WAT     H290447   8.867   0.846   8.406
30069WAT      O90448   4.660   6.180   2.366
30069WAT     H190449   4.690   6.251   2.431
30069WAT     H290450   4.594   6.120   2.411
30070WAT      O90451   5.982   8.204   8.547
30070WAT     H190452   5.889   8.225   8.578
30070WAT     H290453   5.997   8.246   8.457
30071WAT      O90454   9.659   1.237   6.296
30071WAT     H190455   9.697   1.180   6.369
30071WAT     H290456   9.722   1.313   6.279
30072WAT      O90457   5.754   4.950   2.026
30072WAT     H190458   5.729   4.907   2.113
30072WAT     H290459   5.671   4.971   1.975
30073WAT      O90460   7.961   9.513   9.659
30073WAT     H190461   8.043   9.566   9.640
30073WAT     H290462   7.947   9.446   9.586
30074WAT      O90463   9.787   0.443   5.366
30074WAT     H190464   9.779   0.469   5.462
30074WAT     H290465   9.754   0.518   5.308
30075WAT      O90466   8.472   2.597   5.079
30075WAT     H190467   8.550   2.656   5.058
30075WAT     H290468   8.486   2.507   5.038
30076WAT      O90469   1.034   1.080   4.890
30076WAT     H190470   0.974   1.074   4.970
30076WAT     H290471   1.009   1.159   4.834
30077WAT      O90472   4.265   7.436   0.739
30077WAT     H190473   4.215   7.515   0.704
30077WAT     H290474   4.310   7.389   0.662
30078WAT      O90475   9.622   9.296   5.157
30078WAT     H190476   9.635   9.197   5.158
30078WAT     H290477   9.710   9.340   5.137
30079WAT      O90478   1.515   6.056   9.821
30079WAT     H190479   1.592   6.003   9.785
30079WAT     H290480   1.545   6.108   9.900
30080WAT      O90481   5.015   3.189   8.957
30080WAT     H190482   5.112   3.212   8.946
30080WAT     H290483   4.978   3.236   9.037
30081WAT      O90484   3.182   6.450   0.564
30081WAT     H190485   3.253   6.507   0.524
30081WAT     H290486   3.155   6.487   0.653
30082WAT      O90487   1.731   4.702   1.973
30082WAT     H190488   1.798   4.672   1.905
30082WAT     H290489   1.701   4.795   1.951
30083WAT      O90490   6.008   4.963   8.223
30083WAT     H190491   6.101   4.975   8.258
30083WAT     H290492   5.943   4.971   8.298
30084WAT      O90493   5.791   9.679   5.407
30084WAT     H190494   5.718   9.748   5.407
30084WAT     H290495   5.834   9.677   5.497
30085WAT      O90496   1.934   4.209   5.813
30085WAT     H190497   2.033   4.218   5.812
30085WAT     H290498   1.895   4.259   5.735
30086WAT      O90499   5.683   3.441   2.939
30086WAT     H190500   5.677   3.343   2.957
30086WAT     H290501   5.591   3.478   2.924
30087WAT      O90502   7.314   1.843   3.086
30087WAT     H190503   7.223   1.873   3.114
30087WAT     H290504   7.384   1.899   3.132
30088WAT      O90505   4.488   2.124   3.191
30088WAT     H190506   4.538   2.052   3.143
30088WAT     H290507   4.390   2.107   3.183
30089WAT      O90508   7.640   9.386   3.983
30089WAT     H190509   7.589   9.471   3.971
30089WAT     H290510   7.720   9.385   3.924
30090WAT      O90511   3.378   4.580   7.532
30090WAT     H190512   3.407   4.515   7.462
30090WAT     H290513   3.398   4.673   7.501
30091WAT      O90514   3.933   0.577   5.803
30091WAT     H190515   4.031   0.559   5.790
30091WAT     H290516   3.917   0.675   5.797
30092WAT      O90517   4.392   5.669   5.281
30092WAT     H190518   4.308   5.676   5.227
30092WAT     H290519   4.379   5.713   5.369
30093WAT      O90520   5.275   9.503   6.354
30093WAT     H190521   5.182   9.485   6.387
30093WAT     H290522   5.295   9.600   6.361
30094WAT      O90523   0.080   4.566   5.976
30094WAT     H190524   0.139   4.642   5.946
30094WAT     H290525   0.057   4.577   6.073
30095WAT      O90526   8.205   8.506   1.349
30095WAT     H190527   8.200   8.465   1.440
30095WAT     H290528   8.257   8.591   1.353
30096WAT      O90529   4.154   1.624   1.875
30096WAT     H190530   4.205   1.552   1.829
30096WAT     H290531   4.174   1.621   1.973
30097WAT      O90532   9.361   3.620   8.535
30097WAT     H190533   9.449   3.576   8.553
30097WAT     H290534   9.306   3.619   8.618
30098WAT      O90535   6.397   6.666   1.046
30098WAT     H190536   6.483   6.648   0.998
30098WAT     H290537   6.403   6.634   1.140
30099WAT      O90538   3.391   2.714   6.962
30099WAT     H190539   3.383   2.646   7.035
30099WAT     H290540   3.353   2.676   6.878
30100WAT      O90541   7.893   6.985   7.750
30100WAT     H190542   7.875   7.020   7.842
30100WAT     H290543   7.945   7.053   7.698
30101WAT      O90544   8.654   5.628   7.046
30101WAT     H190545   8.629   5.558   6.979
30101WAT     H290546   8.742   5.604   7.087
30102WAT      O90547   0.948   4.793   3.967
30102WAT     H190548   0.864   4.755   3.929
30102WAT     H290549   1.019   4.722   3.968
30103WAT      O90550   1.842   0.125   0.646
30103WAT     H190551   1.839   0.219   0.615
30103WAT     H290552   1.821   0.121   0.743
30104WAT      O90553   5.287   9.168   6.036
30104WAT     H190554   5.317   9.252   6.082
30104WAT     H290555   5.364   9.105   6.027
30105WAT      O90556   8.931   9.328   6.172
30105WAT     H190557   8.907   9.400   6.107
30105WAT     H290558   8.944   9.242   6.123
30106WAT      O90559   1.693   6.594   8.761
30106WAT     H190560   1.752   6.580   8.840
30106WAT     H290561   1.748   6.625   8.683
30107WAT      O90562   2.705   0.034   8.643
30107WAT     H190563   2.799   0.006   8.662
30107WAT     H290564   2.679   0.003   8.552
30108WAT      O90565   2.821   7.193   1.042
30108WAT     H190566   2.786   7.286   1.031
30108WAT     H290567   2.805   7.142   0.958
30109WAT      O90568   4.475   5.051   8.146
30109WAT     H190569   4.502   5.092   8.058
30109WAT     H290570   4.446   5.123   8.209
30110WAT      O90571   4.548   0.885   3.910
30110WAT     H190572   4.522   0.806   3.965
30110WAT     H290573   4.590   0.954   3.969
30111WAT      O90574   6.369   0.231   3.964
30111WAT     H190575   6.285   0.178   3.975
30111WAT     H290576   6.392   0.275   4.051
30112WAT      O90577   3.423   1.944   2.340
30112WAT     H190578   3.496   1.956   2.407
30112WAT     H290579   3.363   1.869   2.370
30113WAT      O90580   3.281   0.805   8.633
30113WAT     H190581   3.301   0.766   8.723
30113WAT     H290582   3.192   0.851   8.635
30114WAT      O90583   2.406   1.994   1.623
30114WAT     H190584   2.398   1.919   1.689
30114WAT     H290585   2.436   2.077   1.671
30115WAT      O90586   4.797   1.557   2.709
30115WAT     H190587   4.815   1.484   2.643
30115WAT     H290588   4.832   1.644   2.674
30116WAT      O90589   9.428   1.962   7.322
30116WAT     H190590   9.351   2.009   7.280
30116WAT     H290591   9.513   1.994   7.280
30117WAT      O90592   9.763   4.007   6.902
30117WAT     H190593   9.735   4.103   6.899
30117WAT     H290594   9.851   3.999   6.949
30118WAT      O90595   7.341   3.789   9.496
30118WAT     H190596   7.300   3.854   9.433
30118WAT     H290597   7.401   3.838   9.560
30119WAT      O90598   4.911   7.750   0.716
30119WAT     H190599   4.967   7.780   0.639
30119WAT     H290600   4.959   7.770   0.802
30120WAT      O90601   7.023   0.244   0.749
30120WAT     H190602   6.999   0.166   0.691
30120WAT     H290603   6.939   0.281   0.790
30121WAT      O90604   1.212   0.722   4.361
30121WAT     H190605   1.120   0.754   4.335
30121WAT     H290606   1.242   0.652   4.296
30122WAT      O90607   3.247   5.468   5.260
30122WAT     H190608   3.256   5.518   5.345
30122WAT     H290609   3.186   5.390   5.273
30123WAT      O90610   3.218   5.238   4.645
30123WAT     H190611   3.118   5.232   4.646
30123WAT     H290612   3.246   5.322   4.690
30124WAT      O90613   2.621   6.260   9.206
30124WAT     H190614   2.659   6.168   9.197
30124WAT     H290615   2.666   6.321   9.142
30125WAT      O90616   0.312   6.145   1.062
30125WAT     H190617   0.235   6.200   1.027
30125WAT     H290618   0.366   6.201   1.125
30126WAT      O90619   7.356   0.171   1.423
30126WAT     H190620   7.369   0.073   1.406
30126WAT     H290621   7.259   0.193   1.414
30127WAT      O90622   4.234   6.589   3.031
30127WAT     H190623   4.263   6.527   3.104
30127WAT     H290624   4.178   6.540   2.965
30128WAT      O90625   5.188   6.576   7.954
30128WAT     H190626   5.249   6.639   7.906
30128WAT     H290627   5.214   6.482   7.933
30129WAT      O90628   9.557   7.575   8.054
30129WAT     H190629   9.604   7.529   7.978
30129WAT     H290630   9.604   7.554   8.139
30130WAT      O90631   9.742   5.808   1.650
30130WAT     H190632   9.668   5.871   1.628
30130WAT     H290633   9.704   5.726   1.695
30131WAT      O90634   4.104   4.401   4.559
30131WAT     H190635   4.095   4.333   4.632
30131WAT     H290636   4.143   4.357   4.477
30132WAT      O90637   2.840   1.111   0.138
30132WAT     H190638   2.906   1.048   0.180
30132WAT     H290639   2.811   1.179   0.206
30133WAT      O90640   1.308   1.320   4.947
30133WAT     H190641   1.244   1.321   4.870
30133WAT     H290642   1.395   1.360   4.918
30134WAT      O90643   0.264   6.829   8.884
30134WAT     H190644   0.329   6.756   8.905
30134WAT     H290645   0.239   6.877   8.968
30135WAT      O90646   1.333   5.218   3.013
30135WAT     H190647   1.396   5.291   2.988
30135WAT     H290648   1.355   5.135   2.962
30136WAT      O90649   4.822   0.976   1.103
30136WAT     H190650   4.888   0.949   1.033
30136WAT     H290651   4.831   1.074   1.121
30137WAT      O90652   0.212   3.500   6.619
30137WAT     H190653   0.153   3.465   6.546
30137WAT     H290654   0.221   3.599   6.610
30138WAT      O90655   3.868   2.691   7.498
30138WAT     H190656   3.784   2.676   7.549
30138WAT     H290657   3.898   2.785   7.508
30139WAT      O90658   1.616   0.624   1.953
30139WAT     H190659   1.646   0.532   1.981
30139WAT     H290660   1.604   0.680   2.035
30140WAT      O90661   8.629   4.212   6.194
30140WAT     H190662   8.670   4.237   6.282
30140WAT     H290663   8.536   4.247   6.189
30141WAT      O90664   5.539   7.430   8.693
30141WAT     H190665   5.456   7.375   8.689
30141WAT     H290666   5.525   7.517   8.647
30142WAT      O90667   4.741   8.405   3.511
30142WAT     H190668   4.825   8.436   3.467
30142WAT     H290669   4.749   8.307   3.532
30143WAT      O90670   7.085   2.578   1.079
30143WAT     H190671   7.135   2.653   1.122
30143WAT     H290672   7.091   2.587   0.979
30144WAT      O90673   8.642   7.165   5.612
30144WAT     H190674   8.593   7.164   5.525
30144WAT     H290675   8.606   7.239   5.669
30145WAT      O90676   7.325   2.448   9.722
30145WAT     H190677   7.391   2.384   9.682
30145WAT     H290678   7.372   2.530   9.754
30146WAT      O90679   1.173   6.179   7.449
30146WAT     H190680   1.181   6.094   7.501
30146WAT     H290681   1.253   6.236   7.467
30147WAT      O90682   6.360   2.011   2.397
30147WAT     H190683   6.321   1.929   2.438
30147WAT     H290684   6.368   1.998   2.298
30148WAT      O90685   5.560   4.574   6.965
30148WAT     H190686   5.609   4.614   7.042
30148WAT     H290687   5.512   4.491   6.994
30149WAT      O90688   5.781   7.673   4.253
30149WAT     H190689   5.817   7.590   4.210
30149WAT     H290690   5.704   7.707   4.200
30150WAT      O90691   6.033   6.974   8.654
30150WAT     H190692   5.937   6.948   8.646
30150WAT     H290693   6.062   7.021   8.571
30151WAT      O90694   0.672   5.360   6.112
30151WAT     H190695   0.651   5.355   6.209
30151WAT     H290696   0.609   5.303   6.061
30152WAT      O90697   5.234   8.980   5.712
30152WAT     H190698   5.163   9.049   5.697
30152WAT     H290699   5.209   8.896   5.665
30153WAT      O90700   7.829   1.918   6.248
30153WAT     H190701   7.746   1.890   6.199
30153WAT     H290702   7.829   1.878   6.339
30154WAT      O90703   7.773   5.968   4.554
30154WAT     H190704   7.750   6.056   4.514
30154WAT     H290705   7.690   5.915   4.569
30155WAT      O90706   6.572   0.258   3.686
30155WAT     H190707   6.665   0.230   3.663
30155WAT     H290708   6.548   0.222   3.776
30156WAT      O90709   3.814   6.132   8.165
30156WAT     H190710   3.900   6.083   8.155
30156WAT     H290711   3.738   6.072   8.139
30157WAT      O90712   5.472   0.727   7.433
30157WAT     H190713   5.487   0.822   7.408
30157WAT     H290714   5.479   0.669   7.352
30158WAT      O90715   5.921   0.953   1.133
30158WAT     H190716   5.987   1.029   1.138
30158WAT     H290717   5.922   0.915   1.041
30159WAT      O90718   9.382   5.213   6.355
30159WAT     H190719   9.335   5.144   6.300
30159WAT     H290720   9.477   5.186   6.369
30160WAT      O90721   0.550   9.138   2.151
30160WAT     H190722   0.542   9.160   2.054
30160WAT     H290723   0.567   9.221   2.203
30161WAT      O90724   1.395   3.147   7.769
30161WAT     H190725   1.375   3.144   7.671
30161WAT     H290726   1.374   3.238   7.805
30162WAT      O90727   0.543   4.491   6.840
30162WAT     H190728   0.549   4.408   6.784
30162WAT     H290729   0.471   4.550   6.803
30163WAT      O90730   9.175   3.814   0.485
30163WAT     H190731   9.107   3.888   0.482
30163WAT     H290732   9.133   3.729   0.452
30164WAT      O90733   7.597   1.826   6.125
30164WAT     H190734   7.554   1.894   6.186
30164WAT     H290735   7.603   1.865   6.033
30165WAT      O90736   0.602   5.312   7.786
30165WAT     H190737   0.628   5.392   7.841
30165WAT     H290738   0.553   5.247   7.844
30166WAT      O90739   9.593   6.098   3.199
30166WAT     H190740   9.679   6.089   3.250
30166WAT     H290741   9.532   6.022   3.224
30167WAT      O90742   4.047   9.224   7.242
30167WAT     H190743   4.060   9.251   7.147
30167WAT     H290744   3.959   9.259   7.275
30168WAT      O90745   6.906   8.704   3.251
30168WAT     H190746   6.834   8.666   3.192
30168WAT     H290747   6.993   8.660   3.229
30169WAT      O90748   0.502   6.324   0.215
30169WAT     H190749   0.509   6.224   0.216
30169WAT     H290750   0.472   6.356   0.305
30170WAT      O90751   9.119   2.060   8.682
30170WAT     H190752   9.178   2.102   8.752
30170WAT     H290753   9.052   2.128   8.651
30171WAT      O90754   6.991   9.255   7.389
30171WAT     H190755   6.906   9.307   7.396
30171WAT     H290756   7.062   9.313   7.348
30172WAT      O90757   0.052   5.310   6.856
30172WAT     H190758   0.071   5.375   6.782
30172WAT     H290759   0.035   5.219   6.817
30173WAT      O90760   9.214   0.150   7.273
30173WAT     H190761   9.249   0.181   7.362
30173WAT     H290762   9.205   0.050   7.274
30174WAT      O90763   7.841   9.368   8.280
30174WAT     H190764   7.929   9.354   8.234
30174WAT     H290765   7.768   9.331   8.223
30175WAT      O90766   0.438   5.753   0.485
30175WAT     H190767   0.465   5.745   0.581
30175WAT     H290768   0.507   5.710   0.427
30176WAT      O90769   0.854   9.698   6.635
30176WAT     H190770   0.878   9.664   6.726
30176WAT     H290771   0.928   9.758   6.602
30177WAT      O90772   4.867   0.061   6.970
30177WAT     H190773   4.923  -0.021   6.961
30177WAT     H290774   4.781   0.048   6.919
30178WAT      O90775   6.557   4.652   1.030
30178WAT     H190776   6.651   4.672   1.003
30178WAT     H290777   6.545   4.553   1.040
30179WAT      O90778   9.568   5.533   5.188
30179WAT     H190779   9.515   5.590   5.125
30179WAT     H290780   9.520   5.527   5.276
30180WAT      O90781   0.896   9.270   4.451
30180WAT     H190782   0.973   9.224   4.409
30180WAT     H290783   0.859   9.339   4.388
30181WAT      O90784   9.055   0.630   9.890
30181WAT     H190785   9.123   0.645   9.817
30181WAT     H290786   9.099   0.643   9.979
30182WAT      O90787   7.710   6.712   0.892
30182WAT     H190788   7.774   6.786   0.914
30182WAT     H290789   7.654   6.738   0.814
30183WAT      O90790   1.038   8.731   2.710
30183WAT     H190791   0.971   8.778   2.652
30183WAT     H290792   1.020   8.633   2.709
30184WAT      O90793   7.484   6.269   6.279
30184WAT     H190794   7.449   6.257   6.186
30184WAT     H290795   7.552   6.198   6.298
30185WAT      O90796   3.468   4.523   5.881
30185WAT     H190797   3.529   4.447   5.901
30185WAT     H290798   3.373   4.492   5.883
30186WAT      O90799   8.101   2.834   4.677
30186WAT     H190800   8.174   2.855   4.613
30186WAT     H290801   8.035   2.909   4.679
30187WAT      O90802   7.708   8.727   6.612
30187WAT     H190803   7.685   8.789   6.687
30187WAT     H290804   7.642   8.738   6.538
30188WAT      O90805   1.369   5.871   2.135
30188WAT     H190806   1.437   5.944   2.125
30188WAT     H290807   1.381   5.825   2.223
30189WAT      O90808   0.740   7.331   3.183
30189WAT     H190809   0.793   7.353   3.265
30189WAT     H290810   0.683   7.250   3.201
30190WAT      O90811   3.294   4.452   8.918
30190WAT     H190812   3.382   4.489   8.948
30190WAT     H290813   3.272   4.371   8.972
30191WAT      O90814   2.363   2.670   6.966
30191WAT     H190815   2.389   2.577   6.992
30191WAT     H290816   2.369   2.679   6.866
30192WAT      O90817   2.481   4.900   2.252
30192WAT     H190818   2.528   4.812   2.252
30192WAT     H290819   2.394   4.892   2.203
30193WAT      O90820   9.620   8.852   1.486
30193WAT     H190821   9.710   8.808   1.488
30193WAT     H290822   9.591   8.862   1.391
30194WAT      O90823   7.286   2.997   3.556
30194WAT     H190824   7.321   3.016   3.647
30194WAT     H290825   7.230   2.915   3.558
30195WAT      O90826   8.177   0.249   5.839
30195WAT     H190827   8.237   0.268   5.762
30195WAT     H290828   8.082   0.247   5.808
30196WAT      O90829   3.695   6.260   0.819
30196WAT     H190830   3.722   6.191   0.752
30196WAT     H290831   3.710   6.351   0.781
30197WAT      O90832   6.236   3.664   7.930
30197WAT     H190833   6.191   3.648   7.842
30197WAT     H290834   6.224   3.759   7.958
30198WAT      O90835   5.526   1.479   9.469
30198WAT     H190836   5.501   1.445   9.559
30198WAT     H290837   5.495   1.415   9.399
30199WAT      O90838   3.569   4.901   9.624
30199WAT     H190839   3.535   4.924   9.533
30199WAT     H290840   3.668   4.885   9.620
30200WAT      O90841   5.000   3.983   7.972
30200WAT     H190842   4.940   3.941   7.903
30200WAT     H290843   5.059   4.050   7.927
30201WAT      O90844   5.037   9.140   5.621
30201WAT     H190845   4.941   9.113   5.627
30201WAT     H290846   5.059   9.163   5.526
30202WAT      O90847   0.565   4.264   4.180
30202WAT     H190848   0.558   4.167   4.203
30202WAT     H290849   0.601   4.273   4.087
30203WAT      O90850   5.035   5.747   9.596
30203WAT     H190851   5.001   5.808   9.524
30203WAT     H290852   5.066   5.661   9.555
30204WAT      O90853   1.876   8.573   5.872
30204WAT     H190854   1.847   8.513   5.798
30204WAT     H290855   1.976   8.580   5.873
30205WAT      O90856   7.745   6.737   7.690
30205WAT     H190857   7.771   6.833   7.704
30205WAT     H290858   7.646   6.731   7.680
30206WAT      O90859   7.424   4.818   5.771
30206WAT     H190860   7.459   4.725   5.764
30206WAT     H290861   7.337   4.818   5.820
30207WAT      O90862   4.477   0.760   6.741
30207WAT     H190863   4.410   0.706   6.792
30207WAT     H290864   4.472   0.855   6.769
30208WAT      O90865   9.208   1.270   4.849
30208WAT     H190866   9.239   1.268   4.945
30208WAT     H290867   9.137   1.339   4.838
30209WAT      O90868   6.233   5.909   5.310
30209WAT     H190869   6.265   5.815   5.298
30209WAT     H290870   6.143   5.907   5.356
30210WAT      O90871   7.209   2.239   6.723
30210WAT     H190872   7.170   2.147   6.723
30210WAT     H290873   7.165   2.293   6.651
30211WAT      O90874   5.189   5.883   2.356
30211WAT     H190875   5.113   5.818   2.355
30211WAT     H290876   5.156   5.974   2.329
30212WAT      O90877   7.893   5.423   0.444
30212WAT     H190878   7.970   5.399   0.385
30212WAT     H290879   7.905   5.382   0.534
30213WAT      O90880   0.949   3.181   5.487
30213WAT     H190881   0.970   3.278   5.487
30213WAT     H290882   1.022   3.131   5.534
30214WAT      O90883   9.549   3.771   5.620
30214WAT     H190884   9.632   3.717   5.633
30214WAT     H290885   9.482   3.747   5.690
30215WAT      O90886   8.973   0.301   1.765
30215WAT     H190887   9.051   0.344   1.811
30215WAT     H290888   8.999   0.211   1.731
30216WAT      O90889   9.494   6.029   6.964
30216WAT     H190890   9.439   6.076   7.033
30216WAT     H290891   9.446   6.030   6.877
30217WAT      O90892   5.217   1.392   7.156
30217WAT     H190893   5.253   1.433   7.072
30217WAT     H290894   5.270   1.309   7.178
30218WAT      O90895   6.425   3.009   9.513
30218WAT     H190896   6.395   3.010   9.609
30218WAT     H290897   6.461   2.919   9.490
30219WAT      O90898   9.285   2.879   0.962
30219WAT     H190899   9.335   2.928   1.034
30219WAT     H290900   9.284   2.934   0.879
30220WAT      O90901   8.974   4.880   9.355
30220WAT     H190902   8.984   4.893   9.454
30220WAT     H290903   9.019   4.795   9.328
30221WAT      O90904   5.448   5.475   7.669
30221WAT     H190905   5.431   5.411   7.745
30221WAT     H290906   5.533   5.525   7.685
30222WAT      O90907   8.664   4.488   2.722
30222WAT     H190908   8.745   4.543   2.700
30222WAT     H290909   8.586   4.522   2.670
30223WAT      O90910   2.140   1.560   1.132
30223WAT     H190911   2.213   1.627   1.121
30223WAT     H290912   2.083   1.584   1.211
30224WAT      O90913   2.167   3.822   0.539
30224WAT     H190914   2.165   3.816   0.639
30224WAT     H290915   2.074   3.816   0.503
30225WAT      O90916   1.535   2.400   8.916
30225WAT     H190917   1.545   2.495   8.886
30225WAT     H290918   1.453   2.361   8.876
30226WAT      O90919   8.310   3.237   0.338
30226WAT     H190920   8.224   3.186   0.338
30226WAT     H290921   8.315   3.293   0.421
30227WAT      O90922   5.583   7.227   9.842
30227WAT     H190923   5.635   7.177   9.911
30227WAT     H290924   5.499   7.263   9.883
30228WAT      O90925   1.662   7.934   7.211
30228WAT     H190926   1.694   7.849   7.170
30228WAT     H290927   1.739   7.998   7.219
30229WAT      O90928   1.173   1.533   9.769
30229WAT     H190929   1.159   1.578   9.681
30229WAT     H290930   1.262   1.559   9.806
30230WAT      O90931   3.764   0.956   4.819
30230WAT     H190932   3.816   0.872   4.803
30230WAT     H290933   3.819   1.035   4.793
30231WAT      O90934   5.594   3.216   5.838
30231WAT     H190935   5.667   3.215   5.771
30231WAT     H290936   5.511   3.253   5.797
30232WAT      O90937   8.801   1.890   0.164
30232WAT     H190938   8.868   1.963   0.178
30232WAT     H290939   8.769   1.856   0.252
30233WAT      O90940   8.209   4.011   0.030
30233WAT     H190941   8.174   3.929   0.075
30233WAT     H290942   8.208   3.999  -0.069
30234WAT      O90943   5.687   6.354   5.454
30234WAT     H190944   5.745   6.435   5.466
30234WAT     H290945   5.744   6.272   5.455
30235WAT      O90946   5.748   8.027   4.096
30235WAT     H190947   5.694   8.105   4.127
30235WAT     H290948   5.843   8.038   4.126
30236WAT      O90949   0.515   9.063   4.539
30236WAT     H190950   0.468   9.151   4.541
30236WAT     H290951   0.605   9.073   4.582
30237WAT      O90952   7.058   2.814   3.603
30237WAT     H190953   7.045   2.904   3.644
30237WAT     H290954   7.039   2.819   3.505
30238WAT      O90955   3.482   7.713   9.375
30238WAT     H190956   3.470   7.812   9.387
30238WAT     H290957   3.514   7.694   9.282
30239WAT      O90958   2.119   3.843   5.437
30239WAT     H190959   2.171   3.900   5.502
30239WAT     H290960   2.150   3.748   5.444
30240WAT      O90961   4.198   5.433   0.776
30240WAT     H190962   4.213   5.501   0.704
30240WAT     H290963   4.165   5.479   0.858
30241WAT      O90964   3.965   2.266   4.539
30241WAT     H190965   3.941   2.175   4.572
30241WAT     H290966   3.890   2.329   4.559
30242WAT      O90967   1.993   6.378   6.302
30242WAT     H190968   2.072   6.330   6.266
30242WAT     H290969   1.979   6.353   6.398
30243WAT      O90970   2.488   0.254   5.415
30243WAT     H190971   2.504   0.328   5.481
30243WAT     H290972   2.509   0.166   5.457
30244WAT      O90973   7.949   7.829   0.368
30244WAT     H190974   8.030   7.813   0.425
30244WAT     H290975   7.900   7.910   0.401
30245WAT      O90976   9.521   7.166   8.687
30245WAT     H190977   9.609   7.140   8.648
30245WAT     H290978   9.461   7.202   8.616
30246WAT      O90979   5.722   5.721   6.716
30246WAT     H190980   5.634   5.675   6.709
30246WAT     H290981   5.709   5.820   6.707
30247WAT      O90982   6.802   4.157   7.544
30247WAT     H190983   6.797   4.180   7.641
30247WAT     H290984   6.733   4.089   7.522
30248WAT      O90985   7.937   8.906   2.107
30248WAT     H190986   7.856   8.960   2.085
30248WAT     H290987   7.944   8.828   2.045
30249WAT      O90988   7.464   2.977   7.849
30249WAT     H190989   7.512   3.064   7.841
30249WAT     H290990   7.389   2.987   7.915
30250WAT      O90991   3.985   0.515   8.753
30250WAT     H190992   4.004   0.595   8.808
30250WAT     H290993   4.043   0.439   8.782
30251WAT      O90994   2.158   7.585   6.607
30251WAT     H190995   2.100   7.639   6.546
30251WAT     H290996   2.125   7.490   6.610
30252WAT      O90997   5.675   6.379   3.018
30252WAT     H190998   5.656   6.438   3.097
30252WAT     H290999   5.749   6.316   3.042
30253WAT      O91000   2.747   4.553   3.920
30253WAT     H191001   2.816   4.569   3.849
30253WAT     H291002   2.776   4.477   3.978
30254WAT      O91003   0.244   3.292   8.085
30254WAT     H191004   0.204   3.335   8.166
30254WAT     H291005   0.176   3.287   8.012
30255WAT      O91006   6.338   2.955   4.225
30255WAT     H191007   6.343   2.857   4.208
30255WAT     H291008   6.334   3.004   4.138
30256WAT      O91009   4.628   4.740   7.173
30256WAT     H191010   4.689   4.816   7.151
30256WAT     H291011   4.559   4.772   7.239
30257WAT      O91012   8.417   0.575   7.766
30257WAT     H191013   8.363   0.626   7.700
30257WAT     H291014   8.480   0.514   7.717
30258WAT      O91015   0.848   2.989   7.779
30258WAT     H191016   0.872   2.905   7.828
30258WAT     H291017   0.912   3.062   7.805
30259WAT      O91018   7.513   5.403   7.985
30259WAT     H191019   7.557   5.399   8.075
30259WAT     H291020   7.584   5.412   7.915
30260WAT      O91021   7.201   4.115   0.195
30260WAT     H191022   7.228   4.178   0.268
30260WAT     H291023   7.264   4.038   0.192
30261WAT      O91024   1.891   8.146   7.663
30261WAT     H191025   1.972   8.181   7.709
30261WAT     H291026   1.916   8.067   7.607
30262WAT      O91027   8.171   3.947   8.220
30262WAT     H191028   8.267   3.949   8.193
30262WAT     H291029   8.161   3.989   8.310
30263WAT      O91030   0.672   9.741   5.737
30263WAT     H191031   0.649   9.717   5.831
30263WAT     H291032   0.725   9.826   5.736
30264WAT      O91033   7.053   4.563   3.890
30264WAT     H191034   7.148   4.538   3.909
30264WAT     H291035   7.051   4.651   3.842
30265WAT      O91036   4.017   8.379   9.466
30265WAT     H191037   4.071   8.295   9.477
30265WAT     H291038   3.961   8.393   9.547
30266WAT      O91039   6.147   0.206   3.535
30266WAT     H191040   6.187   0.262   3.608
30266WAT     H291041   6.211   0.201   3.459
30267WAT      O91042   0.638   4.194   3.450
30267WAT     H191043   0.677   4.262   3.513
30267WAT     H291044   0.592   4.123   3.503
30268WAT      O91045   1.589   3.932   2.780
30268WAT     H191046   1.635   3.876   2.848
30268WAT     H291047   1.490   3.917   2.785
30269WAT      O91048   6.510   5.587   1.621
30269WAT     H191049   6.492   5.593   1.523
30269WAT     H291050   6.548   5.497   1.642
30270WAT      O91051   5.721   1.999   7.707
30270WAT     H191052   5.655   1.950   7.765
30270WAT     H291053   5.798   1.939   7.687
30271WAT      O91054   9.684   1.482   1.753
30271WAT     H191055   9.661   1.579   1.752
30271WAT     H291056   9.757   1.464   1.687
30272WAT      O91057   6.687   0.311   0.609
30272WAT     H191058   6.712   0.217   0.585
30272WAT     H291059   6.658   0.360   0.526
30273WAT      O91060   9.016   0.251   9.492
30273WAT     H191061   8.996   0.183   9.563
30273WAT     H291062   9.108   0.288   9.507
30274WAT      O91063   7.785   1.618   6.088
30274WAT     H191064   7.775   1.519   6.080
30274WAT     H291065   7.695   1.660   6.097
30275WAT      O91066   9.517   7.853   4.897
30275WAT     H191067   9.522   7.761   4.859
30275WAT     H291068   9.489   7.917   4.826
30276WAT      O91069   0.265   0.863   3.269
30276WAT     H191070   0.330   0.789   3.283
30276WAT     H291071   0.185   0.849   3.328
30277WAT      O91072   1.396   9.723   6.254
30277WAT     H191073   1.303   9.708   6.222
30277WAT     H291074   1.446   9.637   6.251
30278WAT      O91075   9.779   5.286   3.128
30278WAT     H191076   9.874   5.314   3.117
30278WAT     H291077   9.762   5.265   3.225
30279WAT      O91078   0.197   1.380   3.665
30279WAT     H191079   0.265   1.329   3.716
30279WAT     H291080   0.195   1.475   3.698
30280WAT      O91081   8.660   5.299   0.986
30280WAT     H191082   8.617   5.211   0.965
30280WAT     H291083   8.679   5.347   0.901
30281WAT      O91084   5.220   9.014   2.406
30281WAT     H191085   5.184   9.023   2.499
30281WAT     H291086   5.147   9.030   2.340
30282WAT      O91087   7.782   7.879   3.590
30282WAT     H191088   7.819   7.902   3.501
30282WAT     H291089   7.791   7.957   3.652
30283WAT      O91090   0.377   2.065   7.724
30283WAT     H191091   0.374   1.966   7.711
30283WAT     H291092   0.473   2.096   7.722
30284WAT      O91093   9.678   8.057   3.218
30284WAT     H191094   9.719   8.145   3.194
30284WAT     H291095   9.626   8.022   3.140
30285WAT      O91096   3.091   4.520   3.519
30285WAT     H191097   3.111   4.590   3.451
30285WAT     H291098   3.172   4.463   3.533
30286WAT      O91099   4.500   4.956   5.733
30286WAT     H191100   4.475   4.885   5.799
30286WAT     H291101   4.499   4.918   5.640
30287WAT      O91102   0.479   0.274   3.049
30287WAT     H191103   0.390   0.313   3.025
30287WAT     H291104   0.551   0.322   2.999
30288WAT      O91105   0.544   3.746   3.267
30288WAT     H191106   0.581   3.662   3.227
30288WAT     H291107   0.601   3.774   3.345
30289WAT      O91108   2.371   0.602   7.718
30289WAT     H191109   2.443   0.552   7.767
30289WAT     H291110   2.357   0.691   7.761
30290WAT      O91111   2.184   1.823   8.411
30290WAT     H191112   2.154   1.744   8.357
30290WAT     H291113   2.166   1.805   8.508
30291WAT      O91114   7.118   2.788   9.311
30291WAT     H191115   7.049   2.805   9.241
30291WAT     H291116   7.143   2.692   9.312
30292WAT      O91117   8.985   1.067   0.037
30292WAT     H191118   8.928   1.119  -0.027
30292WAT     H291119   9.074   1.049  -0.005
30293WAT      O91120   0.668   0.030   4.916
30293WAT     H191121   0.684   0.025   4.817
30293WAT     H291122   0.617   0.113   4.937
30294WAT      O91123   3.561   3.809   5.598
30294WAT     H191124   3.526   3.720   5.627
30294WAT     H291125   3.533   3.828   5.504
30295WAT      O91126   3.022   1.641   6.920
30295WAT     H191127   3.088   1.716   6.911
30295WAT     H291128   3.055   1.562   6.867
30296WAT      O91129   2.459   2.025   8.905
30296WAT     H191130   2.367   2.061   8.914
30296WAT     H291131   2.524   2.101   8.896
30297WAT      O91132   1.365   9.329   0.041
30297WAT     H191133   1.384   9.293  -0.050
30297WAT     H291134   1.412   9.416   0.053
30298WAT      O91135   9.222   2.362   1.941
30298WAT     H191136   9.319   2.385   1.942
30298WAT     H291137   9.176   2.416   1.870
30299WAT      O91138   5.985   7.269   6.734
30299WAT     H191139   6.009   7.218   6.652
30299WAT     H291140   6.022   7.222   6.814
30300WAT      O91141   2.932   4.249   6.073
30300WAT     H191142   3.011   4.255   6.134
30300WAT     H291143   2.926   4.157   6.035
30301WAT      O91144   6.122   3.919   3.316
30301WAT     H191145   6.101   3.958   3.226
30301WAT     H291146   6.037   3.897   3.363
30302WAT      O91147   7.558   1.451   5.264
30302WAT     H191148   7.598   1.366   5.297
30302WAT     H291149   7.626   1.501   5.210
30303WAT      O91150   5.319   9.453   1.856
30303WAT     H191151   5.417   9.442   1.838
30303WAT     H291152   5.267   9.391   1.797
30304WAT      O91153   7.520   2.878   1.159
30304WAT     H191154   7.499   2.831   1.073
30304WAT     H291155   7.557   2.968   1.139
30305WAT      O91156   2.730   8.778   2.275
30305WAT     H191157   2.712   8.679   2.278
30305WAT     H291158   2.670   8.825   2.339
30306WAT      O91159   3.953   4.487   7.459
30306WAT     H191160   4.021   4.438   7.405
30306WAT     H291161   3.917   4.564   7.407
30307WAT      O91162   9.636   1.306   4.334
30307WAT     H191163   9.584   1.241   4.389
30307WAT     H291164   9.734   1.288   4.345
30308WAT      O91165   4.767   7.983   5.792
30308WAT     H191166   4.726   7.893   5.806
30308WAT     H291167   4.847   7.974   5.732
30309WAT      O91168   0.170   5.959   5.621
30309WAT     H191169   0.233   6.028   5.654
30309WAT     H291170   0.221   5.887   5.573
30310WAT      O91171   9.305   1.531   2.181
30310WAT     H191172   9.296   1.445   2.130
30310WAT     H291173   9.401   1.551   2.196
30311WAT      O91174   4.631   9.192   6.173
30311WAT     H191175   4.627   9.243   6.087
30311WAT     H291176   4.724   9.156   6.186
30312WAT      O91177   4.227   7.907   9.810
30312WAT     H191178   4.137   7.936   9.777
30312WAT     H291179   4.296   7.975   9.783
30313WAT      O91180   1.368   6.821   1.844
30313WAT     H191181   1.430   6.828   1.765
30313WAT     H291182   1.421   6.794   1.925
30314WAT      O91183   3.455   3.504   5.586
30314WAT     H191184   3.394   3.468   5.656
30314WAT     H291185   3.550   3.497   5.617
30315WAT      O91186   2.125   8.244   9.813
30315WAT     H191187   2.152   8.209   9.903
30315WAT     H291188   2.025   8.254   9.810
30316WAT      O91189   4.870   3.371   7.897
30316WAT     H191190   4.820   3.451   7.864
30316WAT     H291191   4.960   3.399   7.930
30317WAT      O91192   6.468   8.393   2.836
30317WAT     H191193   6.456   8.323   2.765
30317WAT     H291194   6.390   8.389   2.899
30318WAT      O91195   0.978   1.033   3.669
30318WAT     H191196   1.028   0.978   3.603
30318WAT     H291197   1.043   1.083   3.726
30319WAT      O91198   0.622   9.737   8.065
30319WAT     H191199   0.639   9.822   8.116
30319WAT     H291200   0.567   9.675   8.121
30320WAT      O91201   7.026   3.147   5.733
30320WAT     H191202   7.098   3.214   5.751
30320WAT     H291203   6.957   3.187   5.674
30321WAT      O91204   1.702   0.903   0.066
30321WAT     H191205   1.768   0.897  -0.008
30321WAT     H291206   1.666   0.812   0.086
30322WAT      O91207   0.028   0.354   0.003
30322WAT     H191208   0.053   0.356   0.100
30322WAT     H291209   0.107   0.322  -0.050
30323WAT      O91210   5.565   2.852   1.246
30323WAT     H191211   5.488   2.913   1.228
30323WAT     H291212   5.635   2.866   1.176
30324WAT      O91213   6.602   0.193   2.141
30324WAT     H191214   6.519   0.162   2.096
30324WAT     H291215   6.580   0.226   2.233
30325WAT      O91216   1.314   2.694   3.976
30325WAT     H191217   1.215   2.696   3.991
30325WAT     H291218   1.338   2.616   3.919
30326WAT      O91219   0.088   5.681   0.612
30326WAT     H191220   0.155   5.637   0.553
30326WAT     H291221   0.119   5.772   0.637
30327WAT      O91222   4.633   0.748   9.818
30327WAT     H191223   4.610   0.672   9.756
30327WAT     H291224   4.560   0.759   9.885
30328WAT      O91225   8.026   3.031   1.875
30328WAT     H191226   7.997   3.057   1.783
30328WAT     H291227   7.975   3.085   1.942
30329WAT      O91228   5.743   2.463   0.883
30329WAT     H191229   5.730   2.413   0.797
30329WAT     H291230   5.692   2.416   0.956
30330WAT      O91231   2.457   6.601   5.411
30330WAT     H191232   2.397   6.667   5.366
30330WAT     H291233   2.484   6.531   5.346
30331WAT      O91234   5.002   6.334   6.034
30331WAT     H191235   4.932   6.343   5.963
30331WAT     H291236   5.039   6.424   6.056
30332WAT      O91237   9.396   3.226   4.478
30332WAT     H191238   9.374   3.132   4.505
30332WAT     H291239   9.334   3.255   4.405
30333WAT      O91240   5.512   3.407   6.213
30333WAT     H191241   5.537   3.453   6.298
30333WAT     H291242   5.589   3.351   6.182
30334WAT      O91243   4.908   5.997   7.381
30334WAT     H191244   4.876   5.905   7.360
30334WAT     H291245   4.912   6.051   7.297
30335WAT      O91246   3.154   8.952   1.848
30335WAT     H191247   3.220   8.945   1.773
30335WAT     H291248   3.185   9.019   1.915
30336WAT      O91249   5.301   3.781   8.143
30336WAT     H191250   5.249   3.837   8.208
30336WAT     H291251   5.248   3.770   8.059
30337WAT      O91252   1.572   2.675   5.685
30337WAT     H191253   1.540   2.731   5.761
30337WAT     H291254   1.503   2.606   5.663
30338WAT      O91255   1.324   5.488   9.125
30338WAT     H191256   1.379   5.427   9.183
30338WAT     H291257   1.325   5.580   9.163
30339WAT      O91258   8.744   2.592   2.302
30339WAT     H191259   8.667   2.648   2.271
30339WAT     H291260   8.744   2.505   2.254
30340WAT      O91261   2.590   3.235   8.250
30340WAT     H191262   2.549   3.151   8.216
30340WAT     H291263   2.556   3.312   8.196
30341WAT      O91264   1.451   2.609   7.166
30341WAT     H191265   1.418   2.593   7.073
30341WAT     H291266   1.374   2.624   7.228
30342WAT      O91267   0.191   6.201   0.109
30342WAT     H191268   0.120   6.224   0.043
30342WAT     H291269   0.277   6.185   0.062
30343WAT      O91270   0.373   6.758   3.731
30343WAT     H191271   0.314   6.835   3.755
30343WAT     H291272   0.467   6.779   3.755
30344WAT      O91273   6.880   4.391   1.877
30344WAT     H191274   6.818   4.447   1.821
30344WAT     H291275   6.974   4.425   1.867
30345WAT      O91276   5.515   1.626   4.931
30345WAT     H191277   5.512   1.627   4.831
30345WAT     H291278   5.477   1.711   4.967
30346WAT      O91279   7.068   1.718   7.230
30346WAT     H191280   7.125   1.777   7.288
30346WAT     H291281   7.072   1.624   7.264
30347WAT      O91282   9.274   4.478   8.259
30347WAT     H191283   9.353   4.499   8.200
30347WAT     H291284   9.254   4.380   8.253
30348WAT      O91285   4.629   8.070   1.742
30348WAT     H191286   4.692   8.081   1.819
30348WAT     H291287   4.558   8.141   1.746
30349WAT      O91288   1.467   4.006   4.585
30349WAT     H191289   1.368   4.014   4.573
30349WAT     H291290   1.514   4.062   4.517
30350WAT      O91291   0.280   8.497   6.655
30350WAT     H191292   0.378   8.508   6.637
30350WAT     H291293   0.253   8.403   6.634
30351WAT      O91294   9.536   9.620   6.110
30351WAT     H191295   9.610   9.596   6.173
30351WAT     H291296   9.547   9.570   6.024
30352WAT      O91297   3.471   4.312   6.315
30352WAT     H191298   3.516   4.389   6.270
30352WAT     H291299   3.410   4.347   6.387
30353WAT      O91300   3.854   4.215   2.315
30353WAT     H191301   3.950   4.201   2.340
30353WAT     H291302   3.827   4.310   2.334
30354WAT      O91303   0.267   7.735   9.345
30354WAT     H191304   0.349   7.681   9.363
30354WAT     H291305   0.187   7.690   9.385
30355WAT      O91306   4.822   8.121   1.255
30355WAT     H191307   4.745   8.167   1.212
30355WAT     H291308   4.791   8.072   1.336
30356WAT      O91309   3.667   4.978   0.521
30356WAT     H191310   3.707   5.042   0.586
30356WAT     H291311   3.711   4.889   0.530
30357WAT      O91312   9.178   8.747   1.246
30357WAT     H191313   9.121   8.708   1.173
30357WAT     H291314   9.274   8.724   1.228
30358WAT      O91315   1.455   2.437   2.227
30358WAT     H191316   1.464   2.345   2.187
30358WAT     H291317   1.358   2.455   2.247
30359WAT      O91318   6.523   4.488   8.155
30359WAT     H191319   6.464   4.558   8.114
30359WAT     H291320   6.612   4.489   8.110
30360WAT      O91321   9.659   0.466   2.037
30360WAT     H191322   9.745   0.459   1.987
30360WAT     H291323   9.583   0.441   1.977
30361WAT      O91324   6.489   7.048   4.429
30361WAT     H191325   6.558   7.001   4.485
30361WAT     H291326   6.440   7.115   4.486
30362WAT      O91327   5.228   0.813   2.784
30362WAT     H191328   5.291   0.741   2.812
30362WAT     H291329   5.135   0.787   2.807
30363WAT      O91330   7.321   7.187   3.970
30363WAT     H191331   7.314   7.259   3.901
30363WAT     H291332   7.232   7.144   3.983
30364WAT      O91333   2.440   1.162   9.348
30364WAT     H191334   2.443   1.261   9.365
30364WAT     H291335   2.382   1.118   9.416
30365WAT      O91336   5.082   5.955   8.837
30365WAT     H191337   5.078   5.888   8.911
30365WAT     H291338   5.178   5.980   8.821
30366WAT      O91339   7.067   0.761   3.130
30366WAT     H191340   7.032   0.680   3.082
30366WAT     H291341   7.160   0.742   3.163
30367WAT      O91342   2.294   7.013   3.570
30367WAT     H191343   2.311   7.098   3.519
30367WAT     H291344   2.324   7.024   3.664
30368WAT      O91345   4.338   6.232   6.123
30368WAT     H191346   4.302   6.177   6.047
30368WAT     H291347   4.337   6.329   6.097
30369WAT      O91348   7.762   6.524   5.409
30369WAT     H191349   7.823   6.528   5.330
30369WAT     H291350   7.698   6.447   5.398
30370WAT      O91351   2.638   5.252   5.676
30370WAT     H191352   2.635   5.156   5.651
30370WAT     H291353   2.573   5.304   5.621
30371WAT      O91354   7.855   4.882   8.212
30371WAT     H191355   7.953   4.869   8.197
30371WAT     H291356   7.824   4.964   8.163
30372WAT      O91357   5.809   9.032   8.321
30372WAT     H191358   5.861   8.951   8.350
30372WAT     H291359   5.741   9.054   8.390
30373WAT      O91360   8.786   9.383   9.300
30373WAT     H191361   8.769   9.366   9.203
30373WAT     H291362   8.787   9.481   9.317
30374WAT      O91363   4.983   5.249   6.080
30374WAT     H191364   4.911   5.200   6.128
30374WAT     H291365   4.966   5.244   5.981
30375WAT      O91366   5.943   8.321   5.365
30375WAT     H191367   5.952   8.420   5.381
30375WAT     H291368   6.024   8.275   5.402
30376WAT      O91369   3.432   3.042   2.862
30376WAT     H191370   3.470   3.080   2.946
30376WAT     H291371   3.478   2.955   2.842
30377WAT      O91372   2.688   8.074   7.321
30377WAT     H191373   2.769   8.080   7.262
30377WAT     H291374   2.622   8.145   7.295
30378WAT      O91375   4.539   2.884   1.678
30378WAT     H191376   4.608   2.816   1.699
30378WAT     H291377   4.464   2.842   1.628
30379WAT      O91378   7.693   6.853   1.686
30379WAT     H191379   7.679   6.947   1.717
30379WAT     H291380   7.760   6.808   1.746
30380WAT      O91381   1.262   6.149   6.177
30380WAT     H191382   1.324   6.226   6.194
30380WAT     H291383   1.308   6.064   6.199
30381WAT      O91384   2.938   2.123   8.477
30381WAT     H191385   2.911   2.032   8.448
30381WAT     H291386   2.963   2.178   8.397
30382WAT      O91387   0.518   2.458   7.265
30382WAT     H191388   0.486   2.376   7.217
30382WAT     H291389   0.613   2.445   7.295
30383WAT      O91390   3.717   7.879   4.861
30383WAT     H191391   3.669   7.843   4.940
30383WAT     H291392   3.666   7.956   4.823
30384WAT      O91393   4.550   7.844   9.720
30384WAT     H191394   4.536   7.918   9.654
30384WAT     H291395   4.594   7.882   9.802
30385WAT      O91396   9.036   0.717   4.834
30385WAT     H191397   9.012   0.781   4.906
30385WAT     H291398   9.101   0.650   4.869
30386WAT      O91399   2.239   5.995   1.402
30386WAT     H191400   2.257   5.898   1.420
30386WAT     H291401   2.146   6.005   1.368
30387WAT      O91402   0.491   9.039   8.319
30387WAT     H191403   0.583   9.024   8.285
30387WAT     H291404   0.426   8.985   8.265
30388WAT      O91405   7.144   2.604   8.882
30388WAT     H191406   7.196   2.543   8.822
30388WAT     H291407   7.091   2.668   8.828
30389WAT      O91408   6.383   8.567   2.485
30389WAT     H191409   6.295   8.545   2.528
30389WAT     H291410   6.429   8.482   2.460
30390WAT      O91411   8.894   4.427   4.853
30390WAT     H191412   8.801   4.443   4.822
30390WAT     H291413   8.945   4.514   4.853
30391WAT      O91414   2.443   1.118   8.493
30391WAT     H191415   2.481   1.190   8.434
30391WAT     H291416   2.513   1.086   8.556
30392WAT      O91417   8.225   8.222   5.854
30392WAT     H191418   8.323   8.203   5.849
30392WAT     H291419   8.187   8.181   5.937
30393WAT      O91420   0.476   2.301   2.190
30393WAT     H191421   0.394   2.251   2.216
30393WAT     H291422   0.538   2.306   2.269
30394WAT      O91423   9.391   6.266   0.174
30394WAT     H191424   9.408   6.249   0.271
30394WAT     H291425   9.299   6.304   0.163
30395WAT      O91426   4.863   9.666   3.708
30395WAT     H191427   4.794   9.720   3.659
30395WAT     H291428   4.820   9.620   3.785
30396WAT      O91429   6.206   6.237   0.176
30396WAT     H191430   6.168   6.147   0.198
30396WAT     H291431   6.219   6.289   0.261
30397WAT      O91432   6.002   7.347   7.306
30397WAT     H191433   6.046   7.275   7.360
30397WAT     H291434   6.055   7.363   7.223
30398WAT      O91435   1.580   8.334   7.825
30398WAT     H191436   1.679   8.320   7.815
30398WAT     H291437   1.556   8.334   7.922
30399WAT      O91438   3.832   1.516   3.516
30399WAT     H191439   3.871   1.585   3.578
30399WAT     H291440   3.882   1.518   3.430
30400WAT      O91441   0.394   0.568   8.169
30400WAT     H191442   0.337   0.580   8.251
30400WAT     H291443   0.481   0.615   8.182
30401WAT      O91444   2.962   7.068   4.455
30401WAT     H191445   2.954   7.132   4.379
30401WAT     H291446   2.944   7.115   4.541
30402WAT      O91447   8.752   9.336   6.684
30402WAT     H191448   8.745   9.292   6.594
30402WAT     H291449   8.677   9.401   6.695
30403WAT      O91450   6.572   2.512   8.212
30403WAT     H191451   6.592   2.506   8.310
30403WAT     H291452   6.475   2.530   8.200
30404WAT      O91453   0.930   5.202   8.420
30404WAT     H191454   1.014   5.153   8.440
30404WAT     H291455   0.863   5.186   8.493
30405WAT      O91456   9.054   7.041   2.249
30405WAT     H191457   9.062   6.964   2.187
30405WAT     H291458   8.970   7.091   2.231
30406WAT      O91459   2.746   7.007   5.566
30406WAT     H191460   2.822   6.952   5.530
30406WAT     H291461   2.747   7.097   5.522
30407WAT      O91462   2.478   4.672   7.920
30407WAT     H191463   2.409   4.631   7.979
30407WAT     H291464   2.441   4.684   7.828
30408WAT      O91465   9.707   8.269   0.394
30408WAT     H191466   9.756   8.186   0.420
30408WAT     H291467   9.771   8.345   0.384
30409WAT      O91468   7.978   8.881   1.366
30409WAT     H191469   8.066   8.909   1.405
30409WAT     H291470   7.904   8.918   1.423
30410WAT      O91471   1.037   6.306   4.513
30410WAT     H191472   1.134   6.297   4.490
30410WAT     H291473   1.027   6.368   4.592
30411WAT      O91474   1.172   7.290   5.130
30411WAT     H191475   1.201   7.200   5.162
30411WAT     H291476   1.085   7.315   5.173
30412WAT      O91477   1.378   4.351   8.840
30412WAT     H191478   1.401   4.392   8.928
30412WAT     H291479   1.435   4.270   8.825
30413WAT      O91480   4.922   3.720   7.362
30413WAT     H191481   4.849   3.697   7.299
30413WAT     H291482   4.988   3.780   7.316
30414WAT      O91483   0.061   4.063   3.611
30414WAT     H191484   0.007   4.147   3.620
30414WAT     H291485   0.000   3.985   3.603
30415WAT      O91486   1.208   6.096   8.577
30415WAT     H191487   1.241   6.012   8.534
30415WAT     H291488   1.116   6.081   8.614
30416WAT      O91489   6.611   6.709   9.161
30416WAT     H191490   6.574   6.798   9.184
30416WAT     H291491   6.611   6.697   9.062
30417WAT      O91492   2.072   2.468   7.432
30417WAT     H191493   2.042   2.463   7.337
30417WAT     H291494   2.003   2.425   7.491
30418WAT      O91495   3.886   0.968   3.235
30418WAT     H191496   3.857   1.055   3.197
30418WAT     H291497   3.807   0.906   3.240
30419WAT      O91498   1.742   1.528   9.483
30419WAT     H191499   1.665   1.474   9.447
30419WAT     H291500   1.817   1.466   9.507
30420WAT      O91501   6.077   8.771   2.199
30420WAT     H191502   6.029   8.847   2.155
30420WAT     H291503   6.154   8.807   2.253
30421WAT      O91504   0.202   2.807   4.802
30421WAT     H191505   0.293   2.768   4.788
30421WAT     H291506   0.134   2.735   4.789
30422WAT      O91507   3.732   3.998   8.893
30422WAT     H191508   3.678   3.926   8.849
30422WAT     H291509   3.825   3.996   8.857
30423WAT      O91510   0.844   0.064   0.219
30423WAT     H191511   0.929   0.081   0.269
30423WAT     H291512   0.835   0.131   0.146
30424WAT      O91513   4.563   0.323   5.565
30424WAT     H191514   4.473   0.292   5.593
30424WAT     H291515   4.611   0.248   5.519
30425WAT      O91516   8.911   5.315   0.151
30425WAT     H191517   8.847   5.374   0.200
30425WAT     H291518   8.996   5.365   0.135
30426WAT      O91519   9.872   9.089   0.261
30426WAT     H191520   9.813   9.009   0.273
30426WAT     H291521   9.898   9.125   0.351
30427WAT      O91522   4.175   1.330   4.967
30427WAT     H191523   4.175   1.428   4.951
30427WAT     H291524   4.269   1.297   4.976
30428WAT      O91525   0.892   5.506   2.606
30428WAT     H191526   0.980   5.468   2.636
30428WAT     H291527   0.830   5.512   2.684
30429WAT      O91528   9.716   8.333   5.931
30429WAT     H191529   9.771   8.254   5.902
30429WAT     H291530   9.670   8.372   5.851
30430WAT      O91531   3.435   9.311   9.781
30430WAT     H191532   3.485   9.359   9.853
30430WAT     H291533   3.350   9.275   9.818
30431WAT      O91534   3.791   6.642   1.786
30431WAT     H191535   3.767   6.575   1.716
30431WAT     H291536   3.890   6.648   1.795
30432WAT      O91537   0.555   4.006   2.087
30432WAT     H191538   0.492   3.937   2.051
30432WAT     H291539   0.642   3.964   2.111
30433WAT      O91540   7.322   8.950   9.074
30433WAT     H191541   7.364   8.940   9.164
30433WAT     H291542   7.289   9.044   9.062
30434WAT      O91543   3.845   0.839   3.710
30434WAT     H191544   3.807   0.930   3.724
30434WAT     H291545   3.924   0.844   3.649
30435WAT      O91546   1.600   2.083   3.831
30435WAT     H191547   1.576   2.129   3.745
30435WAT     H291548   1.606   1.985   3.815
30436WAT      O91549   7.700   1.270   2.609
30436WAT     H191550   7.728   1.359   2.572
30436WAT     H291551   7.696   1.276   2.709
30437WAT      O91552   9.560   0.230   0.028
30437WAT     H191553   9.516   0.140   0.030
30437WAT     H291554   9.620   0.237  -0.052
30438WAT      O91555   4.280   1.243   9.123
30438WAT     H191556   4.332   1.281   9.046
30438WAT     H291557   4.236   1.157   9.095
30439WAT      O91558   1.136   4.022   8.659
30439WAT     H191559   1.076   4.102   8.650
30439WAT     H291560   1.230   4.048   8.637
30440WAT      O91561   1.208   7.343   3.078
30440WAT     H191562   1.146   7.417   3.051
30440WAT     H291563   1.189   7.262   3.023
30441WAT      O91564   9.278   7.584   2.098
30441WAT     H191565   9.360   7.565   2.043
30441WAT     H291566   9.215   7.507   2.092
30442WAT      O91567   0.431   0.190   5.226
30442WAT     H191568   0.464   0.096   5.226
30442WAT     H291569   0.353   0.197   5.289
30443WAT      O91570   5.698   1.265   2.356
30443WAT     H191571   5.701   1.210   2.273
30443WAT     H291572   5.628   1.336   2.347
30444WAT      O91573   4.653   6.677   4.551
30444WAT     H191574   4.695   6.678   4.642
30444WAT     H291575   4.629   6.770   4.524
30445WAT      O91576   5.952   1.121   1.940
30445WAT     H191577   5.968   1.030   1.977
30445WAT     H291578   6.034   1.177   1.951
30446WAT      O91579   1.660   7.060   8.990
30446WAT     H191580   1.634   6.976   9.036
30446WAT     H291581   1.693   7.127   9.057
30447WAT      O91582   3.742   5.867   6.010
30447WAT     H191583   3.749   5.965   6.031
30447WAT     H291584   3.832   5.825   6.013
30448WAT      O91585   1.181   3.606   3.227
30448WAT     H191586   1.229   3.694   3.221
30448WAT     H291587   1.083   3.622   3.221
30449WAT      O91588   6.914   5.445   1.518
30449WAT     H191589   6.827   5.411   1.485
30449WAT     H291590   6.978   5.369   1.528
30450WAT      O91591   0.975   7.988   4.033
30450WAT     H191592   0.918   7.955   3.959
30450WAT     H291593   1.035   8.061   3.999
30451WAT      O91594   7.121   7.366   2.429
30451WAT     H191595   7.141   7.461   2.452
30451WAT     H291596   7.022   7.350   2.437
30452WAT      O91597   5.746   4.524   1.948
30452WAT     H191598   5.656   4.519   1.904
30452WAT     H291599   5.740   4.483   2.039
30453WAT      O91600   1.585   5.605   7.670
30453WAT     H191601   1.593   5.526   7.608
30453WAT     H291602   1.528   5.675   7.627
30454WAT      O91603   3.949   0.738   2.031
30454WAT     H191604   3.949   0.763   1.934
30454WAT     H291605   3.866   0.772   2.075
30455WAT      O91606   4.123   9.075   1.689
30455WAT     H191607   4.144   9.090   1.785
30455WAT     H291608   4.120   9.163   1.641
30456WAT      O91609   0.792   0.767   0.493
30456WAT     H191610   0.859   0.733   0.559
30456WAT     H291611   0.805   0.721   0.406
30457WAT      O91612   8.740   7.911   4.408
30457WAT     H191613   8.791   7.843   4.461
30457WAT     H291614   8.644   7.908   4.434
30458WAT      O91615   0.828   7.415   1.638
30458WAT     H191616   0.889   7.344   1.605
30458WAT     H291617   0.827   7.492   1.573
30459WAT      O91618   4.725   9.315   7.350
30459WAT     H191619   4.719   9.215   7.356
30459WAT     H291620   4.634   9.355   7.362
30460WAT      O91621   7.403   7.735   3.545
30460WAT     H191622   7.361   7.796   3.477
30460WAT     H291623   7.498   7.717   3.519
30461WAT      O91624   3.052   3.449   9.827
30461WAT     H191625   3.072   3.543   9.796
30461WAT     H291626   3.004   3.400   9.755
30462WAT      O91627   8.363   5.604   9.474
30462WAT     H191628   8.354   5.505   9.489
30462WAT     H291629   8.340   5.625   9.379
30463WAT      O91630   6.712   6.631   8.372
30463WAT     H191631   6.702   6.582   8.286
30463WAT     H291632   6.757   6.719   8.356
30464WAT      O91633   4.919   7.877   6.931
30464WAT     H191634   4.826   7.841   6.940
30464WAT     H291635   4.917   7.962   6.877
30465WAT      O91636   1.818   6.195   5.357
30465WAT     H191637   1.740   6.258   5.345
30465WAT     H291638   1.857   6.208   5.448
30466WAT      O91639   6.869   9.070   4.290
30466WAT     H191640   6.937   9.141   4.310
30466WAT     H291641   6.910   8.980   4.305
30467WAT      O91642   8.909   0.659   9.330
30467WAT     H191643   8.897   0.698   9.421
30467WAT     H291644   8.839   0.696   9.269
30468WAT      O91645   8.687   5.491   3.093
30468WAT     H191646   8.595   5.480   3.056
30468WAT     H291647   8.683   5.539   3.180
30469WAT      O91648   8.310   7.208   6.620
30469WAT     H191649   8.293   7.241   6.527
30469WAT     H291650   8.408   7.209   6.639
30470WAT      O91651   2.345   5.924   9.880
30470WAT     H191652   2.365   5.831   9.850
30470WAT     H291653   2.377   5.936   9.974
30471WAT      O91654   8.180   8.329   9.137
30471WAT     H191655   8.251   8.366   9.076
30471WAT     H291656   8.200   8.357   9.231
30472WAT      O91657   2.718   2.264   3.950
30472WAT     H191658   2.715   2.188   3.886
30472WAT     H291659   2.644   2.328   3.930
30473WAT      O91660   1.878   4.363   1.390
30473WAT     H191661   1.906   4.345   1.484
30473WAT     H291662   1.800   4.306   1.366
30474WAT      O91663   9.160   1.291   0.622
30474WAT     H191664   9.151   1.199   0.660
30474WAT     H291665   9.114   1.357   0.681
30475WAT      O91666   6.549   8.783   6.330
30475WAT     H191667   6.628   8.817   6.277
30475WAT     H291668   6.554   8.684   6.338
30476WAT      O91669   4.361   3.471   5.085
30476WAT     H191670   4.405   3.519   5.160
30476WAT     H291671   4.263   3.494   5.082
30477WAT      O91672   1.097   5.873   5.802
30477WAT     H191673   1.155   5.848   5.879
30477WAT     H291674   1.154   5.903   5.726
30478WAT      O91675   5.540   0.996   7.346
30478WAT     H191676   5.619   0.991   7.408
30478WAT     H291677   5.501   1.088   7.350
30479WAT      O91678   0.844   2.696   4.776
30479WAT     H191679   0.924   2.752   4.754
30479WAT     H291680   0.765   2.727   4.723
30480WAT      O91681   8.371   7.815   3.392
30480WAT     H191682   8.382   7.728   3.440
30480WAT     H291683   8.275   7.843   3.395
30481WAT      O91684   5.918   6.175   5.079
30481WAT     H191685   5.932   6.092   5.025
30481WAT     H291686   5.868   6.242   5.024
30482WAT      O91687   6.680   3.433   5.031
30482WAT     H191688   6.649   3.355   5.086
30482WAT     H291689   6.776   3.451   5.051
30483WAT      O91690   3.043   0.440   0.692
30483WAT     H191691   2.998   0.430   0.603
30483WAT     H291692   3.137   0.407   0.686
30484WAT      O91693   6.416   1.100   9.117
30484WAT     H191694   6.433   1.003   9.100
30484WAT     H291695   6.395   1.113   9.214
30485WAT      O91696   5.627   7.528   9.591
30485WAT     H191697   5.689   7.480   9.529
30485WAT     H291698   5.558   7.577   9.538
30486WAT      O91699   4.966   9.686   7.389
30486WAT     H191700   4.947   9.617   7.459
30486WAT     H291701   5.054   9.729   7.408
30487WAT      O91702   2.689   0.326   3.984
30487WAT     H191703   2.775   0.298   3.941
30487WAT     H291704   2.614   0.314   3.918
30488WAT      O91705   7.390   4.068   4.721
30488WAT     H191706   7.435   3.984   4.692
30488WAT     H291707   7.308   4.083   4.665
30489WAT      O91708   1.215   9.077   9.691
30489WAT     H191709   1.301   9.112   9.655
30489WAT     H291710   1.143   9.145   9.677
30490WAT      O91711   6.048   2.340   0.899
30490WAT     H191712   5.986   2.285   0.955
30490WAT     H291713   6.065   2.427   0.944
30491WAT      O91714   9.685   2.749   0.939
30491WAT     H191715   9.777   2.755   0.899
30491WAT     H291716   9.622   2.805   0.887
30492WAT      O91717   0.610   5.710   1.373
30492WAT     H191718   0.621   5.808   1.357
30492WAT     H291719   0.639   5.660   1.292
30493WAT      O91720   3.878   3.917   5.834
30493WAT     H191721   3.951   3.973   5.872
30493WAT     H291722   3.902   3.820   5.843
30494WAT      O91723   6.441   9.048   7.676
30494WAT     H191724   6.378   9.086   7.608
30494WAT     H291725   6.394   9.042   7.764
30495WAT      O91726   8.036   3.434   4.567
30495WAT     H191727   7.967   3.506   4.578
30495WAT     H291728   8.007   3.371   4.495
30496WAT      O91729   2.495   3.794   1.360
30496WAT     H191730   2.416   3.748   1.400
30496WAT     H291731   2.486   3.795   1.260
30497WAT      O91732   1.317   7.979   5.355
30497WAT     H191733   1.301   7.880   5.353
30497WAT     H291734   1.307   8.016   5.263
30498WAT      O91735   6.208   5.680   7.289
30498WAT     H191736   6.225   5.656   7.193
30498WAT     H291737   6.219   5.598   7.346
30499WAT      O91738   8.412   8.857   7.895
30499WAT     H191739   8.500   8.852   7.848
30499WAT     H291740   8.402   8.947   7.938
30500WAT      O91741   8.525   3.499   8.647
30500WAT     H191742   8.566   3.547   8.724
30500WAT     H291743   8.458   3.558   8.602
30501WAT      O91744   7.306   0.146   4.803
30501WAT     H191745   7.230   0.087   4.774
30501WAT     H291746   7.275   0.208   4.874
30502WAT      O91747   0.262   2.781   6.641
30502WAT     H191748   0.282   2.787   6.739
30502WAT     H291749   0.168   2.809   6.624
30503WAT      O91750   3.598   8.206   8.481
30503WAT     H191751   3.619   8.109   8.469
30503WAT     H291752   3.599   8.252   8.393
30504WAT      O91753   0.689   7.784   5.018
30504WAT     H191754   0.745   7.857   5.058
30504WAT     H291755   0.744   7.732   4.954
30505WAT      O91756   6.144   6.986   4.810
30505WAT     H191757   6.228   7.027   4.846
30505WAT     H291758   6.116   7.036   4.727
30506WAT      O91759   8.346   2.827   9.108
30506WAT     H191760   8.368   2.846   9.203
30506WAT     H291761   8.304   2.737   9.100
30507WAT      O91762   7.045   4.365   0.586
30507WAT     H191763   7.132   4.346   0.632
30507WAT     H291764   7.060   4.366   0.487
30508WAT      O91765   8.876   5.494   4.149
30508WAT     H191766   8.815   5.483   4.227
30508WAT     H291767   8.965   5.454   4.170
30509WAT      O91768   8.974   7.569   7.687
30509WAT     H191769   9.071   7.586   7.708
30509WAT     H291770   8.961   7.471   7.668
30510WAT      O91771   3.105   2.706   7.643
30510WAT     H191772   3.153   2.650   7.711
30510WAT     H291773   3.163   2.782   7.615
30511WAT      O91774   5.595   2.829   4.713
30511WAT     H191775   5.620   2.769   4.789
30511WAT     H291776   5.505   2.804   4.679
30512WAT      O91777   4.731   8.264   5.458
30512WAT     H191778   4.667   8.227   5.525
30512WAT     H291779   4.818   8.216   5.464
30513WAT      O91780   7.452   3.600   6.607
30513WAT     H191781   7.361   3.641   6.618
30513WAT     H291782   7.502   3.606   6.693
30514WAT      O91783   8.044   1.021   1.123
30514WAT     H191784   8.098   1.068   1.193
30514WAT     H291785   8.106   0.979   1.057
30515WAT      O91786   4.387   6.990   2.484
30515WAT     H191787   4.294   6.982   2.447
30515WAT     H291788   4.388   7.057   2.558
30516WAT      O91789   6.346   2.496   6.151
30516WAT     H191790   6.435   2.451   6.155
30516WAT     H291791   6.313   2.512   6.244
30517WAT      O91792   6.749   6.028   8.695
30517WAT     H191793   6.701   6.079   8.624
30517WAT     H291794   6.820   6.086   8.735
30518WAT      O91795   2.025   0.695   4.564
30518WAT     H191796   2.033   0.787   4.601
30518WAT     H291797   2.116   0.656   4.551
30519WAT      O91798   4.018   0.736   6.652
30519WAT     H191799   4.046   0.700   6.563
30519WAT     H291800   3.996   0.660   6.714
30520WAT      O91801   1.926   3.700   4.877
30520WAT     H191802   1.891   3.707   4.970
30520WAT     H291803   2.026   3.702   4.879
30521WAT      O91804   0.342   7.032   0.126
30521WAT     H191805   0.389   6.983   0.052
30521WAT     H291806   0.304   6.966   0.191
30522WAT      O91807   6.360   4.016   3.033
30522WAT     H191808   6.410   4.057   3.109
30522WAT     H291809   6.424   3.989   2.961
30523WAT      O91810   8.781   2.315   7.744
30523WAT     H191811   8.701   2.341   7.798
30523WAT     H291812   8.794   2.380   7.669
30524WAT      O91813   8.802   5.503   2.836
30524WAT     H191814   8.741   5.431   2.803
30524WAT     H291815   8.788   5.516   2.934
30525WAT      O91816   2.171   8.657   5.032
30525WAT     H191817   2.143   8.695   5.120
30525WAT     H291818   2.102   8.592   5.000
30526WAT      O91819   8.406   0.319   0.329
30526WAT     H191820   8.428   0.340   0.234
30526WAT     H291821   8.447   0.387   0.389
30527WAT      O91822   8.286   5.716   6.351
30527WAT     H191823   8.300   5.621   6.322
30527WAT     H291824   8.343   5.735   6.431
30528WAT      O91825   8.088   0.734   3.865
30528WAT     H191826   8.002   0.781   3.886
30528WAT     H291827   8.092   0.711   3.768
30529WAT      O91828   8.398   1.894   1.745
30529WAT     H191829   8.439   1.985   1.740
30529WAT     H291830   8.375   1.863   1.653
30530WAT      O91831   2.042   5.304   1.425
30530WAT     H191832   1.977   5.251   1.370
30530WAT     H291833   2.006   5.396   1.441
30531WAT      O91834   3.588   5.395   6.741
30531WAT     H191835   3.678   5.368   6.775
30531WAT     H291836   3.520   5.326   6.767
30532WAT      O91837   4.481   1.406   5.122
30532WAT     H191838   4.519   1.481   5.069
30532WAT     H291839   4.465   1.436   5.216
30533WAT      O91840   2.306   2.064   7.374
30533WAT     H191841   2.358   2.101   7.296
30533WAT     H291842   2.263   1.978   7.346
30534WAT      O91843   6.419   9.371   0.096
30534WAT     H191844   6.368   9.313   0.159
30534WAT     H291845   6.438   9.459   0.139
30535WAT      O91846   2.026   7.615   9.685
30535WAT     H191847   1.929   7.634   9.697
30535WAT     H291848   2.057   7.553   9.758
30536WAT      O91849   6.075   7.899   5.296
30536WAT     H191850   6.027   7.947   5.223
30536WAT     H291851   6.122   7.965   5.355
30537WAT      O91852   4.774   4.496   0.889
30537WAT     H191853   4.697   4.507   0.952
30537WAT     H291854   4.859   4.520   0.935
30538WAT      O91855   5.131   1.124   8.154
30538WAT     H191856   5.032   1.106   8.154
30538WAT     H291857   5.157   1.163   8.065
30539WAT      O91858   2.560   7.320   0.490
30539WAT     H191859   2.556   7.335   0.589
30539WAT     H291860   2.468   7.301   0.455
30540WAT      O91861   3.565   5.871   7.056
30540WAT     H191862   3.636   5.802   7.038
30540WAT     H291863   3.592   5.927   7.134
30541WAT      O91864   7.428   0.763   7.307
30541WAT     H191865   7.428   0.763   7.407
30541WAT     H291866   7.490   0.691   7.274
30542WAT      O91867   8.567   0.460   9.171
30542WAT     H191868   8.619   0.375   9.170
30542WAT     H291869   8.576   0.504   9.261
30543WAT      O91870   5.001   3.357   0.912
30543WAT     H191871   4.933   3.331   0.844
30543WAT     H291872   4.981   3.312   0.999
30544WAT      O91873   0.805   8.193   8.445
30544WAT     H191874   0.844   8.207   8.536
30544WAT     H291875   0.841   8.262   8.382
30545WAT      O91876   3.452   8.048   6.814
30545WAT     H191877   3.494   7.958   6.797
30545WAT     H291878   3.361   8.050   6.774
30546WAT      O91879   7.810   9.412   2.033
30546WAT     H191880   7.863   9.375   2.109
30546WAT     H291881   7.745   9.342   2.002
30547WAT      O91882   6.421   0.239   0.826
30547WAT     H191883   6.488   0.304   0.790
30547WAT     H291884   6.429   0.153   0.776
30548WAT      O91885   2.567   4.550   6.444
30548WAT     H191886   2.568   4.452   6.424
30548WAT     H291887   2.545   4.564   6.541
30549WAT      O91888   5.939   7.025   2.992
30549WAT     H191889   5.985   7.110   2.967
30549WAT     H291890   5.971   6.995   3.082
30550WAT      O91891   7.162   8.034   2.967
30550WAT     H191892   7.137   8.094   3.043
30550WAT     H291893   7.132   7.941   2.987
30551WAT      O91894   2.562   3.672   8.645
30551WAT     H191895   2.635   3.679   8.713
30551WAT     H291896   2.484   3.625   8.686
30552WAT      O91897   7.594   6.448   5.958
30552WAT     H191898   7.587   6.540   5.997
30552WAT     H291899   7.513   6.395   5.983
30553WAT      O91900   5.033   3.391   5.574
30553WAT     H191901   5.105   3.404   5.506
30553WAT     H291902   5.006   3.294   5.575
30554WAT      O91903   6.807   0.470   6.483
30554WAT     H191904   6.732   0.508   6.537
30554WAT     H291905   6.775   0.390   6.433
30555WAT      O91906   2.312   3.455   3.241
30555WAT     H191907   2.408   3.445   3.268
30555WAT     H291908   2.274   3.365   3.219
30556WAT      O91909   8.363   0.520   4.148
30556WAT     H191910   8.367   0.615   4.181
30556WAT     H291911   8.352   0.458   4.226
30557WAT      O91912   7.773   9.081   6.934
30557WAT     H191913   7.740   9.116   7.021
30557WAT     H291914   7.855   9.026   6.949
30558WAT      O91915   1.869   7.008   8.401
30558WAT     H191916   1.794   6.942   8.398
30558WAT     H291917   1.831   7.101   8.404
30559WAT      O91918   5.137   0.882   9.373
30559WAT     H191919   5.163   0.969   9.332
30559WAT     H291920   5.045   0.856   9.343
30560WAT      O91921   4.473   2.823   3.320
30560WAT     H191922   4.438   2.743   3.367
30560WAT     H291923   4.572   2.815   3.307
30561WAT      O91924   5.803   9.627   0.130
30561WAT     H191925   5.732   9.695   0.114
30561WAT     H291926   5.890   9.661   0.096
30562WAT      O91927   9.280   3.294   4.239
30562WAT     H191928   9.272   3.388   4.273
30562WAT     H291929   9.205   3.276   4.175
30563WAT      O91930   7.001   8.121   8.868
30563WAT     H191931   7.078   8.098   8.807
30563WAT     H291932   7.021   8.206   8.916
30564WAT      O91933   0.743   1.529   4.675
30564WAT     H191934   0.682   1.543   4.598
30564WAT     H291935   0.837   1.551   4.648
30565WAT      O91936   1.547   0.961   6.312
30565WAT     H191937   1.620   0.904   6.349
30565WAT     H291938   1.466   0.952   6.371
30566WAT      O91939   8.050   4.134   5.154
30566WAT     H191940   8.066   4.099   5.247
30566WAT     H291941   8.128   4.111   5.096
30567WAT      O91942   8.843   6.440   4.150
30567WAT     H191943   8.893   6.452   4.236
30567WAT     H291944   8.904   6.396   4.083
30568WAT      O91945   5.184   5.377   0.221
30568WAT     H191946   5.280   5.379   0.193
30568WAT     H291947   5.130   5.435   0.159
30569WAT      O91948   5.319   5.204   8.542
30569WAT     H191949   5.315   5.115   8.496
30569WAT     H291950   5.382   5.199   8.619
30570WAT      O91951   1.658   8.676   5.993
30570WAT     H191952   1.604   8.594   6.010
30570WAT     H291953   1.746   8.650   5.954
30571WAT      O91954   2.491   8.850   3.187
30571WAT     H191955   2.490   8.950   3.183
30571WAT     H291956   2.476   8.812   3.096
30572WAT      O91957   6.117   0.241   0.220
30572WAT     H191958   6.197   0.185   0.246
30572WAT     H291959   6.035   0.184   0.221
30573WAT      O91960   2.013   5.276   8.213
30573WAT     H191961   2.075   5.327   8.272
30573WAT     H291962   1.934   5.245   8.267
30574WAT      O91963   8.841   0.784   5.532
30574WAT     H191964   8.882   0.727   5.462
30574WAT     H291965   8.774   0.731   5.584
30575WAT      O91966   5.393   8.564   9.239
30575WAT     H191967   5.486   8.563   9.277
30575WAT     H291968   5.397   8.594   9.143
30576WAT      O91969   7.710   4.137   9.753
30576WAT     H191970   7.790   4.158   9.808
30576WAT     H291971   7.736   4.130   9.657
30577WAT      O91972   1.680   3.031   3.635
30577WAT     H191973   1.673   3.034   3.734
30577WAT     H291974   1.705   2.938   3.606
30578WAT      O91975   2.542   5.254   5.226
30578WAT     H191976   2.478   5.223   5.296
30578WAT     H291977   2.618   5.304   5.269
30579WAT      O91978   3.390   0.829   6.780
30579WAT     H191979   3.479   0.823   6.825
30579WAT     H291980   3.402   0.855   6.684
30580WAT      O91981   5.348   1.426   0.100
30580WAT     H191982   5.342   1.328   0.084
30580WAT     H291983   5.434   1.461   0.062
30581WAT      O91984   6.538   3.372   6.611
30581WAT     H191985   6.526   3.280   6.573
30581WAT     H291986   6.507   3.440   6.545
30582WAT      O91987   0.943   1.347   6.053
30582WAT     H191988   0.962   1.407   5.975
30582WAT     H291989   0.904   1.401   6.128
30583WAT      O91990   0.699   0.767   3.688
30583WAT     H191991   0.683   0.857   3.649
30583WAT     H291992   0.782   0.728   3.648
30584WAT      O91993   1.811   1.954   1.083
30584WAT     H191994   1.806   1.897   1.166
30584WAT     H291995   1.861   1.904   1.012
30585WAT      O91996   2.646   5.358   4.920
30585WAT     H191997   2.627   5.450   4.885
30585WAT     H291998   2.667   5.363   5.017
30586WAT      O91999   4.177   3.828   8.297
30586WAT     H192000   4.210   3.897   8.233
30586WAT     H292001   4.130   3.755   8.247
30587WAT      O92002   3.222   3.856   5.661
30587WAT     H192003   3.261   3.835   5.571
30587WAT     H292004   3.189   3.950   5.662
30588WAT      O92005   9.072   2.723   7.588
30588WAT     H192006   9.036   2.765   7.505
30588WAT     H292007   9.008   2.737   7.663
30589WAT      O92008   2.345   2.494   0.538
30589WAT     H192009   2.335   2.396   0.522
30589WAT     H292010   2.397   2.509   0.622
30590WAT      O92011   5.620   6.356   8.700
30590WAT     H192012   5.641   6.348   8.797
30590WAT     H292013   5.595   6.266   8.663
30591WAT      O92014   6.606   4.265   2.784
30591WAT     H192015   6.612   4.336   2.854
30591WAT     H292016   6.693   4.215   2.781
30592WAT      O92017   3.000   4.816   5.187
30592WAT     H192018   3.042   4.787   5.273
30592WAT     H292019   3.014   4.746   5.117
30593WAT      O92020   2.162   3.502   7.367
30593WAT     H192021   2.201   3.447   7.441
30593WAT     H292022   2.217   3.584   7.354
30594WAT      O92023   5.252   9.041   0.075
30594WAT     H192024   5.182   8.981   0.038
30594WAT     H292025   5.222   9.136   0.069
30595WAT      O92026   5.744   6.105   3.146
30595WAT     H192027   5.823   6.081   3.090
30595WAT     H292028   5.661   6.065   3.106
30596WAT      O92029   2.172   6.403   0.730
30596WAT     H192030   2.185   6.403   0.829
30596WAT     H292031   2.183   6.496   0.695
30597WAT      O92032   0.069   3.005   1.152
30597WAT     H192033   0.061   2.976   1.247
30597WAT     H292034   0.118   3.092   1.147
30598WAT      O92035   4.961   3.602   7.589
30598WAT     H192036   4.991   3.680   7.644
30598WAT     H292037   4.945   3.632   7.495
30599WAT      O92038   5.299   4.159   1.486
30599WAT     H192039   5.223   4.098   1.465
30599WAT     H292040   5.263   4.241   1.531
30600WAT      O92041   5.179   5.940   0.508
30600WAT     H192042   5.163   5.987   0.421
30600WAT     H292043   5.267   5.968   0.546
30601WAT      O92044   1.417   3.629   6.806
30601WAT     H192045   1.419   3.729   6.807
30601WAT     H292046   1.364   3.597   6.727
30602WAT      O92047   6.112   7.104   1.410
30602WAT     H192048   6.027   7.107   1.358
30602WAT     H292049   6.184   7.063   1.353
30603WAT      O92050   7.678   1.184   5.312
30603WAT     H192051   7.665   1.112   5.380
30603WAT     H292052   7.764   1.169   5.264
30604WAT      O92053   8.143   0.459   8.932
30604WAT     H192054   8.160   0.557   8.943
30604WAT     H292055   8.111   0.421   9.019
30605WAT      O92056   4.871   4.674   2.309
30605WAT     H192057   4.943   4.618   2.267
30605WAT     H292058   4.901   4.770   2.311
30606WAT      O92059   1.549   2.572   1.216
30606WAT     H192060   1.509   2.605   1.301
30606WAT     H292061   1.633   2.521   1.236
30607WAT      O92062   9.413   9.154   2.761
30607WAT     H192063   9.422   9.099   2.678
30607WAT     H292064   9.335   9.123   2.814
30608WAT      O92065   5.839   7.018   6.302
30608WAT     H192066   5.775   6.969   6.361
30608WAT     H292067   5.842   6.975   6.212
30609WAT      O92068   6.269   6.490   4.303
30609WAT     H192069   6.322   6.526   4.226
30609WAT     H292070   6.237   6.566   4.359
30610WAT      O92071   4.850   1.131   7.569
30610WAT     H192072   4.881   1.210   7.516
30610WAT     H292073   4.847   1.050   7.510
30611WAT      O92074   8.217   2.282   3.057
30611WAT     H192075   8.271   2.220   3.115
30611WAT     H292076   8.279   2.347   3.013
30612WAT      O92077   3.334   3.214   7.974
30612WAT     H192078   3.318   3.309   7.945
30612WAT     H292079   3.332   3.155   7.893
30613WAT      O92080   0.337   4.452   6.569
30613WAT     H192081   0.362   4.548   6.581
30613WAT     H292082   0.420   4.396   6.568
30614WAT      O92083   7.919   3.378   8.511
30614WAT     H192084   7.837   3.329   8.478
30614WAT     H292085   7.948   3.339   8.598
30615WAT      O92086   8.272   9.797   8.502
30615WAT     H192087   8.331   9.808   8.582
30615WAT     H292088   8.323   9.818   8.419
30616WAT      O92089   2.907   9.168   6.949
30616WAT     H192090   2.973   9.097   6.924
30616WAT     H292091   2.837   9.129   7.009
30617WAT      O92092   3.978   7.719   4.708
30617WAT     H192093   3.879   7.728   4.695
30617WAT     H292094   4.022   7.701   4.621
30618WAT      O92095   1.074   0.712   9.043
30618WAT     H192096   1.076   0.620   9.082
30618WAT     H292097   1.099   0.779   9.113
30619WAT      O92098   3.917   8.138   4.315
30619WAT     H192099   3.838   8.114   4.259
30619WAT     H292100   3.936   8.064   4.379
30620WAT      O92101   5.654   3.793   8.627
30620WAT     H192102   5.704   3.739   8.694
30620WAT     H292103   5.717   3.822   8.554
30621WAT      O92104   9.435   9.413   5.305
30621WAT     H192105   9.386   9.491   5.265
30621WAT     H292106   9.509   9.386   5.243
30622WAT      O92107   2.350   5.470   8.591
30622WAT     H192108   2.403   5.520   8.660
30622WAT     H292109   2.411   5.439   8.518
30623WAT      O92110   9.562   0.652   0.529
30623WAT     H192111   9.509   0.582   0.577
30623WAT     H292112   9.571   0.629   0.433
30624WAT      O92113   5.323   3.759   1.422
30624WAT     H192114   5.391   3.832   1.430
30624WAT     H292115   5.357   3.676   1.466
30625WAT      O92116   6.992   0.932   4.191
30625WAT     H192117   6.910   0.989   4.188
30625WAT     H292118   7.061   0.976   4.249
30626WAT      O92119   4.221   2.732   1.850
30626WAT     H192120   4.175   2.662   1.795
30626WAT     H292121   4.154   2.782   1.904
30627WAT      O92122   8.260   5.936   1.905
30627WAT     H192123   8.192   5.929   1.978
30627WAT     H292124   8.214   5.931   1.816
30628WAT      O92125   0.688   7.836   8.276
30628WAT     H192126   0.762   7.875   8.223
30628WAT     H292127   0.617   7.905   8.291
30629WAT      O92128   2.137   2.153   6.296
30629WAT     H192129   2.103   2.063   6.267
30629WAT     H292130   2.103   2.223   6.233
30630WAT      O92131   2.906   5.640   7.437
30630WAT     H192132   3.002   5.632   7.466
30630WAT     H292133   2.860   5.708   7.494
30631WAT      O92134   5.718   6.204   8.068
30631WAT     H192135   5.733   6.117   8.021
30631WAT     H292136   5.683   6.271   8.003
30632WAT      O92137   1.033   3.132   6.175
30632WAT     H192138   1.020   3.231   6.169
30632WAT     H292139   1.131   3.112   6.178
30633WAT      O92140   8.741   0.129   8.521
30633WAT     H192141   8.751   0.063   8.596
30633WAT     H292142   8.828   0.137   8.472
30634WAT      O92143   0.985   0.471   6.220
30634WAT     H192144   0.979   0.418   6.135
30634WAT     H292145   1.060   0.436   6.275
30635WAT      O92146   8.462   0.833   3.663
30635WAT     H192147   8.409   0.804   3.742
30635WAT     H292148   8.530   0.901   3.692
30636WAT      O92149   1.418   3.303   3.053
30636WAT     H192150   1.395   3.224   2.996
30636WAT     H292151   1.465   3.372   2.998
30637WAT      O92152   0.403   0.454   6.246
30637WAT     H192153   0.501   0.448   6.224
30637WAT     H292154   0.373   0.367   6.285
30638WAT      O92155   4.873   8.298   0.502
30638WAT     H192156   4.836   8.390   0.510
30638WAT     H292157   4.830   8.251   0.425
30639WAT      O92158   5.084   0.091   4.964
30639WAT     H192159   5.093   0.149   5.045
30639WAT     H292160   5.082   0.149   4.882
30640WAT      O92161   7.346   9.781   1.880
30640WAT     H192162   7.436   9.740   1.868
30640WAT     H292163   7.275   9.716   1.854
30641WAT      O92164   2.420   1.824   1.820
30641WAT     H192165   2.417   1.728   1.791
30641WAT     H292166   2.468   1.830   1.908
30642WAT      O92167   5.771   4.242   6.526
30642WAT     H192168   5.681   4.200   6.533
30642WAT     H292169   5.762   4.336   6.493
30643WAT      O92170   2.584   9.818   6.010
30643WAT     H192171   2.660   9.782   5.956
30643WAT     H292172   2.562   9.753   6.083
30644WAT      O92173   4.378   2.822   6.892
30644WAT     H192174   4.278   2.822   6.893
30644WAT     H292175   4.412   2.902   6.941
30645WAT      O92176   2.806   9.537   7.604
30645WAT     H192177   2.779   9.466   7.669
30645WAT     H292178   2.806   9.498   7.511
30646WAT      O92179   0.157   0.915   8.408
30646WAT     H192180   0.218   0.947   8.481
30646WAT     H292181   0.197   0.940   8.320
30647WAT      O92182   6.157   0.123   7.773
30647WAT     H192183   6.084   0.079   7.721
30647WAT     H292184   6.199   0.055   7.835
30648WAT      O92185   9.160   1.084   3.487
30648WAT     H192186   9.122   1.110   3.398
30648WAT     H292187   9.254   1.053   3.475
30649WAT      O92188   0.880   3.225   3.402
30649WAT     H192189   0.978   3.215   3.389
30649WAT     H292190   0.831   3.155   3.349
30650WAT      O92191   4.609   5.147   0.863
30650WAT     H192192   4.697   5.155   0.908
30650WAT     H292193   4.573   5.239   0.844
30651WAT      O92194   4.459   7.961   6.149
30651WAT     H192195   4.464   8.004   6.058
30651WAT     H292196   4.395   7.884   6.145
30652WAT      O92197   0.155   4.403   3.055
30652WAT     H192198   0.215   4.331   3.090
30652WAT     H292199   0.095   4.435   3.128
30653WAT      O92200   1.634   3.711   3.417
30653WAT     H192201   1.667   3.653   3.492
30653WAT     H292202   1.711   3.761   3.378
30654WAT      O92203   1.797   1.209   7.183
30654WAT     H192204   1.874   1.150   7.208
30654WAT     H292205   1.805   1.296   7.232
30655WAT      O92206   3.870   1.616   1.491
30655WAT     H192207   3.871   1.517   1.482
30655WAT     H292208   3.907   1.642   1.580
30656WAT      O92209   9.041   4.540   2.481
30656WAT     H192210   8.985   4.622   2.485
30656WAT     H292211   9.037   4.493   2.570
30657WAT      O92212   3.578   3.805   8.745
30657WAT     H192213   3.478   3.804   8.741
30657WAT     H292214   3.614   3.861   8.670
30658WAT      O92215   2.868   3.175   7.275
30658WAT     H192216   2.948   3.215   7.231
30658WAT     H292217   2.818   3.119   7.208
30659WAT      O92218   0.738   3.343   8.580
30659WAT     H192219   0.673   3.419   8.575
30659WAT     H292220   0.697   3.262   8.538
30660WAT      O92221   3.544   7.088   3.085
30660WAT     H192222   3.611   7.037   3.032
30660WAT     H292223   3.451   7.058   3.060
30661WAT      O92224   4.309   4.613   0.174
30661WAT     H192225   4.245   4.650   0.106
30661WAT     H292226   4.323   4.680   0.247
30662WAT      O92227   5.950   3.195   7.493
30662WAT     H192228   6.050   3.201   7.493
30662WAT     H292229   5.922   3.100   7.510
30663WAT      O92230   7.435   3.209   4.093
30663WAT     H192231   7.343   3.209   4.132
30663WAT     H292232   7.431   3.185   3.997
30664WAT      O92233   0.596   8.346   7.578
30664WAT     H192234   0.686   8.387   7.590
30664WAT     H292235   0.573   8.343   7.480
30665WAT      O92236   4.779   3.114   8.835
30665WAT     H192237   4.870   3.133   8.872
30665WAT     H292238   4.782   3.121   8.735
30666WAT      O92239   0.245   7.392   3.619
30666WAT     H192240   0.210   7.463   3.558
30666WAT     H292241   0.175   7.322   3.632
30667WAT      O92242   8.555   2.529   5.950
30667WAT     H192243   8.618   2.607   5.949
30667WAT     H292244   8.472   2.553   5.900
30668WAT      O92245   9.743   5.248   4.481
30668WAT     H192246   9.825   5.263   4.536
30668WAT     H292247   9.710   5.155   4.495
30669WAT      O92248   8.524   0.118   8.910
30669WAT     H192249   8.621   0.139   8.905
30669WAT     H292250   8.482   0.170   8.985
30670WAT      O92251   6.564   4.725   1.801
30670WAT     H192252   6.556   4.728   1.901
30670WAT     H292253   6.560   4.819   1.765
30671WAT      O92254   8.352   2.086   9.824
30671WAT     H192255   8.440   2.082   9.872
30671WAT     H292256   8.283   2.038   9.877
30672WAT      O92257   5.730   0.917   7.777
30672WAT     H192258   5.823   0.953   7.779
30672WAT     H292259   5.703   0.889   7.869
30673WAT      O92260   7.937   8.764   7.237
30673WAT     H192261   7.885   8.749   7.320
30673WAT     H292262   7.966   8.860   7.232
30674WAT      O92263   3.006   6.610   2.046
30674WAT     H192264   3.087   6.656   2.084
30674WAT     H292265   2.925   6.643   2.093
30675WAT      O92266   2.580   2.831   0.390
30675WAT     H192267   2.652   2.775   0.431
30675WAT     H292268   2.621   2.895   0.325
30676WAT      O92269   8.424   7.001   2.694
30676WAT     H192270   8.345   6.941   2.677
30676WAT     H292271   8.427   7.024   2.791
30677WAT      O92272   0.291   6.237   6.622
30677WAT     H192273   0.259   6.297   6.549
30677WAT     H292274   0.391   6.240   6.627
30678WAT      O92275   2.382   8.567   7.107
30678WAT     H192276   2.458   8.576   7.042
30678WAT     H292277   2.297   8.556   7.056
30679WAT      O92278   1.208   8.504   7.510
30679WAT     H192279   1.222   8.603   7.513
30679WAT     H292280   1.244   8.463   7.593
30680WAT      O92281   0.580   2.476   8.063
30680WAT     H192282   0.609   2.445   7.972
30680WAT     H292283   0.560   2.574   8.060
30681WAT      O92284   9.473   2.501   1.796
30681WAT     H192285   9.440   2.514   1.702
30681WAT     H292286   9.542   2.570   1.817
30682WAT      O92287   6.766   9.348   7.067
30682WAT     H192288   6.815   9.277   7.017
30682WAT     H292289   6.668   9.342   7.046
30683WAT      O92290   9.189   2.969   2.458
30683WAT     H192291   9.090   2.974   2.458
30683WAT     H292292   9.222   2.951   2.365
30684WAT      O92293   1.982   1.605   8.539
30684WAT     H192294   2.028   1.670   8.598
30684WAT     H292295   2.050   1.548   8.493
30685WAT      O92296   4.075   4.290   0.573
30685WAT     H192297   4.051   4.269   0.668
30685WAT     H292298   4.012   4.358   0.537
30686WAT      O92299   7.089   7.680   3.650
30686WAT     H192300   7.097   7.731   3.736
30686WAT     H292301   7.155   7.604   3.650
30687WAT      O92302   1.595   9.067   6.589
30687WAT     H192303   1.678   9.027   6.549
30687WAT     H292304   1.517   9.051   6.529
30688WAT      O92305   6.510   1.130   2.570
30688WAT     H192306   6.422   1.090   2.545
30688WAT     H292307   6.496   1.203   2.637
30689WAT      O92308   5.193   7.903   8.629
30689WAT     H192309   5.268   7.908   8.563
30689WAT     H292310   5.137   7.985   8.623
30690WAT      O92311   8.336   3.891   8.816
30690WAT     H192312   8.390   3.816   8.854
30690WAT     H292313   8.276   3.928   8.887
30691WAT      O92314   8.790   6.566   1.030
30691WAT     H192315   8.805   6.608   0.940
30691WAT     H292316   8.695   6.538   1.038
30692WAT      O92317   4.279   0.470   7.607
30692WAT     H192318   4.255   0.452   7.703
30692WAT     H292319   4.318   0.387   7.567
30693WAT      O92320   0.995   1.656   6.482
30693WAT     H192321   1.062   1.677   6.410
30693WAT     H292322   1.034   1.588   6.544
30694WAT      O92323   2.474   9.109   9.019
30694WAT     H192324   2.380   9.140   9.036
30694WAT     H292325   2.493   9.029   9.076
30695WAT      O92326   7.299   7.494   3.605
30695WAT     H192327   7.370   7.447   3.657
30695WAT     H292328   7.326   7.589   3.590
30696WAT      O92329   6.487   6.691   7.283
30696WAT     H192330   6.516   6.779   7.244
30696WAT     H292331   6.487   6.621   7.211
30697WAT      O92332   3.421   8.435   4.772
30697WAT     H192333   3.395   8.349   4.730
30697WAT     H292334   3.405   8.510   4.707
30698WAT      O92335   6.708   1.706  -0.002
30698WAT     H192336   6.773   1.630  -0.008
30698WAT     H292337   6.733   1.765   0.075
30699WAT      O92338   2.952   7.951   4.091
30699WAT     H192339   2.856   7.930   4.069
30699WAT     H292340   3.006   7.868   4.088
30700WAT      O92341   4.353   2.909   8.806
30700WAT     H192342   4.417   2.833   8.812
30700WAT     H292343   4.263   2.880   8.840
30701WAT      O92344   3.564   4.905   2.559
30701WAT     H192345   3.646   4.932   2.510
30701WAT     H292346   3.488   4.965   2.534
30702WAT      O92347   0.469   8.851   1.619
30702WAT     H192348   0.391   8.807   1.663
30702WAT     H292349   0.487   8.808   1.531
30703WAT      O92350   5.377   3.730   3.094
30703WAT     H192351   5.455   3.761   3.039
30703WAT     H292352   5.306   3.801   3.094
30704WAT      O92353   8.593   4.585   3.386
30704WAT     H192354   8.574   4.660   3.323
30704WAT     H292355   8.522   4.581   3.457
30705WAT      O92356   5.486   3.821   2.239
30705WAT     H192357   5.485   3.916   2.272
30705WAT     H292358   5.449   3.818   2.146
30706WAT      O92359   9.107   1.688   2.941
30706WAT     H192360   9.019   1.716   2.979
30706WAT     H292361   9.096   1.667   2.844
30707WAT      O92362   3.954   9.605   9.085
30707WAT     H192363   3.989   9.677   9.144
30707WAT     H292364   3.864   9.575   9.118
30708WAT      O92365   3.628   4.499   7.852
30708WAT     H192366   3.600   4.584   7.806
30708WAT     H292367   3.555   4.469   7.913
30709WAT      O92368   1.392   6.013   0.960
30709WAT     H192369   1.344   6.089   1.002
30709WAT     H292370   1.444   6.046   0.880
30710WAT      O92371   2.259   3.386   7.616
30710WAT     H192372   2.326   3.456   7.589
30710WAT     H292373   2.245   3.391   7.715
30711WAT      O92374   9.220   9.423   0.570
30711WAT     H192375   9.291   9.415   0.640
30711WAT     H292376   9.186   9.332   0.546
30712WAT      O92377   8.669   0.694   8.756
30712WAT     H192378   8.713   0.782   8.771
30712WAT     H292379   8.623   0.664   8.840
30713WAT      O92380   8.297   4.837   5.877
30713WAT     H192381   8.289   4.911   5.810
30713WAT     H292382   8.288   4.749   5.830
30714WAT      O92383   0.787   0.362   2.494
30714WAT     H192384   0.708   0.349   2.554
30714WAT     H292385   0.869   0.327   2.539
30715WAT      O92386   7.488   1.439   4.048
30715WAT     H192387   7.411   1.441   4.112
30715WAT     H292388   7.473   1.366   3.981
30716WAT      O92389   6.905   6.228   3.602
30716WAT     H192390   6.992   6.277   3.595
30716WAT     H292391   6.916   6.150   3.663
30717WAT      O92392   5.623   4.186   8.933
30717WAT     H192393   5.625   4.142   8.843
30717WAT     H292394   5.542   4.155   8.983
30718WAT      O92395   7.444   0.892   6.591
30718WAT     H192396   7.448   0.832   6.511
30718WAT     H292397   7.420   0.839   6.672
30719WAT      O92398   4.616   0.251   4.406
30719WAT     H192399   4.599   0.305   4.488
30719WAT     H292400   4.529   0.224   4.364
30720WAT      O92401   6.758   4.475   5.496
30720WAT     H192402   6.660   4.478   5.480
30720WAT     H292403   6.805   4.536   5.433
30721WAT      O92404   0.125   7.458   1.938
30721WAT     H192405   0.095   7.538   1.887
30721WAT     H292406   0.224   7.446   1.925
30722WAT      O92407   3.171   0.377   8.404
30722WAT     H192408   3.173   0.416   8.496
30722WAT     H292409   3.184   0.449   8.336
30723WAT      O92410   5.751   3.362   2.409
30723WAT     H192411   5.702   3.347   2.495
30723WAT     H292412   5.757   3.276   2.358
30724WAT      O92413   4.079   4.435   1.145
30724WAT     H192414   4.092   4.496   1.067
30724WAT     H292415   4.050   4.488   1.224
30725WAT      O92416   2.592   4.906   6.058
30725WAT     H192417   2.614   4.812   6.083
30725WAT     H292418   2.569   4.958   6.140
30726WAT      O92419   1.665   7.446   3.303
30726WAT     H192420   1.748   7.394   3.283
30726WAT     H292421   1.687   7.525   3.359
30727WAT      O92422   3.444   7.813   5.549
30727WAT     H192423   3.367   7.820   5.613
30727WAT     H292424   3.501   7.734   5.573
30728WAT      O92425   2.061   3.402   2.333
30728WAT     H192426   2.133   3.433   2.271
30728WAT     H292427   1.974   3.401   2.284
30729WAT      O92428   6.725   3.880   4.083
30729WAT     H192429   6.670   3.890   4.167
30729WAT     H292430   6.722   3.965   4.031
30730WAT      O92431   5.643   9.339   9.549
30730WAT     H192432   5.732   9.375   9.578
30730WAT     H292433   5.578   9.414   9.541
30731WAT      O92434   0.471   4.187   8.678
30731WAT     H192435   0.389   4.242   8.693
30731WAT     H292436   0.536   4.202   8.753
30732WAT      O92437   2.503   1.352   7.562
30732WAT     H192438   2.479   1.255   7.568
30732WAT     H292439   2.432   1.401   7.514
30733WAT      O92440   8.205   0.894   2.843
30733WAT     H192441   8.167   0.869   2.932
30733WAT     H292442   8.239   0.987   2.846
30734WAT      O92443   3.998   5.888   9.317
30734WAT     H192444   4.068   5.820   9.298
30734WAT     H292445   4.013   5.968   9.259
30735WAT      O92446   9.270   2.127   7.195
30735WAT     H192447   9.269   2.147   7.097
30735WAT     H292448   9.296   2.210   7.246
30736WAT      O92449   9.232   2.084   6.160
30736WAT     H192450   9.201   2.069   6.254
30736WAT     H292451   9.296   2.161   6.157
30737WAT      O92452   1.117   1.714   4.191
30737WAT     H192453   1.045   1.646   4.184
30737WAT     H292454   1.206   1.669   4.181
30738WAT      O92455   4.775   9.617   5.548
30738WAT     H192456   4.750   9.605   5.644
30738WAT     H292457   4.859   9.671   5.542
30739WAT      O92458   6.892   2.026   5.963
30739WAT     H192459   6.899   1.968   6.045
30739WAT     H292460   6.983   2.060   5.938
30740WAT      O92461   6.194   7.714   4.450
30740WAT     H192462   6.190   7.807   4.414
30740WAT     H292463   6.145   7.652   4.390
30741WAT      O92464   7.101   7.107   4.557
30741WAT     H192465   7.090   7.018   4.602
30741WAT     H292466   7.075   7.180   4.619
30742WAT      O92467   4.824   2.006   5.491
30742WAT     H192468   4.746   1.952   5.523
30742WAT     H292469   4.820   2.013   5.391
30743WAT      O92470   6.766   5.921   4.002
30743WAT     H192471   6.703   5.997   3.994
30743WAT     H292472   6.853   5.945   3.957
30744WAT      O92473   4.138   2.606   7.116
30744WAT     H192474   4.110   2.587   7.210
30744WAT     H292475   4.071   2.567   7.053
30745WAT      O92476   7.473   2.878   2.908
30745WAT     H192477   7.494   2.816   2.832
30745WAT     H292478   7.439   2.965   2.872
30746WAT      O92479   2.036   5.578   1.165
30746WAT     H192480   2.006   5.574   1.260
30746WAT     H292481   1.957   5.562   1.105
30747WAT      O92482   6.707   0.986   3.928
30747WAT     H192483   6.755   1.033   3.853
30747WAT     H292484   6.609   0.981   3.906
30748WAT      O92485   5.000   8.172   5.424
30748WAT     H192486   5.067   8.102   5.402
30748WAT     H292487   5.042   8.262   5.417
30749WAT      O92488   1.041   2.113   5.860
30749WAT     H192489   0.993   2.169   5.928
30749WAT     H292490   0.977   2.047   5.820
30750WAT      O92491   9.862   1.098   1.150
30750WAT     H192492   9.946   1.146   1.173
30750WAT     H292493   9.803   1.093   1.230
30751WAT      O92494   9.297   5.096   7.963
30751WAT     H192495   9.346   5.022   8.008
30751WAT     H292496   9.226   5.131   8.023
30752WAT      O92497   5.942   3.469   4.881
30752WAT     H192498   5.998   3.401   4.835
30752WAT     H292499   5.989   3.557   4.880
30753WAT      O92500   6.697   2.787   6.423
30753WAT     H192501   6.716   2.750   6.515
30753WAT     H292502   6.600   2.775   6.402
30754WAT      O92503   8.823   8.644   5.369
30754WAT     H192504   8.812   8.551   5.333
30754WAT     H292505   8.887   8.642   5.446
30755WAT      O92506   2.563   7.065   0.315
30755WAT     H192507   2.480   7.084   0.263
30755WAT     H292508   2.586   7.145   0.371
30756WAT      O92509   0.632   5.472   8.516
30756WAT     H192510   0.538   5.505   8.513
30756WAT     H292511   0.653   5.439   8.608
30757WAT      O92512   4.588   4.531   4.879
30757WAT     H192513   4.661   4.555   4.816
30757WAT     H292514   4.568   4.433   4.872
30758WAT      O92515   4.743   6.074   3.750
30758WAT     H192516   4.684   6.132   3.695
30758WAT     H292517   4.823   6.047   3.696
30759WAT      O92518   0.977   9.301   1.061
30759WAT     H192519   1.053   9.266   1.116
30759WAT     H292520   0.938   9.226   1.007
30760WAT      O92521   3.231   4.690   8.802
30760WAT     H192522   3.137   4.712   8.828
30760WAT     H292523   3.259   4.605   8.848
30761WAT      O92524   4.877   6.766   3.872
30761WAT     H192525   4.837   6.723   3.791
30761WAT     H292526   4.968   6.801   3.850
30762WAT      O92527   4.326   6.464   9.232
30762WAT     H192528   4.228   6.463   9.253
30762WAT     H292529   4.369   6.384   9.274
30763WAT      O92530   9.647   6.546   1.762
30763WAT     H192531   9.706   6.559   1.682
30763WAT     H292532   9.557   6.512   1.732
30764WAT      O92533   5.297   3.825   0.990
30764WAT     H192534   5.305   3.766   1.071
30764WAT     H292535   5.205   3.862   0.985
30765WAT      O92536   3.978   8.810   6.984
30765WAT     H192537   4.068   8.847   7.009
30765WAT     H292538   3.989   8.725   6.934
30766WAT      O92539   0.342   8.183   8.384
30766WAT     H192540   0.279   8.196   8.460
30766WAT     H292541   0.368   8.272   8.347
30767WAT      O92542   0.754   5.991   3.537
30767WAT     H192543   0.849   5.986   3.506
30767WAT     H292544   0.750   5.970   3.635
30768WAT      O92545   3.382   0.726   1.545
30768WAT     H192546   3.334   0.689   1.624
30768WAT     H292547   3.367   0.825   1.541
30769WAT      O92548   5.834   6.810   4.526
30769WAT     H192549   5.855   6.788   4.621
30769WAT     H292550   5.916   6.849   4.483
30770WAT      O92551   1.137   8.341   7.888
30770WAT     H192552   1.177   8.262   7.934
30770WAT     H292553   1.144   8.421   7.947
30771WAT      O92554   8.325   5.808   3.879
30771WAT     H192555   8.234   5.847   3.864
30771WAT     H292556   8.392   5.856   3.823
30772WAT      O92557   1.601   9.645   7.213
30772WAT     H192558   1.558   9.733   7.235
30772WAT     H292559   1.696   9.661   7.186
30773WAT      O92560   7.688   9.701   3.577
30773WAT     H192561   7.723   9.624   3.631
30773WAT     H292562   7.740   9.708   3.492
30774WAT      O92563   4.447   7.292   7.730
30774WAT     H192564   4.493   7.230   7.794
30774WAT     H292565   4.422   7.242   7.647
30775WAT      O92566   6.572   2.578   9.201
30775WAT     H192567   6.638   2.503   9.193
30775WAT     H292568   6.599   2.653   9.141
30776WAT      O92569   3.178   4.029   9.178
30776WAT     H192570   3.141   3.968   9.249
30776WAT     H292571   3.102   4.064   9.122
30777WAT      O92572   5.911   7.218   2.234
30777WAT     H192573   6.001   7.260   2.235
30777WAT     H292574   5.841   7.287   2.252
30778WAT      O92575   6.326   5.480   3.803
30778WAT     H192576   6.291   5.502   3.712
30778WAT     H292577   6.260   5.506   3.873
30779WAT      O92578   0.200   1.687   4.717
30779WAT     H192579   0.292   1.696   4.755
30779WAT     H292580   0.132   1.713   4.786
30780WAT      O92581   4.922   4.198   6.126
30780WAT     H192582   4.922   4.209   6.026
30780WAT     H292583   4.964   4.278   6.168
30781WAT      O92584   7.321   4.644   1.082
30781WAT     H192585   7.321   4.608   1.175
30781WAT     H292586   7.383   4.589   1.025
30782WAT      O92587   0.499   5.122   6.258
30782WAT     H192588   0.432   5.087   6.193
30782WAT     H292589   0.591   5.111   6.220
30783WAT      O92590   0.736   3.964   1.407
30783WAT     H192591   0.727   3.880   1.354
30783WAT     H292592   0.679   3.957   1.489
30784WAT      O92593   8.308   5.039   2.128
30784WAT     H192594   8.386   5.100   2.116
30784WAT     H292595   8.265   5.056   2.217
30785WAT      O92596   6.655   6.585   5.783
30785WAT     H192597   6.576   6.524   5.778
30785WAT     H292598   6.701   6.587   5.694
30786WAT      O92599   8.992   9.261   4.823
30786WAT     H192600   9.020   9.199   4.750
30786WAT     H292601   9.073   9.289   4.876
30787WAT      O92602   3.495   9.529   7.708
30787WAT     H192603   3.543   9.446   7.736
30787WAT     H292604   3.562   9.601   7.690
30788WAT      O92605   2.660   3.320   9.019
30788WAT     H192606   2.629   3.311   8.924
30788WAT     H292607   2.647   3.414   9.051
30789WAT      O92608   5.997   9.177   9.640
30789WAT     H192609   5.970   9.128   9.723
30789WAT     H292610   6.002   9.275   9.659
30790WAT      O92611   5.441   2.792   7.980
30790WAT     H192612   5.457   2.743   7.894
30790WAT     H292613   5.359   2.848   7.972
30791WAT      O92614   6.490   1.192   6.551
30791WAT     H192615   6.426   1.212   6.477
30791WAT     H292616   6.440   1.176   6.636
30792WAT      O92617   2.032   1.608   0.035
30792WAT     H192618   2.056   1.542   0.106
30792WAT     H292619   1.944   1.649   0.056
30793WAT      O92620   1.878   5.628   1.820
30793WAT     H192621   1.937   5.563   1.869
30793WAT     H292622   1.838   5.582   1.740
30794WAT      O92623   9.613   3.338   0.690
30794WAT     H192624   9.604   3.394   0.772
30794WAT     H292625   9.626   3.243   0.716
30795WAT      O92626   4.908   8.898   1.416
30795WAT     H192627   4.956   8.814   1.442
30795WAT     H292628   4.856   8.932   1.494
30796WAT      O92629   3.224   1.948   5.079
30796WAT     H192630   3.232   2.025   5.016
30796WAT     H292631   3.285   1.962   5.156
30797WAT      O92632   7.902   9.471   8.808
30797WAT     H192633   7.999   9.459   8.829
30797WAT     H292634   7.876   9.408   8.735
30798WAT      O92635   4.801   5.204   1.476
30798WAT     H192636   4.748   5.201   1.391
30798WAT     H292637   4.746   5.242   1.549
30799WAT      O92638   1.514   3.816   2.163
30799WAT     H192639   1.550   3.840   2.254
30799WAT     H292640   1.496   3.900   2.112
30800WAT      O92641   4.792   5.993   2.193
30800WAT     H192642   4.714   5.935   2.213
30800WAT     H292643   4.820   6.042   2.276
30801WAT      O92644   3.136   9.296   3.457
30801WAT     H192645   3.165   9.364   3.389
30801WAT     H292646   3.154   9.204   3.422
30802WAT      O92647   6.021   9.013   5.517
30802WAT     H192648   6.014   9.099   5.567
30802WAT     H292649   6.091   8.955   5.560
30803WAT      O92650   8.273   1.292   4.220
30803WAT     H192651   8.224   1.256   4.300
30803WAT     H292652   8.262   1.228   4.144
30804WAT      O92653   1.371   7.302   6.198
30804WAT     H192654   1.438   7.322   6.127
30804WAT     H292655   1.290   7.259   6.158
30805WAT      O92656   8.448   7.452   7.653
30805WAT     H192657   8.383   7.501   7.596
30805WAT     H292658   8.407   7.366   7.684
30806WAT      O92659   5.678   1.626   8.876
30806WAT     H192660   5.742   1.686   8.827
30806WAT     H292661   5.728   1.571   8.942
30807WAT      O92662   3.409   3.180   8.267
30807WAT     H192663   3.509   3.185   8.267
30807WAT     H292664   3.378   3.156   8.175
30808WAT      O92665   1.285   8.616   9.779
30808WAT     H192666   1.311   8.522   9.802
30808WAT     H292667   1.283   8.671   9.863
30809WAT      O92668   1.572   5.282   0.996
30809WAT     H192669   1.618   5.193   0.991
30809WAT     H292670   1.506   5.290   0.922
30810WAT      O92671   4.112   5.673   5.703
30810WAT     H192672   4.022   5.716   5.700
30810WAT     H292673   4.153   5.688   5.793
30811WAT      O92674   4.828   2.205   3.228
30811WAT     H192675   4.777   2.185   3.312
30811WAT     H292676   4.881   2.289   3.241
30812WAT      O92677   4.334   2.793   9.502
30812WAT     H192678   4.413   2.786   9.441
30812WAT     H292679   4.335   2.881   9.548
30813WAT      O92680   7.361   1.655   0.481
30813WAT     H192681   7.406   1.683   0.396
30813WAT     H292682   7.429   1.633   0.550
30814WAT      O92683   6.543   0.504   0.759
30814WAT     H192684   6.594   0.425   0.722
30814WAT     H292685   6.571   0.519   0.854
30815WAT      O92686   3.384   4.388   4.725
30815WAT     H192687   3.380   4.354   4.631
30815WAT     H292688   3.336   4.476   4.731
30816WAT      O92689   9.873   2.583   0.548
30816WAT     H192690   9.918   2.550   0.465
30816WAT     H292691   9.931   2.562   0.627
30817WAT      O92692   6.272   3.082   8.096
30817WAT     H192693   6.236   3.169   8.063
30817WAT     H292694   6.322   3.096   8.181
30818WAT      O92695   1.307   0.676   8.867
30818WAT     H192696   1.362   0.614   8.922
30818WAT     H292697   1.221   0.697   8.914
30819WAT      O92698   3.298   8.154   5.554
30819WAT     H192699   3.347   8.118   5.474
30819WAT     H292700   3.202   8.166   5.532
30820WAT      O92701   4.541   7.692   6.782
30820WAT     H192702   4.459   7.708   6.727
30820WAT     H292703   4.594   7.618   6.742
30821WAT      O92704   2.802   0.541   1.736
30821WAT     H192705   2.853   0.626   1.724
30821WAT     H292706   2.826   0.500   1.824
30822WAT      O92707   7.071   1.172   8.599
30822WAT     H192708   7.080   1.270   8.615
30822WAT     H292709   7.104   1.150   8.507
30823WAT      O92710   9.279   4.552   0.231
30823WAT     H192711   9.213   4.610   0.183
30823WAT     H292712   9.364   4.548   0.180
30824WAT      O92713   2.162   3.612   9.529
30824WAT     H192714   2.220   3.609   9.448
30824WAT     H292715   2.178   3.697   9.580
30825WAT      O92716   3.954   5.756   9.609
30825WAT     H192717   3.939   5.850   9.640
30825WAT     H292718   3.967   5.755   9.510
30826WAT      O92719   7.856   8.982   0.594
30826WAT     H192720   7.897   8.898   0.631
30826WAT     H292721   7.809   8.961   0.508
30827WAT      O92722   0.660   5.977   1.327
30827WAT     H192723   0.676   5.964   1.230
30827WAT     H292724   0.567   6.012   1.342
30828WAT      O92725   5.044   7.083   8.527
30828WAT     H192726   4.965   7.055   8.473
30828WAT     H292727   5.117   7.114   8.465
30829WAT      O92728   4.626   4.169   3.778
30829WAT     H192729   4.528   4.150   3.782
30829WAT     H292730   4.647   4.221   3.695
30830WAT      O92731   5.594   1.862   2.673
30830WAT     H192732   5.594   1.774   2.722
30830WAT     H292733   5.505   1.875   2.630
30831WAT      O92734   9.243   9.754   5.474
30831WAT     H192735   9.291   9.838   5.450
30831WAT     H292736   9.256   9.734   5.571
30832WAT      O92737   1.036   3.717   3.585
30832WAT     H192738   1.069   3.701   3.492
30832WAT     H292739   0.956   3.659   3.602
30833WAT      O92740   5.142   1.302   3.843
30833WAT     H192741   5.135   1.388   3.792
30833WAT     H292742   5.152   1.226   3.779
30834WAT      O92743   2.476   3.137   0.787
30834WAT     H192744   2.514   3.209   0.728
30834WAT     H292745   2.521   3.050   0.766
30835WAT      O92746   9.473   0.771   1.044
30835WAT     H192747   9.561   0.758   1.090
30835WAT     H292748   9.458   0.869   1.028
30836WAT      O92749   4.068   8.462   1.000
30836WAT     H192750   3.969   8.476   1.010
30836WAT     H292751   4.108   8.541   0.954
30837WAT      O92752   4.884   2.811   9.542
30837WAT     H192753   4.897   2.718   9.576
30837WAT     H292754   4.941   2.825   9.461
30838WAT      O92755   5.887   2.910   2.577
30838WAT     H192756   5.879   2.886   2.480
30838WAT     H292757   5.971   2.872   2.614
30839WAT      O92758   7.761   0.512   0.761
30839WAT     H192759   7.771   0.611   0.753
30839WAT     H292760   7.698   0.479   0.690
30840WAT      O92761   9.746   4.542   3.882
30840WAT     H192762   9.692   4.580   3.957
30840WAT     H292763   9.755   4.443   3.893
30841WAT      O92764   6.898   0.701   5.005
30841WAT     H192765   6.803   0.710   4.973
30841WAT     H292766   6.902   0.719   5.103
30842WAT      O92767   2.757   8.388   6.921
30842WAT     H192768   2.803   8.410   6.835
30842WAT     H292769   2.722   8.294   6.916
30843WAT      O92770   1.864   0.738   1.100
30843WAT     H192771   1.906   0.767   1.014
30843WAT     H292772   1.936   0.721   1.168
30844WAT      O92773   5.680   2.899   9.643
30844WAT     H192774   5.771   2.895   9.685
30844WAT     H292775   5.689   2.891   9.544
30845WAT      O92776   7.213   0.825   5.564
30845WAT     H192777   7.137   0.785   5.513
30845WAT     H292778   7.277   0.752   5.589
30846WAT      O92779   0.826   2.778   2.501
30846WAT     H192780   0.833   2.878   2.495
30846WAT     H292781   0.751   2.746   2.443
30847WAT      O92782   9.194   2.885   1.548
30847WAT     H192783   9.106   2.836   1.551
30847WAT     H292784   9.191   2.953   1.475
30848WAT      O92785   4.666   9.745   3.486
30848WAT     H192786   4.651   9.700   3.398
30848WAT     H292787   4.667   9.844   3.474
30849WAT      O92788   3.790   2.961   9.775
30849WAT     H192789   3.793   2.974   9.676
30849WAT     H292790   3.730   2.884   9.797
30850WAT      O92791   0.299   1.450   9.309
30850WAT     H192792   0.245   1.431   9.390
30850WAT     H292793   0.256   1.522   9.255
30851WAT      O92794   1.511   4.018   3.378
30851WAT     H192795   1.527   3.978   3.468
30851WAT     H292796   1.425   3.984   3.341
30852WAT      O92797   0.433   3.604   1.104
30852WAT     H192798   0.385   3.542   1.165
30852WAT     H292799   0.438   3.563   1.013
30853WAT      O92800   6.966   3.636   2.814
30853WAT     H192801   7.065   3.639   2.825
30853WAT     H292802   6.935   3.541   2.821
30854WAT      O92803   5.975   5.505   8.793
30854WAT     H192804   6.009   5.524   8.701
30854WAT     H292805   5.917   5.581   8.823
30855WAT      O92806   5.651   0.700   7.620
30855WAT     H192807   5.564   0.699   7.570
30855WAT     H292808   5.647   0.768   7.693
30856WAT      O92809   3.764   1.146   7.277
30856WAT     H192810   3.846   1.179   7.324
30856WAT     H292811   3.713   1.225   7.240
30857WAT      O92812   2.807   0.986   3.570
30857WAT     H192813   2.818   1.084   3.586
30857WAT     H292814   2.822   0.966   3.473
30858WAT      O92815   4.539   0.333   9.700
30858WAT     H192816   4.562   0.308   9.606
30858WAT     H292817   4.509   0.252   9.750
30859WAT      O92818   8.477   6.623   2.074
30859WAT     H192819   8.470   6.535   2.121
30859WAT     H292820   8.504   6.693   2.140
30860WAT      O92821   1.868   4.458   0.887
30860WAT     H192822   1.945   4.522   0.881
30860WAT     H292823   1.897   4.376   0.938
30861WAT      O92824   8.066   3.498   1.367
30861WAT     H192825   8.137   3.465   1.304
30861WAT     H292826   8.108   3.553   1.439
30862WAT      O92827   3.932   1.161   4.749
30862WAT     H192828   4.000   1.209   4.694
30862WAT     H292829   3.871   1.227   4.792
30863WAT      O92830   7.958   2.661   0.656
30863WAT     H192831   8.047   2.626   0.626
30863WAT     H292832   7.971   2.732   0.725
30864WAT      O92833   3.857   7.055   4.039
30864WAT     H192834   3.922   7.054   4.115
30864WAT     H292835   3.884   6.985   3.972
30865WAT      O92836   9.523   2.568   2.775
30865WAT     H192837   9.480   2.658   2.769
30865WAT     H292838   9.622   2.578   2.766
30866WAT      O92839   2.893   2.210   7.974
30866WAT     H192840   2.888   2.290   8.034
30866WAT     H292841   2.824   2.144   8.002
30867WAT      O92842   7.006   5.235   2.577
30867WAT     H192843   6.914   5.264   2.550
30867WAT     H292844   7.013   5.235   2.676
30868WAT      O92845   3.318   7.506   4.496
30868WAT     H192846   3.396   7.481   4.553
30868WAT     H292847   3.261   7.425   4.480
30869WAT      O92848   2.690   7.332   6.376
30869WAT     H192849   2.652   7.241   6.390
30869WAT     H292850   2.751   7.355   6.452
30870WAT      O92851   6.656   5.509   2.327
30870WAT     H192852   6.611   5.575   2.266
30870WAT     H292853   6.754   5.524   2.326
30871WAT      O92854   6.253   7.412   8.504
30871WAT     H192855   6.243   7.479   8.431
30871WAT     H292856   6.162   7.380   8.531
30872WAT      O92857   8.865   2.827   4.978
30872WAT     H192858   8.826   2.827   5.070
30872WAT     H292859   8.793   2.842   4.911
30873WAT      O92860   1.750   1.731   5.497
30873WAT     H192861   1.738   1.716   5.595
30873WAT     H292862   1.664   1.764   5.458
30874WAT      O92863   8.951   6.883   6.678
30874WAT     H192864   8.861   6.872   6.636
30874WAT     H292865   8.942   6.930   6.766
30875WAT      O92866   0.577   7.179   8.515
30875WAT     H192867   0.652   7.244   8.523
30875WAT     H292868   0.513   7.210   8.445
30876WAT      O92869   7.851   3.281   9.280
30876WAT     H192870   7.894   3.371   9.286
30876WAT     H292871   7.794   3.266   9.360
30877WAT      O92872   3.570   3.473   8.036
30877WAT     H192873   3.654   3.450   8.085
30877WAT     H292874   3.491   3.445   8.091
30878WAT      O92875   2.599   1.954   1.444
30878WAT     H192876   2.668   2.027   1.450
30878WAT     H292877   2.512   1.987   1.480
30879WAT      O92878   7.528   8.782   6.982
30879WAT     H192879   7.500   8.694   7.021
30879WAT     H292880   7.449   8.825   6.937
30880WAT      O92881   9.823   4.756   7.061
30880WAT     H192882   9.857   4.678   7.009
30880WAT     H292883   9.822   4.734   7.158
30881WAT      O92884   6.878   4.679   1.302
30881WAT     H192885   6.929   4.761   1.274
30881WAT     H292886   6.848   4.629   1.221
30882WAT      O92887   3.318   1.611   0.242
30882WAT     H192888   3.235   1.621   0.296
30882WAT     H292889   3.297   1.631   0.146
30883WAT      O92890   9.787   5.721   3.652
30883WAT     H192891   9.875   5.732   3.700
30883WAT     H292892   9.769   5.802   3.596
30884WAT      O92893   9.011   4.444   5.851
30884WAT     H192894   9.003   4.406   5.759
30884WAT     H292895   9.086   4.510   5.854
30885WAT      O92896   1.647   5.152   6.236
30885WAT     H192897   1.720   5.083   6.228
30885WAT     H292898   1.560   5.106   6.254
30886WAT      O92899   7.386   0.875   2.036
30886WAT     H192900   7.321   0.800   2.022
30886WAT     H292901   7.362   0.924   2.119
30887WAT      O92902   7.370   3.193   1.193
30887WAT     H192903   7.300   3.157   1.253
30887WAT     H292904   7.456   3.144   1.208
30888WAT      O92905   2.332   8.160   7.779
30888WAT     H192906   2.361   8.065   7.764
30888WAT     H292907   2.406   8.222   7.754
30889WAT      O92908   0.042   9.022   1.508
30889WAT     H192909  -0.011   9.103   1.531
30889WAT     H292910   0.137   9.047   1.489
30890WAT      O92911   7.547   9.066   0.896
30890WAT     H192912   7.470   9.121   0.862
30890WAT     H292913   7.524   8.969   0.887
30891WAT      O92914   7.449   4.946   3.119
30891WAT     H192915   7.524   4.883   3.096
30891WAT     H292916   7.449   5.022   3.054
30892WAT      O92917   4.918   0.247   0.438
30892WAT     H192918   4.881   0.296   0.358
30892WAT     H292919   4.843   0.215   0.495
30893WAT      O92920   5.051   9.025   2.182
30893WAT     H192921   5.100   9.022   2.095
30893WAT     H292922   4.962   8.980   2.171
30894WAT      O92923   4.983   1.707   6.207
30894WAT     H192924   4.901   1.761   6.226
30894WAT     H292925   5.042   1.706   6.287
30895WAT      O92926   9.122   1.354   9.173
30895WAT     H192927   9.146   1.379   9.266
30895WAT     H292928   9.075   1.265   9.173
30896WAT      O92929   3.265   8.689   3.801
30896WAT     H192930   3.247   8.671   3.898
30896WAT     H292931   3.270   8.603   3.752
30897WAT      O92932   9.277   3.657   2.307
30897WAT     H192933   9.227   3.594   2.248
30897WAT     H292934   9.212   3.721   2.349
30898WAT      O92935   9.276   9.689   1.638
30898WAT     H192936   9.183   9.722   1.623
30898WAT     H292937   9.325   9.753   1.698
30899WAT      O92938   5.318   1.301   8.295
30899WAT     H192939   5.254   1.250   8.238
30899WAT     H292940   5.362   1.239   8.360
30900WAT      O92941   3.056   3.542   0.976
30900WAT     H192942   3.016   3.514   0.889
30900WAT     H292943   3.036   3.639   0.992
30901WAT      O92944   5.021   4.076   5.545
30901WAT     H192945   5.059   4.079   5.453
30901WAT     H292946   4.961   4.155   5.559
30902WAT      O92947   6.017   0.783   5.875
30902WAT     H192948   5.961   0.723   5.819
30902WAT     H292949   5.958   0.838   5.935
30903WAT      O92950   2.680   7.345   1.983
30903WAT     H192951   2.714   7.378   2.070
30903WAT     H292952   2.717   7.253   1.965
30904WAT      O92953   7.558   6.566   8.041
30904WAT     H192954   7.578   6.659   8.070
30904WAT     H292955   7.504   6.520   8.111
30905WAT      O92956   6.694   5.779   9.711
30905WAT     H192957   6.615   5.733   9.671
30905WAT     H292958   6.686   5.877   9.697
30906WAT      O92959   2.439   1.230   1.468
30906WAT     H192960   2.365   1.163   1.471
30906WAT     H292961   2.490   1.221   1.383
30907WAT      O92962   5.575   7.207   2.374
30907WAT     H192963   5.614   7.285   2.325
30907WAT     H292964   5.563   7.130   2.312
30908WAT      O92965   6.698   5.309   1.436
30908WAT     H192966   6.646   5.312   1.522
30908WAT     H292967   6.639   5.338   1.360
30909WAT      O92968   9.636   0.282   5.078
30909WAT     H192969   9.623   0.381   5.070
30909WAT     H292970   9.625   0.256   5.174
30910WAT      O92971   5.623   6.250   0.826
30910WAT     H192972   5.558   6.206   0.889
30910WAT     H292973   5.638   6.344   0.855
30911WAT      O92974   9.825   5.691   0.313
30911WAT     H192975   9.743   5.746   0.298
30911WAT     H292976   9.801   5.608   0.364
30912WAT      O92977   3.017   9.031   4.248
30912WAT     H192978   3.001   8.998   4.155
30912WAT     H292979   2.934   9.020   4.303
30913WAT      O92980   6.825   6.261   1.327
30913WAT     H192981   6.759   6.327   1.291
30913WAT     H292982   6.873   6.217   1.251
30914WAT      O92983   2.940   1.619   3.643
30914WAT     H192984   2.993   1.682   3.587
30914WAT     H292985   2.957   1.637   3.740
30915WAT      O92986   7.971   7.125   6.855
30915WAT     H192987   8.061   7.087   6.877
30915WAT     H292988   7.915   7.130   6.937
30916WAT      O92989   3.190   7.255   4.470
30916WAT     H192990   3.202   7.209   4.382
30916WAT     H292991   3.192   7.187   4.544
30917WAT      O92992   8.978   7.183   1.260
30917WAT     H192993   8.966   7.089   1.229
30917WAT     H292994   9.035   7.183   1.343
30918WAT      O92995   9.170   2.765   0.668
30918WAT     H192996   9.236   2.711   0.719
30918WAT     H292997   9.077   2.741   0.697
30919WAT      O92998   8.148   9.443   8.938
30919WAT     H192999   8.227   9.485   8.894
30919WAT     H293000   8.144   9.346   8.914
30920WAT      O93001   1.237   0.766   7.879
30920WAT     H193002   1.294   0.846   7.862
30920WAT     H293003   1.271   0.689   7.827
30921WAT      O93004   7.324   3.602   0.670
30921WAT     H193005   7.330   3.697   0.639
30921WAT     H293006   7.252   3.555   0.620
30922WAT      O93007   2.133   7.085   0.730
30922WAT     H193008   2.202   7.037   0.784
30922WAT     H293009   2.054   7.026   0.716
30923WAT      O93010   4.707   2.374   5.807
30923WAT     H193011   4.704   2.378   5.707
30923WAT     H293012   4.749   2.287   5.835
30924WAT      O93013   2.264   2.098   5.843
30924WAT     H193014   2.205   2.021   5.818
30924WAT     H293015   2.357   2.063   5.860
30925WAT      O93016   1.730   4.614   7.682
30925WAT     H193017   1.808   4.552   7.693
30925WAT     H293018   1.712   4.661   7.769
30926WAT      O93019   0.463   5.122   2.083
30926WAT     H193020   0.547   5.068   2.080
30926WAT     H293021   0.453   5.164   2.173
30927WAT      O93022   1.290   2.057   6.670
30927WAT     H193023   1.331   2.033   6.583
30927WAT     H293024   1.190   2.059   6.661
30928WAT      O93025   7.557   0.203   8.030
30928WAT     H193026   7.552   0.115   7.983
30928WAT     H293027   7.640   0.208   8.084
30929WAT      O93028   5.894   4.545   5.518
30929WAT     H193029   5.978   4.559   5.570
30929WAT     H293030   5.905   4.465   5.459
30930WAT      O93031   7.023   9.630   0.492
30930WAT     H193032   6.984   9.713   0.533
30930WAT     H293033   7.024   9.638   0.393
30931WAT      O93034   9.796   3.334   5.296
30931WAT     H193035   9.834   3.410   5.349
30931WAT     H293036   9.870   3.288   5.245
30932WAT      O93037   9.745   7.829   9.551
30932WAT     H193038   9.813   7.761   9.526
30932WAT     H293039   9.711   7.811   9.643
30933WAT      O93040   7.538   8.282   7.097
30933WAT     H193041   7.596   8.209   7.061
30933WAT     H293042   7.459   8.241   7.144
30934WAT      O93043   2.989   9.586   3.434
30934WAT     H193044   3.084   9.617   3.438
30934WAT     H293045   2.930   9.662   3.408
30935WAT      O93046   0.130   4.416   5.282
30935WAT     H193047   0.212   4.447   5.329
30935WAT     H293048   0.143   4.322   5.250
30936WAT      O93049   4.702   4.622   1.477
30936WAT     H193050   4.780   4.662   1.526
30936WAT     H293051   4.648   4.567   1.541
30937WAT      O93052   7.700   7.031   6.479
30937WAT     H193053   7.757   7.112   6.496
30937WAT     H293054   7.672   7.031   6.383
30938WAT      O93055   2.232   6.851   0.127
30938WAT     H193056   2.312   6.797   0.100
30938WAT     H293057   2.150   6.812   0.086
30939WAT      O93058   3.578   8.706   7.121
30939WAT     H193059   3.507   8.644   7.154
30939WAT     H293060   3.659   8.654   7.095
30940WAT      O93061   4.460   5.011   6.347
30940WAT     H193062   4.495   5.023   6.254
30940WAT     H293063   4.496   5.084   6.405
30941WAT      O93064   2.233   4.065   7.659
30941WAT     H193065   2.232   3.998   7.734
30941WAT     H293066   2.140   4.095   7.640
30942WAT      O93067   5.220   2.248   1.831
30942WAT     H193068   5.305   2.216   1.873
30942WAT     H293069   5.197   2.339   1.867
30943WAT      O93070   1.147   1.642   2.315
30943WAT     H193071   1.058   1.680   2.337
30943WAT     H293072   1.149   1.545   2.339
30944WAT      O93073   4.587   8.988   2.174
30944WAT     H193074   4.582   9.035   2.085
30944WAT     H293075   4.595   9.056   2.247
30945WAT      O93076   8.878   7.862   2.035
30945WAT     H193077   8.801   7.867   2.098
30945WAT     H293078   8.952   7.808   2.076
30946WAT      O93079   5.805   7.551   7.723
30946WAT     H193080   5.758   7.611   7.658
30946WAT     H293081   5.904   7.558   7.709
30947WAT      O93082   4.526   9.486   0.637
30947WAT     H193083   4.490   9.574   0.669
30947WAT     H293084   4.481   9.460   0.551
30948WAT      O93085   5.673   3.292   3.785
30948WAT     H193086   5.724   3.240   3.853
30948WAT     H293087   5.636   3.229   3.716
30949WAT      O93088   9.257   6.945   9.668
30949WAT     H193089   9.243   6.848   9.690
30949WAT     H293090   9.348   6.958   9.629
30950WAT      O93091   8.986   2.332   1.276
30950WAT     H193092   9.082   2.328   1.303
30950WAT     H293093   8.978   2.320   1.177
30951WAT      O93094   9.576   2.741   9.443
30951WAT     H193095   9.647   2.753   9.513
30951WAT     H293096   9.544   2.831   9.413
30952WAT      O93097   2.607   9.182   4.962
30952WAT     H193098   2.702   9.187   4.932
30952WAT     H293099   2.580   9.086   4.971
30953WAT      O93100   7.501   1.269   5.683
30953WAT     H193101   7.570   1.201   5.656
30953WAT     H293102   7.476   1.324   5.603
30954WAT      O93103   8.797   9.534   3.486
30954WAT     H193104   8.714   9.478   3.492
30954WAT     H293105   8.797   9.601   3.560
30955WAT      O93106   1.196   5.342   2.683
30955WAT     H193107   1.198   5.334   2.584
30955WAT     H293108   1.167   5.254   2.723
30956WAT      O93109   6.104   4.658   0.605
30956WAT     H193110   6.031   4.645   0.672
30956WAT     H293111   6.092   4.595   0.529
30957WAT      O93112   1.782   9.362   9.747
30957WAT     H193113   1.728   9.285   9.714
30957WAT     H293114   1.794   9.428   9.673
30958WAT      O93115   1.068   0.296   6.465
30958WAT     H193116   1.036   0.202   6.460
30958WAT     H293117   0.990   0.358   6.465
30959WAT      O93118   2.065   1.536   9.654
30959WAT     H193119   2.157   1.516   9.620
30959WAT     H293120   2.070   1.562   9.750
30960WAT      O93121   4.288   9.196   6.478
30960WAT     H193122   4.306   9.254   6.398
30960WAT     H293123   4.242   9.249   6.549
30961WAT      O93124   8.960   4.988   8.077
30961WAT     H193125   8.939   4.944   7.989
30961WAT     H293126   8.964   5.087   8.064
30962WAT      O93127   7.734   1.561   3.935
30962WAT     H193128   7.648   1.535   3.980
30962WAT     H293129   7.742   1.513   3.848
30963WAT      O93130   6.343   2.389   0.609
30963WAT     H193131   6.337   2.473   0.664
30963WAT     H293132   6.279   2.321   0.645
30964WAT      O93133   1.523   4.835   0.933
30964WAT     H193134   1.554   4.740   0.928
30964WAT     H293135   1.603   4.896   0.938
30965WAT      O93136   1.293   0.991   4.942
30965WAT     H193137   1.345   1.054   5.000
30965WAT     H293138   1.209   1.034   4.912
30966WAT      O93139   9.092   2.968   4.575
30966WAT     H193140   9.058   3.059   4.551
30966WAT     H293141   9.014   2.905   4.584
30967WAT      O93142   3.358   2.834   5.492
30967WAT     H193143   3.430   2.820   5.559
30967WAT     H293144   3.270   2.806   5.530
30968WAT      O93145   6.481   8.160   8.742
30968WAT     H193146   6.546   8.090   8.772
30968WAT     H293147   6.408   8.170   8.809
30969WAT      O93148   6.950   5.428   9.245
30969WAT     H193149   6.882   5.376   9.297
30969WAT     H293150   7.020   5.365   9.210
30970WAT      O93151   1.820   0.082   7.154
30970WAT     H193152   1.828  -0.017   7.148
30970WAT     H293153   1.877   0.116   7.228
30971WAT      O93154   7.392   5.628   8.818
30971WAT     H193155   7.352   5.673   8.738
30971WAT     H293156   7.414   5.697   8.887
30972WAT      O93157   7.457   4.329   5.983
30972WAT     H193158   7.494   4.343   5.892
30972WAT     H293159   7.532   4.313   6.048
30973WAT      O93160   2.983   9.415   2.635
30973WAT     H193161   2.998   9.427   2.536
30973WAT     H293162   2.938   9.328   2.652
30974WAT      O93163   9.631   2.261   7.222
30974WAT     H193164   9.572   2.303   7.153
30974WAT     H293165   9.586   2.266   7.311
30975WAT      O93166   0.947   8.098   4.271
30975WAT     H193167   0.940   8.040   4.353
30975WAT     H293168   0.950   8.040   4.190
30976WAT      O93169   4.136   1.812   3.456
30976WAT     H193170   4.101   1.779   3.544
30976WAT     H293171   4.076   1.779   3.383
30977WAT      O93172   2.041   3.996   8.752
30977WAT     H193173   2.013   4.069   8.815
30977WAT     H293174   2.059   3.912   8.805
30978WAT      O93175   8.767   2.598   6.794
30978WAT     H193176   8.669   2.575   6.796
30978WAT     H293177   8.811   2.550   6.718
30979WAT      O93178   1.373   7.478   2.437
30979WAT     H193179   1.418   7.401   2.482
30979WAT     H293180   1.370   7.556   2.500
30980WAT      O93181   5.646   1.520   8.306
30980WAT     H193182   5.608   1.603   8.347
30980WAT     H293183   5.594   1.497   8.224
30981WAT      O93184   5.220   0.002   2.370
30981WAT     H193185   5.317   0.027   2.369
30981WAT     H293186   5.196  -0.033   2.460
30982WAT      O93187   6.618   4.619   2.136
30982WAT     H193188   6.558   4.611   2.216
30982WAT     H293189   6.621   4.714   2.106
30983WAT      O93190   4.912   4.706   8.332
30983WAT     H193191   4.858   4.740   8.256
30983WAT     H293192   4.988   4.650   8.298
30984WAT      O93193   1.130   0.823   8.153
30984WAT     H193194   1.151   0.778   8.066
30984WAT     H293195   1.034   0.806   8.177
30985WAT      O93196   1.637   6.182   6.441
30985WAT     H193197   1.655   6.258   6.504
30985WAT     H293198   1.646   6.095   6.489
30986WAT      O93199   8.603   4.833   1.741
30986WAT     H193200   8.672   4.767   1.770
30986WAT     H293201   8.534   4.842   1.812
30987WAT      O93202   0.067   4.141   4.593
30987WAT     H193203  -0.029   4.167   4.591
30987WAT     H293204   0.095   4.110   4.502
30988WAT      O93205   6.091   0.309   4.190
30988WAT     H193206   6.027   0.236   4.214
30988WAT     H293207   6.077   0.335   4.094
30989WAT      O93208   6.797   2.478   7.153
30989WAT     H193209   6.855   2.461   7.233
30989WAT     H293210   6.759   2.570   7.158
30990WAT      O93211   3.467   9.666   3.288
30990WAT     H193212   3.512   9.625   3.208
30990WAT     H293213   3.494   9.617   3.371
30991WAT      O93214   2.072   4.786   9.095
30991WAT     H193215   2.067   4.883   9.074
30991WAT     H293216   2.150   4.746   9.047
30992WAT      O93217   1.582   6.075   2.163
30992WAT     H193218   1.542   6.126   2.086
30992WAT     H293219   1.681   6.066   2.150
30993WAT      O93220   6.300   6.719   3.622
30993WAT     H193221   6.396   6.739   3.639
30993WAT     H293222   6.275   6.753   3.531
30994WAT      O93223   8.343   4.981   5.650
30994WAT     H193224   8.437   5.003   5.675
30994WAT     H293225   8.343   4.908   5.582
30995WAT      O93226   6.675   9.216   0.138
30995WAT     H193227   6.638   9.308   0.127
30995WAT     H293228   6.753   9.218   0.200
30996WAT      O93229   4.915   0.804   6.965
30996WAT     H193230   4.874   0.895   6.956
30996WAT     H293231   4.976   0.802   7.044
30997WAT      O93232   6.670   4.390   3.711
30997WAT     H193233   6.597   4.364   3.774
30997WAT     H293234   6.643   4.474   3.662
30998WAT      O93235   9.806   4.530   1.184
30998WAT     H193236   9.716   4.553   1.220
30998WAT     H293237   9.843   4.608   1.134
30999WAT      O93238   3.120   2.454   6.275
30999WAT     H193239   3.107   2.553   6.269
30999WAT     H293240   3.173   2.423   6.197
31000WAT      O93241   8.583   3.666   2.136
31000WAT     H193242   8.635   3.740   2.179
31000WAT     H293243   8.633   3.632   2.056
31001WAT      O93244   5.129   5.469   7.738
31001WAT     H193245   5.111   5.567   7.738
31001WAT     H293246   5.142   5.438   7.643
31002WAT      O93247   3.282   1.836   6.545
31002WAT     H193248   3.351   1.900   6.512
31002WAT     H293249   3.327   1.757   6.588
31003WAT      O93250   7.020   4.409   0.253
31003WAT     H193251   6.924   4.399   0.280
31003WAT     H293252   7.041   4.507   0.245
31004WAT      O93253   1.424   0.920   4.165
31004WAT     H193254   1.520   0.938   4.140
31004WAT     H293255   1.402   0.825   4.144
31005WAT      O93256   5.571   1.157   4.770
31005WAT     H193257   5.602   1.241   4.816
31005WAT     H293258   5.529   1.096   4.837
31006WAT      O93259   1.107   4.610   5.053
31006WAT     H193260   1.117   4.615   5.152
31006WAT     H293261   1.198   4.607   5.010
31007WAT      O93262   4.002   7.461   9.237
31007WAT     H193263   4.041   7.473   9.329
31007WAT     H293264   3.916   7.511   9.231
31008WAT      O93265   9.227   7.860   6.399
31008WAT     H193266   9.198   7.955   6.387
31008WAT     H293267   9.209   7.809   6.315
31009WAT      O93268   8.542   2.040   3.610
31009WAT     H193269   8.604   1.961   3.615
31009WAT     H293270   8.577   2.114   3.667
31010WAT      O93271   6.879   3.467   9.339
31010WAT     H193272   6.879   3.378   9.385
31010WAT     H293273   6.788   3.485   9.300
31011WAT      O93274   0.903   8.695   3.810
31011WAT     H193275   0.989   8.675   3.855
31011WAT     H293276   0.828   8.652   3.860
31012WAT      O93277   4.970   0.138   8.999
31012WAT     H193278   5.055   0.092   8.974
31012WAT     H293279   4.933   0.097   9.082
31013WAT      O93280   1.119   2.477   7.756
31013WAT     H193281   1.123   2.567   7.799
31013WAT     H293282   1.170   2.478   7.670
31014WAT      O93283   5.537   4.883   7.248
31014WAT     H193284   5.519   4.966   7.302
31014WAT     H293285   5.480   4.808   7.282
31015WAT      O93286   6.697   7.116   7.859
31015WAT     H193287   6.705   7.031   7.806
31015WAT     H293288   6.621   7.108   7.923
31016WAT      O93289   8.172   2.841   5.378
31016WAT     H193290   8.215   2.930   5.362
31016WAT     H293291   8.175   2.787   5.294
31017WAT      O93292   1.910   1.041   3.016
31017WAT     H193293   1.963   1.007   3.094
31017WAT     H293294   1.921   0.979   2.938
31018WAT      O93295   6.824   1.178   9.459
31018WAT     H193296   6.859   1.192   9.552
31018WAT     H293297   6.870   1.100   9.417
31019WAT      O93298   7.379   9.836   9.402
31019WAT     H193299   7.384   9.935   9.396
31019WAT     H293300   7.314   9.801   9.334
31020WAT      O93301   4.785   9.335   4.687
31020WAT     H193302   4.785   9.262   4.755
31020WAT     H293303   4.697   9.336   4.638
31021WAT      O93304   7.733   0.920   3.138
31021WAT     H193305   7.765   0.912   3.044
31021WAT     H293306   7.678   0.839   3.162
31022WAT      O93307   0.046   6.086   4.423
31022WAT     H193308   0.025   5.997   4.383
31022WAT     H293309   0.089   6.144   4.355
31023WAT      O93310   6.660   2.309   1.872
31023WAT     H193311   6.755   2.339   1.863
31023WAT     H293312   6.614   2.364   1.942
31024WAT      O93313   3.591   9.026   5.985
31024WAT     H193314   3.640   9.002   6.068
31024WAT     H293315   3.641   9.098   5.936
31025WAT      O93316   2.886   0.395   0.481
31025WAT     H193317   2.788   0.400   0.462
31025WAT     H293318   2.926   0.318   0.431
31026WAT      O93319   3.450   4.579   9.745
31026WAT     H193320   3.419   4.670   9.771
31026WAT     H293321   3.550   4.579   9.735
31027WAT      O93322   8.723   9.633   3.085
31027WAT     H193323   8.749   9.633   2.988
31027WAT     H293324   8.786   9.575   3.136
31028WAT      O93325   7.176   6.393   5.240
31028WAT     H193326   7.089   6.366   5.201
31028WAT     H293327   7.232   6.312   5.258
31029WAT      O93328   7.278   7.649   1.758
31029WAT     H193329   7.307   7.696   1.675
31029WAT     H293330   7.227   7.566   1.733
31030WAT      O93331   2.756   5.533   2.170
31030WAT     H193332   2.708   5.465   2.114
31030WAT     H293333   2.707   5.545   2.256
31031WAT      O93334   1.690   2.932   5.178
31031WAT     H193335   1.699   2.843   5.222
31031WAT     H293336   1.614   2.930   5.114
31032WAT      O93337   1.668   8.954   5.984
31032WAT     H193338   1.666   8.964   5.884
31032WAT     H293339   1.689   8.859   6.007
31033WAT      O93340   3.061   8.421   3.244
31033WAT     H193341   3.152   8.404   3.282
31033WAT     H293342   3.045   8.360   3.166
31034WAT      O93343   2.127   5.435   6.568
31034WAT     H193344   2.051   5.474   6.517
31034WAT     H293345   2.191   5.508   6.594
31035WAT      O93346   2.991   3.267   6.368
31035WAT     H193347   3.072   3.219   6.337
31035WAT     H293348   2.998   3.284   6.467
31036WAT      O93349   2.335   7.637   1.994
31036WAT     H193350   2.330   7.574   1.917
31036WAT     H293351   2.338   7.731   1.961
31037WAT      O93352   0.228   7.998   9.413
31037WAT     H193353   0.250   7.905   9.384
31037WAT     H293354   0.258   8.011   9.508
31038WAT      O93355   3.745   1.565   1.886
31038WAT     H193356   3.678   1.551   1.959
31038WAT     H293357   3.802   1.484   1.877
31039WAT      O93358   5.388   7.513   0.881
31039WAT     H193359   5.465   7.470   0.834
31039WAT     H293360   5.313   7.528   0.816
31040WAT      O93361   8.497   5.816   1.140
31040WAT     H193362   8.504   5.870   1.224
31040WAT     H293363   8.566   5.744   1.142
31041WAT      O93364   8.485   1.287   3.715
31041WAT     H193365   8.419   1.358   3.740
31041WAT     H293366   8.577   1.326   3.715
31042WAT      O93367   0.911   4.199   0.573
31042WAT     H193368   0.933   4.103   0.590
31042WAT     H293369   0.985   4.257   0.606
31043WAT      O93370   3.886   9.244   8.586
31043WAT     H193371   3.932   9.330   8.564
31043WAT     H293372   3.795   9.243   8.545
31044WAT      O93373   2.896   6.349   2.198
31044WAT     H193374   2.885   6.448   2.187
31044WAT     H293375   2.972   6.318   2.140
31045WAT      O93376   9.162   4.922   8.692
31045WAT     H193377   9.117   4.833   8.700
31045WAT     H293378   9.260   4.908   8.673
31046WAT      O93379   9.457   7.686   0.526
31046WAT     H193380   9.410   7.721   0.607
31046WAT     H293381   9.399   7.619   0.479
31047WAT      O93382   2.206   9.642   9.870
31047WAT     H193383   2.228   9.585   9.949
31047WAT     H293384   2.232   9.737   9.890
31048WAT      O93385   0.242   8.266   7.418
31048WAT     H193386   0.192   8.189   7.456
31048WAT     H293387   0.289   8.238   7.334
31049WAT      O93388   8.702   5.720   3.746
31049WAT     H193389   8.704   5.706   3.845
31049WAT     H293390   8.628   5.782   3.723
31050WAT      O93391   4.050   7.583   4.482
31050WAT     H193392   3.993   7.544   4.410
31050WAT     H293393   4.080   7.511   4.544
31051WAT      O93394   9.676   5.162   5.133
31051WAT     H193395   9.717   5.213   5.209
31051WAT     H293396   9.587   5.202   5.111
31052WAT      O93397   2.265   4.564   8.664
31052WAT     H193398   2.296   4.469   8.661
31052WAT     H293399   2.239   4.594   8.572
31053WAT      O93400   4.540   1.110   1.015
31053WAT     H193401   4.598   1.029   1.003
31053WAT     H293402   4.559   1.175   0.941
31054WAT      O93403   7.269   5.167   0.944
31054WAT     H193404   7.337   5.129   1.007
31054WAT     H293405   7.304   5.252   0.905
31055WAT      O93406   8.649   5.326   2.753
31055WAT     H193407   8.553   5.353   2.762
31055WAT     H293408   8.661   5.233   2.787
31056WAT      O93409   9.413   8.309   9.302
31056WAT     H193410   9.362   8.378   9.354
31056WAT     H293411   9.363   8.223   9.302
31057WAT      O93412   2.353   2.382   9.011
31057WAT     H193413   2.335   2.383   9.109
31057WAT     H293414   2.448   2.407   8.994
31058WAT      O93415   2.531   9.048   1.565
31058WAT     H193416   2.434   9.043   1.590
31058WAT     H293417   2.578   9.110   1.628
31059WAT      O93418   4.964   9.318   7.026
31059WAT     H193419   4.870   9.354   7.023
31059WAT     H293420   4.963   9.228   7.069
31060WAT      O93421   6.805   8.155   6.595
31060WAT     H193422   6.822   8.253   6.603
31060WAT     H293423   6.873   8.105   6.649
31061WAT      O93424   3.184   6.894   0.912
31061WAT     H193425   3.268   6.865   0.867
31061WAT     H293426   3.137   6.962   0.855
31062WAT      O93427   3.471   2.443   4.008
31062WAT     H193428   3.557   2.394   3.995
31062WAT     H293429   3.439   2.476   3.919
31063WAT      O93430   9.545   5.316   2.176
31063WAT     H193431   9.537   5.273   2.265
31063WAT     H293432   9.641   5.323   2.150
31064WAT      O93433   3.641   4.605   2.014
31064WAT     H193434   3.654   4.617   2.113
31064WAT     H293435   3.677   4.516   1.986
31065WAT      O93436   8.384   0.824   5.260
31065WAT     H193437   8.327   0.838   5.179
31065WAT     H293438   8.354   0.743   5.309
31066WAT      O93439   5.179   3.961   8.573
31066WAT     H193440   5.100   3.910   8.537
31066WAT     H293441   5.261   3.904   8.565
31067WAT      O93442   1.472   9.777   9.779
31067WAT     H193443   1.510   9.728   9.700
31067WAT     H293444   1.518   9.865   9.788
31068WAT      O93445   4.256   6.250   5.005
31068WAT     H193446   4.207   6.170   4.970
31068WAT     H293447   4.298   6.227   5.093
31069WAT      O93448   8.388   3.840   4.346
31069WAT     H193449   8.479   3.804   4.326
31069WAT     H293450   8.323   3.764   4.353
31070WAT      O93451   0.077   3.925   7.070
31070WAT     H193452   0.175   3.937   7.083
31070WAT     H293453   0.048   3.836   7.107
31071WAT      O93454   0.732   1.228   4.333
31071WAT     H193455   0.814   1.240   4.277
31071WAT     H293456   0.694   1.137   4.318
31072WAT      O93457   1.498   5.623   8.708
31072WAT     H193458   1.547   5.662   8.786
31072WAT     H293459   1.400   5.618   8.728
31073WAT      O93460   9.112   2.901   8.116
31073WAT     H193461   9.164   2.891   8.200
31073WAT     H293462   9.053   2.982   8.122
31074WAT      O93463   2.993   1.516   8.334
31074WAT     H193464   3.006   1.613   8.314
31074WAT     H293465   3.076   1.480   8.377
31075WAT      O93466   3.320   9.180   8.894
31075WAT     H193467   3.305   9.279   8.890
31075WAT     H293468   3.319   9.142   8.802
31076WAT      O93469   9.453   1.606   7.109
31076WAT     H193470   9.408   1.535   7.162
31076WAT     H293471   9.388   1.646   7.044
31077WAT      O93472   7.140   2.078   1.491
31077WAT     H193473   7.148   2.052   1.587
31077WAT     H293474   7.198   2.157   1.473
31078WAT      O93475   3.116   7.940   6.278
31078WAT     H193476   3.053   8.018   6.282
31078WAT     H293477   3.161   7.929   6.366
31079WAT      O93478   2.133   9.749   3.395
31079WAT     H193479   2.232   9.752   3.380
31079WAT     H293480   2.090   9.692   3.325
31080WAT      O93481   2.814   5.136   9.555
31080WAT     H193482   2.844   5.225   9.590
31080WAT     H293483   2.734   5.105   9.607
31081WAT      O93484   5.987   9.408   6.297
31081WAT     H193485   6.075   9.426   6.340
31081WAT     H293486   5.963   9.485   6.238
31082WAT      O93487   3.136   2.887   7.086
31082WAT     H193488   3.086   2.842   7.160
31082WAT     H293489   3.222   2.839   7.069
31083WAT      O93490   9.336   5.443   9.254
31083WAT     H193491   9.257   5.502   9.241
31083WAT     H293492   9.359   5.439   9.351
31084WAT      O93493   2.551   7.869   7.030
31084WAT     H193494   2.647   7.861   7.056
31084WAT     H293495   2.497   7.804   7.083
31085WAT      O93496   0.358   7.970   4.468
31085WAT     H193497   0.355   7.935   4.375
31085WAT     H293498   0.309   8.058   4.472
31086WAT      O93499   0.107   2.888   7.358
31086WAT     H193500   0.190   2.839   7.384
31086WAT     H293501   0.130   2.981   7.329
31087WAT      O93502   6.948   4.174   1.434
31087WAT     H193503   6.967   4.079   1.408
31087WAT     H293504   7.020   4.207   1.494
31088WAT      O93505   0.535   6.841   0.409
31088WAT     H193506   0.549   6.796   0.320
31088WAT     H293507   0.556   6.938   0.401
31089WAT      O93508   0.580   3.550   1.657
31089WAT     H193509   0.571   3.467   1.712
31089WAT     H293510   0.676   3.563   1.632
31090WAT      O93511   5.400   9.519   0.155
31090WAT     H193512   5.356   9.608   0.143
31090WAT     H293513   5.477   9.512   0.091
31091WAT      O93514   6.331   3.245   4.935
31091WAT     H193515   6.386   3.328   4.921
31091WAT     H293516   6.237   3.262   4.906
31092WAT      O93517   0.587   7.887   9.210
31092WAT     H193518   0.629   7.961   9.158
31092WAT     H293519   0.566   7.919   9.303
31093WAT      O93520   0.369   5.859   9.163
31093WAT     H193521   0.355   5.828   9.257
31093WAT     H293522   0.315   5.942   9.147
31094WAT      O93523   4.854   5.906   8.689
31094WAT     H193524   4.887   5.900   8.594
31094WAT     H293525   4.931   5.926   8.749
31095WAT      O93526   2.860   7.848   2.499
31095WAT     H193527   2.848   7.835   2.597
31095WAT     H293528   2.802   7.783   2.449
31096WAT      O93529   2.580   2.942   8.494
31096WAT     H193530   2.538   2.972   8.579
31096WAT     H293531   2.652   3.006   8.468
31097WAT      O93532   3.064   0.610   3.445
31097WAT     H193533   3.085   0.680   3.512
31097WAT     H293534   3.149   0.575   3.405
31098WAT      O93535   2.656   4.221   2.175
31098WAT     H193536   2.740   4.262   2.212
31098WAT     H293537   2.593   4.293   2.148
31099WAT      O93538   5.586   6.496   4.806
31099WAT     H193539   5.512   6.522   4.743
31099WAT     H293540   5.548   6.474   4.895
31100WAT      O93541   4.200   1.529   0.959
31100WAT     H193542   4.139   1.451   0.972
31100WAT     H293543   4.256   1.513   0.877
31101WAT      O93544   1.541   0.226   6.314
31101WAT     H193545   1.505   0.186   6.230
31101WAT     H293546   1.600   0.303   6.292
31102WAT      O93547   5.155   1.222   9.501
31102WAT     H193548   5.114   1.295   9.556
31102WAT     H293549   5.218   1.262   9.434
31103WAT      O93550   3.043   8.743   2.827
31103WAT     H193551   2.949   8.744   2.794
31103WAT     H293552   3.075   8.836   2.841
31104WAT      O93553   3.100   0.000   9.869
31104WAT     H193554   3.101   0.014   9.770
31104WAT     H293555   3.105   0.089   9.915
31105WAT      O93556   6.665   6.121   2.682
31105WAT     H193557   6.696   6.027   2.674
31105WAT     H293558   6.672   6.152   2.777
31106WAT      O93559   0.346   9.717   0.657
31106WAT     H193560   0.292   9.757   0.731
31106WAT     H293561   0.429   9.676   0.694
31107WAT      O93562   5.287   6.864   1.861
31107WAT     H193563   5.343   6.842   1.781
31107WAT     H293564   5.248   6.956   1.850
31108WAT      O93565   0.709   2.027   5.017
31108WAT     H193566   0.679   2.055   5.108
31108WAT     H293567   0.632   1.987   4.968
31109WAT      O93568   0.922   3.935   6.250
31109WAT     H193569   0.826   3.914   6.270
31109WAT     H293570   0.974   3.935   6.336
31110WAT      O93571   3.650   2.764   1.910
31110WAT     H193572   3.718   2.815   1.961
31110WAT     H293573   3.681   2.670   1.896
31111WAT      O93574   6.462   8.204   0.839
31111WAT     H193575   6.404   8.162   0.769
31111WAT     H293576   6.404   8.239   0.913
31112WAT      O93577   6.809   2.185   6.378
31112WAT     H193578   6.868   2.253   6.335
31112WAT     H293579   6.720   2.225   6.398
31113WAT      O93580   1.013   2.611   9.553
31113WAT     H193581   0.924   2.570   9.571
31113WAT     H293582   1.084   2.540   9.554
31114WAT      O93583   7.012   8.127   1.086
31114WAT     H193584   7.103   8.157   1.116
31114WAT     H293585   7.003   8.141   0.987
31115WAT      O93586   3.159   9.585   7.153
31115WAT     H193587   3.169   9.495   7.110
31115WAT     H293588   3.204   9.584   7.242
31116WAT      O93589   5.318   3.202   7.076
31116WAT     H193590   5.327   3.119   7.020
31116WAT     H293591   5.359   3.187   7.166
31117WAT      O93592   8.521   5.697   7.771
31117WAT     H193593   8.577   5.615   7.779
31117WAT     H293594   8.548   5.748   7.690
31118WAT      O93595   1.746   2.761   8.044
31118WAT     H193596   1.692   2.735   8.124
31118WAT     H293597   1.702   2.839   7.999
31119WAT      O93598   8.541   2.390   5.285
31119WAT     H193599   8.552   2.307   5.230
31119WAT     H293600   8.586   2.378   5.373
31120WAT      O93601   3.518   7.142   7.015
31120WAT     H193602   3.594   7.138   7.079
31120WAT     H293603   3.495   7.238   6.996
31121WAT      O93604   3.313   2.730   2.181
31121WAT     H193605   3.381   2.790   2.138
31121WAT     H293606   3.321   2.737   2.281
31122WAT      O93607   4.440   9.395   3.818
31122WAT     H193608   4.458   9.460   3.745
31122WAT     H293609   4.389   9.317   3.782
31123WAT      O93610   4.036   1.917   9.421
31123WAT     H193611   3.969   1.990   9.407
31123WAT     H293612   4.114   1.931   9.359
31124WAT      O93613   7.986   0.364   0.868
31124WAT     H193614   7.986   0.270   0.834
31124WAT     H293615   7.911   0.415   0.826
31125WAT      O93616   8.350   7.583   4.544
31125WAT     H193617   8.326   7.562   4.449
31125WAT     H293618   8.290   7.532   4.605
31126WAT      O93619   3.932   4.657   5.108
31126WAT     H193620   3.887   4.741   5.079
31126WAT     H293621   3.938   4.654   5.207
31127WAT      O93622   9.583   1.455   0.152
31127WAT     H193623   9.680   1.435   0.147
31127WAT     H293624   9.535   1.376   0.191
31128WAT      O93625   2.958   0.294   3.939
31128WAT     H193626   3.029   0.268   3.874
31128WAT     H293627   2.937   0.216   3.998
31129WAT      O93628   8.531   4.515   8.113
31129WAT     H193629   8.535   4.419   8.087
31129WAT     H293630   8.440   4.551   8.092
31130WAT      O93631   3.716   9.809   1.964
31130WAT     H193632   3.667   9.882   2.010
31130WAT     H293633   3.740   9.838   1.871
31131WAT      O93634   4.173   2.333   4.700
31131WAT     H193635   4.239   2.397   4.663
31131WAT     H293636   4.105   2.311   4.630
31132WAT      O93637   7.536   8.100   0.445
31132WAT     H193638   7.568   8.015   0.485
31132WAT     H293639   7.570   8.108   0.352
31133WAT      O93640   0.501   6.168   8.827
31133WAT     H193641   0.489   6.188   8.924
31133WAT     H293642   0.433   6.218   8.773
31134WAT      O93643   8.084   5.931   9.330
31134WAT     H193644   8.003   5.913   9.386
31134WAT     H293645   8.156   5.968   9.387
31135WAT      O93646   1.349   8.173   5.948
31135WAT     H193647   1.390   8.117   5.875
31135WAT     H293648   1.316   8.259   5.909
31136WAT      O93649   0.856   8.934   4.123
31136WAT     H193650   0.888   9.029   4.119
31136WAT     H293651   0.757   8.932   4.113
31137WAT      O93652   4.630   6.072   0.402
31137WAT     H193653   4.662   6.063   0.308
31137WAT     H293654   4.679   6.007   0.461
31138WAT      O93655   6.343   1.799   6.640
31138WAT     H193656   6.417   1.813   6.705
31138WAT     H293657   6.266   1.755   6.686
31139WAT      O93658   6.508   3.091   2.412
31139WAT     H193659   6.478   3.105   2.318
31139WAT     H293660   6.608   3.080   2.415
31140WAT      O93661   4.005   0.321   8.534
31140WAT     H193662   3.987   0.393   8.601
31140WAT     H293663   3.986   0.232   8.575
31141WAT      O93664   3.750   7.544   9.210
31141WAT     H193665   3.710   7.516   9.297
31141WAT     H293666   3.687   7.606   9.163
31142WAT      O93667   4.699   3.870   5.749
31142WAT     H193668   4.644   3.954   5.756
31142WAT     H293669   4.694   3.820   5.835
31143WAT      O93670   7.181   8.976   5.189
31143WAT     H193671   7.102   8.927   5.151
31143WAT     H293672   7.265   8.934   5.155
31144WAT      O93673   4.684   2.129   6.612
31144WAT     H193674   4.744   2.108   6.689
31144WAT     H293675   4.589   2.112   6.637
31145WAT      O93676   4.022   7.175   4.926
31145WAT     H193677   3.971   7.187   5.011
31145WAT     H293678   3.965   7.203   4.848
31146WAT      O93679   1.617   4.158   9.175
31146WAT     H193680   1.562   4.222   9.121
31146WAT     H293681   1.567   4.072   9.186
31147WAT      O93682   8.700   8.369   4.633
31147WAT     H193683   8.737   8.457   4.661
31147WAT     H293684   8.764   8.296   4.658
31148WAT      O93685   1.208   8.387   5.626
31148WAT     H193686   1.253   8.429   5.547
31148WAT     H293687   1.113   8.418   5.631
31149WAT      O93688   4.474   7.834   5.277
31149WAT     H193689   4.442   7.769   5.209
31149WAT     H293690   4.512   7.914   5.232
31150WAT      O93691   2.594   2.370   7.885
31150WAT     H193692   2.557   2.426   7.811
31150WAT     H293693   2.525   2.305   7.916
31151WAT      O93694   6.277   4.178   4.939
31151WAT     H193695   6.306   4.194   4.845
31151WAT     H293696   6.203   4.240   4.962
31152WAT      O93697   6.187   8.357   8.761
31152WAT     H193698   6.111   8.394   8.708
31152WAT     H293699   6.154   8.328   8.851
31153WAT      O93700   2.053   9.751   8.427
31153WAT     H193701   2.099   9.839   8.426
31153WAT     H293702   2.108   9.685   8.479
31154WAT      O93703   8.678   6.285   7.073
31154WAT     H193704   8.606   6.346   7.107
31154WAT     H293705   8.755   6.340   7.039
31155WAT      O93706   6.630   1.071   4.824
31155WAT     H193707   6.674   1.044   4.910
31155WAT     H293708   6.698   1.108   4.761
31156WAT      O93709   0.837   1.973   8.180
31156WAT     H193710   0.919   1.946   8.130
31156WAT     H293711   0.861   2.002   8.272
31157WAT      O93712   8.221   7.970   7.821
31157WAT     H193713   8.209   8.046   7.757
31157WAT     H293714   8.317   7.962   7.846
31158WAT      O93715   5.692   4.014   9.273
31158WAT     H193716   5.599   3.991   9.299
31158WAT     H293717   5.757   3.966   9.332
31159WAT      O93718   4.992   0.443   6.413
31159WAT     H193719   5.051   0.367   6.387
31159WAT     H293720   5.049   0.522   6.437
31160WAT      O93721   4.346   5.510   7.200
31160WAT     H193722   4.346   5.413   7.175
31160WAT     H293723   4.353   5.520   7.299
31161WAT      O93724   1.320   1.610   8.862
31161WAT     H193725   1.263   1.692   8.853
31161WAT     H293726   1.417   1.636   8.861
31162WAT      O93727   9.486   5.896   2.882
31162WAT     H193728   9.506   5.841   2.801
31162WAT     H293729   9.388   5.915   2.887
31163WAT      O93730   1.284   7.432   4.366
31163WAT     H193731   1.316   7.366   4.434
31163WAT     H293732   1.197   7.472   4.395
31164WAT      O93733   9.347   1.349   2.565
31164WAT     H193734   9.359   1.395   2.653
31164WAT     H293735   9.284   1.402   2.508
31165WAT      O93736   6.428   3.720   5.451
31165WAT     H193737   6.487   3.667   5.391
31165WAT     H293738   6.382   3.792   5.399
31166WAT      O93739   0.384   3.793   6.803
31166WAT     H193740   0.460   3.750   6.852
31166WAT     H293741   0.355   3.875   6.852
31167WAT      O93742   5.242   1.246   4.949
31167WAT     H193743   5.263   1.285   4.860
31167WAT     H293744   5.270   1.310   5.021
31168WAT      O93745   6.248   6.322   6.950
31168WAT     H193746   6.189   6.403   6.949
31168WAT     H293747   6.221   6.260   6.877
31169WAT      O93748   3.151   1.946   6.214
31169WAT     H193749   3.190   2.021   6.267
31169WAT     H293750   3.171   1.959   6.117
31170WAT      O93751   1.297   1.345   7.723
31170WAT     H193752   1.255   1.331   7.812
31170WAT     H293753   1.335   1.437   7.717
31171WAT      O93754   1.874   2.343   7.558
31171WAT     H193755   1.900   2.246   7.566
31171WAT     H293756   1.817   2.355   7.477
31172WAT      O93757   5.630   2.376   9.294
31172WAT     H193758   5.645   2.405   9.388
31172WAT     H293759   5.707   2.404   9.237
31173WAT      O93760   2.967   8.025   1.267
31173WAT     H193761   2.902   7.950   1.256
31173WAT     H293762   3.060   7.991   1.252
31174WAT      O93763   6.781   0.121   4.506
31174WAT     H193764   6.755   0.025   4.500
31174WAT     H293765   6.745   0.161   4.590
31175WAT      O93766   6.342   6.155   8.999
31175WAT     H193767   6.299   6.222   8.938
31175WAT     H293768   6.407   6.100   8.947
31176WAT      O93769   6.864   3.957   8.923
31176WAT     H193770   6.939   4.020   8.944
31176WAT     H293771   6.898   3.863   8.922
31177WAT      O93772   1.617   3.359   0.487
31177WAT     H193773   1.675   3.345   0.567
31177WAT     H293774   1.625   3.281   0.425
31178WAT      O93775   0.170   4.801   1.482
31178WAT     H193776   0.167   4.716   1.430
31178WAT     H293777   0.255   4.805   1.535
31179WAT      O93778   4.836   4.903   1.915
31179WAT     H193779   4.865   4.971   1.848
31179WAT     H293780   4.810   4.949   2.000
31180WAT      O93781   2.835   7.466   5.309
31180WAT     H193782   2.848   7.370   5.335
31180WAT     H293783   2.835   7.523   5.392
31181WAT      O93784   2.838   2.145   1.733
31181WAT     H193785   2.926   2.149   1.778
31181WAT     H293786   2.791   2.060   1.757
31182WAT      O93787   6.985   4.281   2.782
31182WAT     H193788   6.921   4.209   2.809
31182WAT     H293789   7.050   4.297   2.856
31183WAT      O93790   3.519   2.486   1.737
31183WAT     H193791   3.481   2.573   1.766
31183WAT     H293792   3.495   2.469   1.641
31184WAT      O93793   6.938   3.368   5.369
31184WAT     H193794   6.844   3.388   5.399
31184WAT     H293795   6.993   3.451   5.375
31185WAT      O93796   3.700   3.326   5.840
31185WAT     H193797   3.783   3.272   5.821
31185WAT     H293798   3.620   3.267   5.839
31186WAT      O93799   6.137   3.587   2.214
31186WAT     H193800   6.052   3.547   2.179
31186WAT     H293801   6.206   3.515   2.224
31187WAT      O93802   0.602   6.862   1.581
31187WAT     H193803   0.527   6.816   1.628
31187WAT     H293804   0.669   6.893   1.648
31188WAT      O93805   4.813   1.378   1.878
31188WAT     H193806   4.846   1.289   1.847
31188WAT     H293807   4.858   1.451   1.826
31189WAT      O93808   0.274   1.235   2.604
31189WAT     H193809   0.229   1.300   2.543
31189WAT     H293810   0.232   1.145   2.593
31190WAT      O93811   4.359   8.322   3.861
31190WAT     H193812   4.288   8.341   3.929
31190WAT     H293813   4.406   8.407   3.837
31191WAT      O93814   1.245   4.333   1.197
31191WAT     H193815   1.292   4.335   1.108
31191WAT     H293816   1.146   4.331   1.182
31192WAT      O93817   6.556   2.922   0.954
31192WAT     H193818   6.614   2.985   0.903
31192WAT     H293819   6.613   2.855   1.002
31193WAT      O93820   3.149   3.503   5.165
31193WAT     H193821   3.170   3.543   5.254
31193WAT     H293822   3.137   3.405   5.174
31194WAT      O93823   2.557   6.882   4.865
31194WAT     H193824   2.644   6.856   4.823
31194WAT     H293825   2.513   6.954   4.810
31195WAT      O93826   2.455   4.922   5.836
31195WAT     H193827   2.475   4.849   5.771
31195WAT     H293828   2.515   4.914   5.915
31196WAT      O93829   8.412   6.056   1.031
31196WAT     H193830   8.463   6.117   1.091
31196WAT     H293831   8.416   5.963   1.067
31197WAT      O93832   0.544   2.961   4.406
31197WAT     H193833   0.589   2.914   4.482
31197WAT     H293834   0.470   3.018   4.441
31198WAT      O93835   0.987   1.268   8.086
31198WAT     H193836   1.025   1.263   8.179
31198WAT     H293837   1.038   1.336   8.033
31199WAT      O93838   6.715   2.018   7.772
31199WAT     H193839   6.754   2.095   7.822
31199WAT     H293840   6.638   2.050   7.717
31200WAT      O93841   7.702   4.607   3.433
31200WAT     H193842   7.745   4.697   3.435
31200WAT     H293843   7.632   4.604   3.362
31201WAT      O93844   1.340   8.482   0.728
31201WAT     H193845   1.341   8.498   0.826
31201WAT     H293846   1.307   8.389   0.710
31202WAT      O93847   4.711   7.703   9.572
31202WAT     H193848   4.660   7.687   9.487
31202WAT     H293849   4.663   7.771   9.627
31203WAT      O93850   5.011   7.767   4.143
31203WAT     H193851   4.980   7.817   4.223
31203WAT     H293852   4.932   7.740   4.088
31204WAT      O93853   9.269   7.118   9.006
31204WAT     H193854   9.319   7.201   8.984
31204WAT     H293855   9.334   7.045   9.027
31205WAT      O93856   9.576   0.720   9.109
31205WAT     H193857   9.613   0.802   9.064
31205WAT     H293858   9.648   0.653   9.119
31206WAT      O93859   3.499   8.786   3.922
31206WAT     H193860   3.514   8.883   3.900
31206WAT     H293861   3.434   8.747   3.856
31207WAT      O93862   0.035   6.228   2.709
31207WAT     H193863  -0.045   6.182   2.672
31207WAT     H293864   0.101   6.245   2.636
31208WAT      O93865   6.291   9.222   9.299
31208WAT     H193866   6.360   9.290   9.273
31208WAT     H293867   6.293   9.209   9.398
31209WAT      O93868   8.534   0.276   4.756
31209WAT     H193869   8.592   0.326   4.691
31209WAT     H293870   8.581   0.194   4.787
31210WAT      O93871   4.134   8.032   3.615
31210WAT     H193872   4.137   8.000   3.520
31210WAT     H293873   4.190   8.115   3.623
31211WAT      O93874   4.281   6.388   3.829
31211WAT     H193875   4.196   6.342   3.803
31211WAT     H293876   4.260   6.471   3.880
31212WAT      O93877   4.470   1.449   0.190
31212WAT     H193878   4.495   1.369   0.245
31212WAT     H293879   4.461   1.422   0.094
31213WAT      O93880   9.786   5.675   9.252
31213WAT     H193881   9.861   5.613   9.274
31213WAT     H293882   9.708   5.623   9.219
31214WAT      O93883   1.932   6.973   2.831
31214WAT     H193884   1.983   7.037   2.887
31214WAT     H293885   1.923   7.009   2.738
31215WAT      O93886   0.147   1.283   3.103
31215WAT     H193887   0.052   1.289   3.071
31215WAT     H293888   0.207   1.334   3.042
31216WAT      O93889   1.112   0.091   4.469
31216WAT     H193890   1.147   0.118   4.379
31216WAT     H293891   1.187   0.087   4.535
31217WAT      O93892   2.611   1.192   9.121
31217WAT     H193893   2.539   1.180   9.190
31217WAT     H293894   2.616   1.288   9.095
31218WAT      O93895   0.293   9.095   3.764
31218WAT     H193896   0.324   9.153   3.689
31218WAT     H293897   0.325   9.001   3.750
31219WAT      O93898   6.972   6.555   6.815
31219WAT     H193899   7.056   6.540   6.868
31219WAT     H293900   6.937   6.468   6.783
31220WAT      O93901   3.355   0.836   2.271
31220WAT     H193902   3.276   0.894   2.253
31220WAT     H293903   3.377   0.783   2.190
31221WAT      O93904   9.151   5.036   7.737
31221WAT     H193905   9.197   5.067   7.820
31221WAT     H293906   9.205   4.962   7.695
31222WAT      O93907   2.157   4.944   1.031
31222WAT     H193908   2.128   4.970   1.124
31222WAT     H293909   2.078   4.946   0.970
31223WAT      O93910   7.385   0.705   7.570
31223WAT     H193911   7.409   0.768   7.643
31223WAT     H293912   7.356   0.617   7.609
31224WAT      O93913   1.787   0.714   9.408
31224WAT     H193914   1.727   0.635   9.422
31224WAT     H293915   1.732   0.795   9.389
31225WAT      O93916   8.100   8.012   1.862
31225WAT     H193917   8.186   8.019   1.811
31225WAT     H293918   8.119   8.007   1.960
31226WAT      O93919   7.277   8.732   6.322
31226WAT     H193920   7.375   8.719   6.307
31226WAT     H293921   7.227   8.686   6.249
31227WAT      O93922   7.927   1.755   3.165
31227WAT     H193923   7.950   1.852   3.161
31227WAT     H293924   7.831   1.744   3.193
31228WAT      O93925   0.357   1.117   3.222
31228WAT     H193926   0.291   1.160   3.161
31228WAT     H293927   0.330   1.023   3.241
31229WAT      O93928   1.294   4.559   6.710
31229WAT     H193929   1.241   4.639   6.681
31229WAT     H293930   1.354   4.584   6.785
31230WAT      O93931   9.054   0.191   8.997
31230WAT     H193932   8.960   0.211   8.967
31230WAT     H293933   9.096   0.276   9.030
31231WAT      O93934   8.097   9.372   0.036
31231WAT     H193935   8.007   9.377   0.078
31231WAT     H293936   8.099   9.431  -0.045
31232WAT      O93937   6.498   7.316   2.176
31232WAT     H193938   6.509   7.374   2.257
31232WAT     H293939   6.520   7.367   2.094
31233WAT      O93940   5.877   5.072   7.155
31233WAT     H193941   5.960   5.123   7.134
31233WAT     H293942   5.899   4.975   7.165
31234WAT      O93943   6.179   4.322   8.381
31234WAT     H193944   6.098   4.266   8.400
31234WAT     H293945   6.229   4.282   8.304
31235WAT      O93946   7.320   2.465   4.902
31235WAT     H193947   7.396   2.439   4.963
31235WAT     H293948   7.247   2.397   4.909
31236WAT      O93949   2.563   2.794   1.097
31236WAT     H193950   2.538   2.717   1.155
31236WAT     H293951   2.546   2.770   1.001
31237WAT      O93952   4.677   3.872   0.144
31237WAT     H193953   4.692   3.931   0.065
31237WAT     H293954   4.653   3.780   0.113
31238WAT      O93955   2.196   5.140   1.604
31238WAT     H193956   2.122   5.196   1.566
31238WAT     H293957   2.277   5.147   1.546
31239WAT      O93958   9.261   7.005   0.384
31239WAT     H193959   9.324   7.030   0.457
31239WAT     H293960   9.307   7.014   0.295
31240WAT      O93961   4.620   2.924   5.334
31240WAT     H193962   4.528   2.908   5.370
31240WAT     H293963   4.639   3.023   5.336
31241WAT      O93964   6.026   3.630   7.313
31241WAT     H193965   6.064   3.707   7.262
31241WAT     H293966   5.963   3.663   7.383
31242WAT      O93967   0.812   2.611   1.458
31242WAT     H193968   0.815   2.512   1.454
31242WAT     H293969   0.881   2.645   1.522
31243WAT      O93970   4.729   6.656   4.860
31243WAT     H193971   4.685   6.580   4.906
31243WAT     H293972   4.674   6.739   4.870
31244WAT      O93973   0.349   4.492   1.602
31244WAT     H193974   0.299   4.407   1.615
31244WAT     H293975   0.380   4.526   1.691
31245WAT      O93976   7.343   8.998   2.920
31245WAT     H193977   7.258   9.052   2.925
31245WAT     H293978   7.324   8.909   2.879
31246WAT      O93979   3.794   3.351   2.159
31246WAT     H193980   3.879   3.359   2.108
31246WAT     H293981   3.780   3.433   2.215
31247WAT      O93982   4.203   3.442   3.873
31247WAT     H193983   4.293   3.420   3.910
31247WAT     H293984   4.157   3.359   3.843
31248WAT      O93985   8.433   3.499   7.545
31248WAT     H193986   8.501   3.470   7.613
31248WAT     H293987   8.468   3.479   7.453
31249WAT      O93988   4.580   1.232   2.926
31249WAT     H193989   4.588   1.328   2.955
31249WAT     H293990   4.484   1.211   2.909
31250WAT      O93991   2.960   1.362   6.094
31250WAT     H193992   2.933   1.363   6.190
31250WAT     H293993   2.894   1.308   6.041
31251WAT      O93994   7.301   4.839   7.232
31251WAT     H193995   7.281   4.924   7.282
31251WAT     H293996   7.393   4.808   7.254
31252WAT      O93997   0.490   4.218   1.923
31252WAT     H193998   0.530   4.156   1.990
31252WAT     H293999   0.548   4.222   1.842
31253WAT      O94000   2.162   1.625   4.924
31253WAT     H194001   2.147   1.527   4.910
31253WAT     H294002   2.252   1.651   4.889
31254WAT      O94003   3.524   7.326   1.246
31254WAT     H194004   3.592   7.267   1.201
31254WAT     H294005   3.449   7.344   1.182
31255WAT      O94006   5.776   4.324   0.777
31255WAT     H194007   5.764   4.382   0.696
31255WAT     H294008   5.807   4.379   0.853
31256WAT      O94009   2.369   5.896   2.994
31256WAT     H194010   2.459   5.889   3.037
31256WAT     H294011   2.349   5.810   2.946
31257WAT      O94012   1.156   8.372   2.125
31257WAT     H194013   1.082   8.347   2.188
31257WAT     H294014   1.130   8.453   2.073
31258WAT      O94015   3.046   1.883   3.118
31258WAT     H194016   2.976   1.813   3.101
31258WAT     H294017   3.128   1.839   3.155
31259WAT      O94018   7.549   1.635   9.193
31259WAT     H194019   7.541   1.725   9.236
31259WAT     H294020   7.480   1.573   9.230
31260WAT      O94021   0.653   4.627   5.026
31260WAT     H194022   0.699   4.649   4.940
31260WAT     H294023   0.568   4.679   5.032
31261WAT      O94024   7.149   2.421   7.550
31261WAT     H194025   7.084   2.361   7.502
31261WAT     H294026   7.185   2.373   7.630
31262WAT      O94027   6.651   5.395   8.434
31262WAT     H194028   6.601   5.438   8.359
31262WAT     H294029   6.731   5.451   8.457
31263WAT      O94030   0.701   6.993   2.182
31263WAT     H194031   0.772   7.057   2.154
31263WAT     H294032   0.631   7.042   2.234
31264WAT      O94033   1.481   5.505   7.886
31264WAT     H194034   1.518   5.549   7.805
31264WAT     H294035   1.556   5.470   7.942
31265WAT      O94036   7.908   7.241   3.831
31265WAT     H194037   7.982   7.266   3.770
31265WAT     H294038   7.863   7.158   3.798
31266WAT      O94039   3.756   4.290   9.546
31266WAT     H194040   3.849   4.269   9.518
31266WAT     H294041   3.734   4.241   9.631
31267WAT      O94042   4.181   4.390   5.263
31267WAT     H194043   4.239   4.469   5.243
31267WAT     H294044   4.197   4.360   5.357
31268WAT      O94045   8.041   3.935   8.487
31268WAT     H194046   8.027   3.920   8.585
31268WAT     H294047   8.054   4.033   8.470
31269WAT      O94048   1.479   4.988   4.975
31269WAT     H194049   1.408   5.000   5.045
31269WAT     H294050   1.462   4.902   4.925
31270WAT      O94051   6.073   8.478   3.782
31270WAT     H194052   6.072   8.486   3.881
31270WAT     H294053   6.163   8.446   3.752
31271WAT      O94054   0.460   6.751   1.794
31271WAT     H194055   0.361   6.762   1.798
31271WAT     H294056   0.497   6.754   1.887
31272WAT      O94057   8.244   6.679   8.853
31272WAT     H194058   8.158   6.631   8.873
31272WAT     H294059   8.313   6.653   8.920
31273WAT      O94060   1.276   9.613   6.903
31273WAT     H194061   1.338   9.690   6.888
31273WAT     H294062   1.329   9.529   6.914
31274WAT      O94063   5.406   3.975   5.679
31274WAT     H194064   5.425   4.048   5.744
31274WAT     H294065   5.390   4.015   5.588
31275WAT      O94066   9.077   6.677   0.105
31275WAT     H194067   9.131   6.679   0.189
31275WAT     H294068   8.979   6.681   0.127
31276WAT      O94069   9.826   2.261   3.388
31276WAT     H194070   9.752   2.307   3.340
31276WAT     H294071   9.795   2.234   3.479
31277WAT      O94072   9.069   1.133   6.220
31277WAT     H194073   8.986   1.179   6.251
31277WAT     H294074   9.114   1.188   6.150
31278WAT      O94075   0.284   4.352   3.945
31278WAT     H194076   0.264   4.393   4.034
31278WAT     H294077   0.315   4.258   3.958
31279WAT      O94078   7.169   5.303   7.606
31279WAT     H194079   7.226   5.295   7.687
31279WAT     H294080   7.136   5.212   7.580
31280WAT      O94081   3.663   7.775   9.676
31280WAT     H194082   3.722   7.801   9.599
31280WAT     H294083   3.580   7.830   9.675
31281WAT      O94084   8.879   1.282   9.759
31281WAT     H194085   8.939   1.312   9.685
31281WAT     H294086   8.856   1.361   9.817
31282WAT      O94087   8.243   5.984   2.773
31282WAT     H194088   8.295   6.069   2.781
31282WAT     H294089   8.212   5.972   2.679
31283WAT      O94090   7.323   1.550   3.070
31283WAT     H194091   7.299   1.647   3.080
31283WAT     H294092   7.284   1.497   3.145
31284WAT      O94093   1.729   6.343   9.493
31284WAT     H194094   1.779   6.276   9.547
31284WAT     H294095   1.633   6.345   9.521
31285WAT      O94096   1.971   3.686   1.191
31285WAT     H194097   2.058   3.673   1.145
31285WAT     H294098   1.899   3.637   1.142
31286WAT      O94099   8.157   1.832   0.021
31286WAT     H194100   8.175   1.748  -0.031
31286WAT     H294101   8.128   1.808   0.113
31287WAT      O94102   1.391   7.018   5.739
31287WAT     H194103   1.344   6.997   5.654
31287WAT     H294104   1.406   7.116   5.746
31288WAT      O94105   6.639   5.466   7.202
31288WAT     H194106   6.639   5.561   7.233
31288WAT     H294107   6.663   5.406   7.278
31289WAT      O94108   5.674   8.798   3.983
31289WAT     H194109   5.605   8.771   4.051
31289WAT     H294110   5.669   8.897   3.970
31290WAT      O94111   5.278   8.600   4.570
31290WAT     H194112   5.337   8.667   4.525
31290WAT     H294113   5.267   8.520   4.510
31291WAT      O94114   7.847   8.363   7.390
31291WAT     H194115   7.929   8.319   7.428
31291WAT     H294116   7.765   8.318   7.426
31292WAT      O94117   4.051   5.334   5.229
31292WAT     H194118   4.128   5.270   5.226
31292WAT     H294119   3.966   5.282   5.238
31293WAT      O94120   7.792   2.603   4.940
31293WAT     H194121   7.806   2.701   4.959
31293WAT     H294122   7.698   2.589   4.910
31294WAT      O94123   8.998   4.116   6.111
31294WAT     H194124   8.964   4.210   6.111
31294WAT     H294125   8.943   4.060   6.048
31295WAT      O94126   9.674   2.391   1.267
31295WAT     H194127   9.639   2.480   1.238
31295WAT     H294128   9.771   2.384   1.244
31296WAT      O94129   3.318   4.014   3.894
31296WAT     H194130   3.290   3.986   3.986
31296WAT     H294131   3.380   3.946   3.856
31297WAT      O94132   3.877   7.219   9.121
31297WAT     H194133   3.921   7.307   9.135
31297WAT     H294134   3.936   7.160   9.065
31298WAT      O94135   1.563   1.813   7.539
31298WAT     H194136   1.634   1.781   7.602
31298WAT     H294137   1.563   1.756   7.457
31299WAT      O94138   9.179   7.249   1.035
31299WAT     H194139   9.204   7.346   1.041
31299WAT     H294140   9.111   7.228   1.105
31300WAT      O94141   5.882   6.280   3.996
31300WAT     H194142   5.959   6.313   3.942
31300WAT     H294143   5.911   6.199   4.049
31301WAT      O94144   1.096   7.027   7.263
31301WAT     H194145   1.083   7.126   7.271
31301WAT     H294146   1.009   6.980   7.279
31302WAT      O94147   8.098   7.594   8.669
31302WAT     H194148   8.090   7.556   8.576
31302WAT     H294149   8.184   7.563   8.710
31303WAT      O94150   2.073   7.243   9.308
31303WAT     H194151   2.097   7.187   9.229
31303WAT     H294152   2.150   7.246   9.372
31304WAT      O94153   7.441   7.859   4.685
31304WAT     H194154   7.424   7.956   4.667
31304WAT     H294155   7.505   7.851   4.762
31305WAT      O94156   9.332   2.048   8.500
31305WAT     H194157   9.332   1.969   8.438
31305WAT     H294158   9.240   2.060   8.538
31306WAT      O94159   8.438   4.363   6.954
31306WAT     H194160   8.488   4.415   6.885
31306WAT     H294161   8.501   4.304   7.004
31307WAT      O94162   4.184   8.727   0.963
31307WAT     H194163   4.153   8.787   1.037
31307WAT     H294164   4.205   8.782   0.882
31308WAT      O94165   2.244   9.495   7.764
31308WAT     H194166   2.248   9.403   7.726
31308WAT     H294167   2.156   9.537   7.740
31309WAT      O94168   1.582   2.685   8.239
31309WAT     H194169   1.486   2.711   8.253
31309WAT     H294170   1.592   2.586   8.254
31310WAT      O94171   9.383   2.569   4.604
31310WAT     H194172   9.377   2.578   4.505
31310WAT     H294173   9.304   2.518   4.638
31311WAT      O94174   7.428   9.249   2.820
31311WAT     H194175   7.428   9.157   2.860
31311WAT     H294176   7.521   9.274   2.795
31312WAT      O94177   0.876   7.523   3.660
31312WAT     H194178   0.917   7.609   3.688
31312WAT     H294179   0.914   7.448   3.715
31313WAT      O94180   5.517   8.017   3.435
31313WAT     H194181   5.585   7.943   3.439
31313WAT     H294182   5.545   8.084   3.367
31314WAT      O94183   8.465   9.279   5.292
31314WAT     H194184   8.435   9.198   5.242
31314WAT     H294185   8.544   9.319   5.247
31315WAT      O94186   7.476   2.682   5.003
31315WAT     H194187   7.448   2.602   4.950
31315WAT     H294188   7.476   2.763   4.945
31316WAT      O94189   1.581   3.662   5.429
31316WAT     H194190   1.584   3.688   5.525
31316WAT     H294191   1.520   3.723   5.379
31317WAT      O94192   5.068   7.289   7.378
31317WAT     H194193   5.071   7.190   7.390
31317WAT     H294194   4.977   7.316   7.347
31318WAT      O94195   0.775   4.913   9.028
31318WAT     H194196   0.686   4.942   8.992
31318WAT     H294197   0.839   4.990   9.024
31319WAT      O94198   7.996   8.714   6.579
31319WAT     H194199   7.897   8.708   6.597
31319WAT     H294200   8.036   8.787   6.635
31320WAT      O94201   3.567   1.557   2.086
31320WAT     H194202   3.537   1.462   2.093
31320WAT     H294203   3.497   1.617   2.125
31321WAT      O94204   3.245   4.411   2.927
31321WAT     H194205   3.180   4.400   2.851
31321WAT     H294206   3.229   4.340   2.995
31322WAT      O94207   5.563   5.203   2.694
31322WAT     H194208   5.516   5.259   2.626
31322WAT     H294209   5.501   5.181   2.769
31323WAT      O94210   7.342   1.438   7.392
31323WAT     H194211   7.343   1.432   7.491
31323WAT     H294212   7.397   1.516   7.362
31324WAT      O94213   4.091   2.802   6.044
31324WAT     H194214   4.103   2.899   6.063
31324WAT     H294215   4.002   2.773   6.079
31325WAT      O94216   9.723   1.147   9.162
31325WAT     H194217   9.720   1.082   9.237
31325WAT     H294218   9.813   1.190   9.159
31326WAT      O94219   7.617   4.303   6.239
31326WAT     H194220   7.670   4.387   6.248
31326WAT     H294221   7.529   4.313   6.285
31327WAT      O94222   5.994   0.477   0.595
31327WAT     H194223   6.032   0.385   0.592
31327WAT     H294224   5.895   0.473   0.609
31328WAT      O94225   9.789   1.489   3.583
31328WAT     H194226   9.838   1.466   3.499
31328WAT     H294227   9.713   1.551   3.561
31329WAT      O94228   2.174   6.842   8.238
31329WAT     H194229   2.190   6.927   8.288
31329WAT     H294230   2.258   6.814   8.192
31330WAT      O94231   4.485   8.778   9.723
31330WAT     H194232   4.580   8.808   9.733
31330WAT     H294233   4.482   8.700   9.661
31331WAT      O94234   4.274   6.986   0.116
31331WAT     H194235   4.332   6.939   0.049
31331WAT     H294236   4.228   6.919   0.173
31332WAT      O94237   2.232   4.537   5.295
31332WAT     H194238   2.145   4.560   5.252
31332WAT     H294239   2.285   4.479   5.233
31333WAT      O94240   8.719   4.083   8.801
31333WAT     H194241   8.661   4.144   8.747
31333WAT     H294242   8.791   4.138   8.846
31334WAT      O94243   3.738   0.692   6.936
31334WAT     H194244   3.695   0.603   6.949
31334WAT     H294245   3.838   0.681   6.931
31335WAT      O94246   4.415   6.037   1.998
31335WAT     H194247   4.418   6.113   2.062
31335WAT     H294248   4.326   5.991   2.005
31336WAT      O94249   2.723   8.947   8.326
31336WAT     H194250   2.727   8.993   8.237
31336WAT     H294251   2.641   8.977   8.374
31337WAT      O94252   1.678   3.492   7.263
31337WAT     H194253   1.633   3.547   7.193
31337WAT     H294254   1.680   3.397   7.234
31338WAT      O94255   2.055   7.347   8.333
31338WAT     H194256   2.048   7.325   8.430
31338WAT     H294257   1.966   7.378   8.299
31339WAT      O94258   0.285   2.609   0.715
31339WAT     H194259   0.361   2.578   0.657
31339WAT     H294260   0.268   2.540   0.785
31340WAT      O94261   7.981   9.282   2.227
31340WAT     H194262   8.058   9.251   2.282
31340WAT     H294263   7.905   9.217   2.238
31341WAT      O94264   0.748   8.471   3.944
31341WAT     H194265   0.664   8.458   3.997
31341WAT     H294266   0.734   8.439   3.851
31342WAT      O94267   2.378   0.950   2.322
31342WAT     H194268   2.352   0.926   2.228
31342WAT     H294269   2.476   0.969   2.325
31343WAT      O94270   6.064   5.573   1.234
31343WAT     H194271   6.158   5.605   1.245
31343WAT     H294272   6.043   5.564   1.136
31344WAT      O94273   0.245   8.650   1.624
31344WAT     H194274   0.146   8.647   1.611
31344WAT     H294275   0.269   8.605   1.710
31345WAT      O94276   8.833   7.404   5.860
31345WAT     H194277   8.899   7.328   5.861
31345WAT     H294278   8.803   7.422   5.953
31346WAT      O94279   1.315   5.622   2.598
31346WAT     H194280   1.362   5.546   2.641
31346WAT     H294281   1.248   5.586   2.532
31347WAT      O94282   0.647   4.833   2.824
31347WAT     H194283   0.668   4.925   2.793
31347WAT     H294284   0.648   4.770   2.745
31348WAT      O94285   1.475   6.332   1.508
31348WAT     H194286   1.389   6.321   1.458
31348WAT     H294287   1.460   6.386   1.591
31349WAT      O94288   7.505   1.365   3.669
31349WAT     H194289   7.520   1.267   3.681
31349WAT     H294290   7.590   1.414   3.684
31350WAT      O94291   3.144   9.331   6.329
31350WAT     H194292   3.163   9.428   6.345
31350WAT     H294293   3.175   9.306   6.237
31351WAT      O94294   0.290   5.991   4.496
31351WAT     H194295   0.207   6.047   4.490
31351WAT     H294296   0.272   5.911   4.554
31352WAT      O94297   9.511   8.781   6.621
31352WAT     H194298   9.446   8.758   6.548
31352WAT     H294299   9.604   8.783   6.584
31353WAT      O94300   6.451   6.505   3.278
31353WAT     H194301   6.518   6.577   3.296
31353WAT     H294302   6.443   6.446   3.358
31354WAT      O94303   6.158   1.898   0.674
31354WAT     H194304   6.157   1.846   0.760
31354WAT     H294305   6.068   1.896   0.632
31355WAT      O94306   1.438   1.664   9.243
31355WAT     H194307   1.442   1.657   9.342
31355WAT     H294308   1.387   1.747   9.218
31356WAT      O94309   1.093   3.987   7.247
31356WAT     H194310   1.087   3.906   7.188
31356WAT     H294311   1.019   4.050   7.224
31357WAT      O94312   0.729   2.664   7.766
31357WAT     H194313   0.774   2.620   7.688
31357WAT     H294314   0.794   2.722   7.814
31358WAT      O94315   2.088   0.893   3.167
31358WAT     H194316   2.154   0.847   3.106
31358WAT     H294317   2.119   0.883   3.262
31359WAT      O94318   3.258   9.245   2.406
31359WAT     H194319   3.212   9.333   2.390
31359WAT     H294320   3.193   9.171   2.394
31360WAT      O94321   1.792   6.812   5.080
31360WAT     H194322   1.702   6.769   5.081
31360WAT     H294323   1.799   6.876   5.156
31361WAT      O94324   1.132   1.278   0.307
31361WAT     H194325   1.085   1.331   0.236
31361WAT     H294326   1.120   1.322   0.396
31362WAT      O94327   3.244   8.531   6.607
31362WAT     H194328   3.185   8.596   6.558
31362WAT     H294329   3.269   8.456   6.546
31363WAT      O94330   6.705   3.022   9.781
31363WAT     H194331   6.751   3.060   9.701
31363WAT     H294332   6.771   2.973   9.838
31364WAT      O94333   9.564   0.448   6.949
31364WAT     H194334   9.503   0.525   6.928
31364WAT     H294335   9.509   0.368   6.975
31365WAT      O94336   6.934   4.956   9.184
31365WAT     H194337   6.932   4.970   9.283
31365WAT     H294338   6.896   5.036   9.138
31366WAT      O94339   8.776   0.416   0.856
31366WAT     H194340   8.704   0.346   0.860
31366WAT     H294341   8.862   0.377   0.889
31367WAT      O94342   5.904   6.761   3.413
31367WAT     H194343   5.860   6.712   3.338
31367WAT     H294344   5.990   6.715   3.437
31368WAT      O94345   5.350   0.916   9.864
31368WAT     H194346   5.443   0.885   9.883
31368WAT     H294347   5.353   0.988   9.795
31369WAT      O94348   4.962   6.498   7.371
31369WAT     H194349   4.978   6.498   7.272
31369WAT     H294350   5.049   6.489   7.419
31370WAT      O94351   5.517   0.930   9.492
31370WAT     H194352   5.598   0.965   9.445
31370WAT     H294353   5.445   0.913   9.424
31371WAT      O94354   5.231   0.649   8.651
31371WAT     H194355   5.218   0.591   8.731
31371WAT     H294356   5.269   0.594   8.576
31372WAT      O94357   0.347   9.396   7.123
31372WAT     H194358   0.321   9.444   7.207
31372WAT     H294359   0.281   9.324   7.104
31373WAT      O94360   4.126   5.656   6.494
31373WAT     H194361   4.161   5.646   6.401
31373WAT     H294362   4.065   5.735   6.499
31374WAT      O94363   1.660   0.896   7.665
31374WAT     H194364   1.730   0.863   7.728
31374WAT     H294365   1.693   0.977   7.618
31375WAT      O94366   5.583   2.851   9.107
31375WAT     H194367   5.630   2.763   9.104
31375WAT     H294368   5.487   2.839   9.080
31376WAT      O94369   1.228   2.663   7.375
31376WAT     H194370   1.275   2.749   7.393
31376WAT     H294371   1.255   2.595   7.443
31377WAT      O94372   7.236   4.180   5.908
31377WAT     H194373   7.286   4.148   5.827
31377WAT     H294374   7.298   4.230   5.968
31378WAT      O94375   8.804   5.022   0.673
31378WAT     H194376   8.816   5.120   0.692
31378WAT     H294377   8.893   4.980   0.658
31379WAT      O94378   9.761   4.446   9.098
31379WAT     H194379   9.822   4.493   9.162
31379WAT     H294380   9.690   4.397   9.149
31380WAT      O94381   8.419   5.743   0.254
31380WAT     H194382   8.343   5.754   0.191
31380WAT     H294383   8.504   5.732   0.202
31381WAT      O94384   4.456   2.006   9.881
31381WAT     H194385   4.399   2.034   9.804
31381WAT     H294386   4.492   2.087   9.927
31382WAT      O94387   0.751   3.372   4.026
31382WAT     H194388   0.702   3.350   4.110
31382WAT     H294389   0.692   3.424   3.965
31383WAT      O94390   1.491   7.035   7.311
31383WAT     H194391   1.478   6.972   7.234
31383WAT     H294392   1.472   7.129   7.281
31384WAT      O94393   2.554   3.227   7.086
31384WAT     H194394   2.567   3.323   7.111
31384WAT     H294395   2.643   3.183   7.074
31385WAT      O94396   3.691   2.086   3.599
31385WAT     H194397   3.692   2.003   3.655
31385WAT     H294398   3.603   2.132   3.608
31386WAT      O94399   3.271   8.731   9.896
31386WAT     H194400   3.365   8.756   9.920
31386WAT     H294401   3.270   8.698   9.801
31387WAT      O94402   9.084   9.017   5.064
31387WAT     H194403   9.174   9.029   5.022
31387WAT     H294404   9.027   8.961   5.004
31388WAT      O94405   0.571   7.435   4.805
31388WAT     H194406   0.628   7.447   4.887
31388WAT     H294407   0.619   7.377   4.740
31389WAT      O94408   6.691   3.444   5.472
31389WAT     H194409   6.625   3.461   5.399
31389WAT     H294410   6.645   3.393   5.546
31390WAT      O94411   9.338   1.980   2.127
31390WAT     H194412   9.256   2.022   2.086
31390WAT     H294413   9.310   1.906   2.188
31391WAT      O94414   2.722   0.747   4.901
31391WAT     H194415   2.821   0.759   4.898
31391WAT     H294416   2.698   0.682   4.973
31392WAT      O94417   9.424   1.717   1.118
31392WAT     H194418   9.491   1.792   1.119
31392WAT     H294419   9.335   1.752   1.148
31393WAT      O94420   4.198   6.068   0.468
31393WAT     H194421   4.276   6.127   0.490
31393WAT     H294422   4.230   5.974   0.457
31394WAT      O94423   7.510   1.922   5.587
31394WAT     H194424   7.501   1.970   5.500
31394WAT     H294425   7.422   1.884   5.615
31395WAT      O94426   1.458   9.480   8.271
31395WAT     H194427   1.367   9.481   8.312
31395WAT     H294428   1.502   9.568   8.286
31396WAT      O94429   4.660   3.609   4.174
31396WAT     H194430   4.611   3.537   4.223
31396WAT     H294431   4.644   3.697   4.219
31397WAT      O94432   5.716   8.355   8.942
31397WAT     H194433   5.639   8.420   8.941
31397WAT     H294434   5.800   8.404   8.966
31398WAT      O94435   5.358   7.052   0.568
31398WAT     H194436   5.345   6.963   0.524
31398WAT     H294437   5.454   7.063   0.593
31399WAT      O94438   0.875   8.819   3.538
31399WAT     H194439   0.923   8.797   3.623
31399WAT     H294440   0.810   8.746   3.516
31400WAT      O94441   3.379   0.385   4.612
31400WAT     H194442   3.452   0.359   4.675
31400WAT     H294443   3.385   0.482   4.592
31401WAT      O94444   5.496   0.900   4.053
31401WAT     H194445   5.463   0.888   3.960
31401WAT     H294446   5.425   0.944   4.108
31402WAT      O94447   3.712   0.057   4.829
31402WAT     H194448   3.682   0.007   4.910
31402WAT     H294449   3.801   0.099   4.847
31403WAT      O94450   1.162   1.838   8.840
31403WAT     H194451   1.114   1.914   8.885
31403WAT     H294452   1.170   1.858   8.742
31404WAT      O94453   3.534   4.323   3.323
31404WAT     H194454   3.459   4.329   3.390
31404WAT     H294455   3.508   4.373   3.240
31405WAT      O94456   1.345   1.465   6.201
31405WAT     H194457   1.321   1.367   6.200
31405WAT     H294458   1.395   1.485   6.285
31406WAT      O94459   5.631   1.708   5.254
31406WAT     H194460   5.583   1.795   5.250
31406WAT     H294461   5.657   1.680   5.161
31407WAT      O94462   2.487   8.725   0.655
31407WAT     H194463   2.559   8.790   0.680
31407WAT     H294464   2.456   8.744   0.561
31408WAT      O94465   4.489   3.105   7.973
31408WAT     H194466   4.528   3.015   7.950
31408WAT     H294467   4.558   3.160   8.019
31409WAT      O94468   8.780   6.520   7.370
31409WAT     H194469   8.725   6.515   7.454
31409WAT     H294470   8.812   6.429   7.346
31410WAT      O94471   1.443   8.097   9.573
31410WAT     H194472   1.363   8.141   9.614
31410WAT     H294473   1.496   8.052   9.644
31411WAT      O94474   3.868   3.258   6.921
31411WAT     H194475   3.959   3.297   6.928
31411WAT     H294476   3.830   3.243   7.013
31412WAT      O94477   3.719   2.434   4.566
31412WAT     H194478   3.734   2.532   4.551
31412WAT     H294479   3.680   2.394   4.483
31413WAT      O94480   7.781   6.602   9.778
31413WAT     H194481   7.797   6.552   9.693
31413WAT     H294482   7.785   6.701   9.759
31414WAT      O94483   5.660   2.877   0.523
31414WAT     H194484   5.562   2.880   0.541
31414WAT     H294485   5.677   2.887   0.425
31415WAT      O94486   1.027   7.967   5.563
31415WAT     H194487   1.095   7.919   5.509
31415WAT     H294488   0.935   7.935   5.540
31416WAT      O94489   0.242   9.105   2.398
31416WAT     H194490   0.197   9.047   2.466
31416WAT     H294491   0.200   9.091   2.308
31417WAT      O94492   7.922   3.756   6.049
31417WAT     H194493   7.874   3.778   6.134
31417WAT     H294494   7.990   3.827   6.030
31418WAT      O94495   6.557   2.216   0.804
31418WAT     H194496   6.500   2.149   0.756
31418WAT     H294497   6.499   2.276   0.858
31419WAT      O94498   1.619   3.899   6.155
31419WAT     H194499   1.618   3.966   6.081
31419WAT     H294500   1.714   3.874   6.176
31420WAT      O94501   2.855   5.869   5.933
31420WAT     H194502   2.823   5.774   5.937
31420WAT     H294503   2.952   5.872   5.959
31421WAT      O94504   4.857   6.900   8.382
31421WAT     H194505   4.908   6.816   8.363
31421WAT     H294506   4.781   6.908   8.317
31422WAT      O94507   3.403   4.954   0.131
31422WAT     H194508   3.314   4.962   0.174
31422WAT     H294509   3.469   5.011   0.180
31423WAT      O94510   4.351   3.579   9.684
31423WAT     H194511   4.434   3.525   9.673
31423WAT     H294512   4.373   3.676   9.675
31424WAT      O94513   7.508   4.501   0.618
31424WAT     H194514   7.459   4.453   0.690
31424WAT     H294515   7.489   4.456   0.530
31425WAT      O94516   4.178   5.316   1.048
31425WAT     H194517   4.184   5.266   1.135
31425WAT     H294518   4.099   5.378   1.051
31426WAT      O94519   4.397   1.285   9.379
31426WAT     H194520   4.365   1.252   9.290
31426WAT     H294521   4.357   1.375   9.397
31427WAT      O94522   2.423   5.133   1.428
31427WAT     H194523   2.401   5.042   1.395
31427WAT     H294524   2.512   5.131   1.476
31428WAT      O94525   9.121   0.613   8.081
31428WAT     H194526   9.182   0.662   8.144
31428WAT     H294527   9.175   0.570   8.009
31429WAT      O94528   0.929   2.555   8.546
31429WAT     H194529   0.961   2.523   8.457
31429WAT     H294530   0.963   2.648   8.562
31430WAT      O94531   6.754   4.324   4.015
31430WAT     H194532   6.671   4.369   3.982
31430WAT     H294533   6.757   4.230   3.980
31431WAT      O94534   1.805   9.038   4.445
31431WAT     H194535   1.742   8.967   4.479
31431WAT     H294536   1.755   9.100   4.384
31432WAT      O94537   5.367   1.347   4.309
31432WAT     H194538   5.342   1.323   4.215
31432WAT     H294539   5.288   1.338   4.368
31433WAT      O94540   3.355   8.409   3.337
31433WAT     H194541   3.429   8.461   3.381
31433WAT     H294542   3.345   8.321   3.383
31434WAT      O94543   6.900   3.429   8.175
31434WAT     H194544   6.864   3.521   8.162
31434WAT     H294545   6.827   3.369   8.208
31435WAT      O94546   5.123   7.051   7.556
31435WAT     H194547   5.167   7.100   7.632
31435WAT     H294548   5.193   7.013   7.496
31436WAT      O94549   5.649   0.694   3.691
31436WAT     H194550   5.711   0.729   3.621
31436WAT     H294551   5.590   0.767   3.723
31437WAT      O94552   9.327   3.586   6.469
31437WAT     H194553   9.362   3.674   6.502
31437WAT     H294554   9.345   3.578   6.371
31438WAT      O94555   6.952   3.092   0.683
31438WAT     H194556   7.018   3.144   0.628
31438WAT     H294557   6.981   3.092   0.779
31439WAT      O94558   3.246   8.003   6.002
31439WAT     H194559   3.204   7.974   6.088
31439WAT     H294560   3.340   8.032   6.020
31440WAT      O94561   9.274   1.706   1.966
31440WAT     H194562   9.374   1.706   1.960
31440WAT     H294563   9.245   1.639   2.035
31441WAT      O94564   8.687   6.748   9.067
31441WAT     H194565   8.697   6.717   8.973
31441WAT     H294566   8.632   6.832   9.070
31442WAT      O94567   3.854   8.316   9.689
31442WAT     H194568   3.785   8.247   9.668
31442WAT     H294569   3.845   8.344   9.784
31443WAT      O94570   2.145   5.939   8.585
31443WAT     H194571   2.133   5.988   8.671
31443WAT     H294572   2.201   5.993   8.522
31444WAT      O94573   4.424   6.158   9.044
31444WAT     H194574   4.404   6.063   9.023
31444WAT     H294575   4.522   6.175   9.030
31445WAT      O94576   7.286   2.567   5.425
31445WAT     H194577   7.333   2.624   5.492
31445WAT     H294578   7.353   2.512   5.375
31446WAT      O94579   6.314   2.830   3.501
31446WAT     H194580   6.346   2.900   3.565
31446WAT     H294581   6.223   2.798   3.529
31447WAT      O94582   3.137   4.675   4.510
31447WAT     H194583   3.199   4.751   4.495
31447WAT     H294584   3.120   4.628   4.424
31448WAT      O94585   2.976   4.705   8.618
31448WAT     H194586   3.072   4.711   8.593
31448WAT     H294587   2.960   4.622   8.671
31449WAT      O94588   3.245   8.096   5.028
31449WAT     H194589   3.277   8.051   4.944
31449WAT     H294590   3.310   8.167   5.055
31450WAT      O94591   8.601   2.756   0.953
31450WAT     H194592   8.551   2.704   0.884
31450WAT     H294593   8.662   2.821   0.908
31451WAT      O94594   3.444   5.640   8.861
31451WAT     H194595   3.415   5.619   8.954
31451WAT     H294596   3.441   5.739   8.846
31452WAT      O94597   7.215   9.150   9.806
31452WAT     H194598   7.156   9.225   9.837
31452WAT     H294599   7.162   9.086   9.751
31453WAT      O94600   3.180   8.025   9.432
31453WAT     H194601   3.127   7.941   9.437
31453WAT     H294602   3.206   8.043   9.337
31454WAT      O94603   2.084   1.065   3.509
31454WAT     H194604   2.003   1.114   3.543
31454WAT     H294605   2.100   0.984   3.566
31455WAT      O94606   3.065   9.601   6.792
31455WAT     H194607   3.155   9.563   6.814
31455WAT     H294608   3.016   9.539   6.731
31456WAT      O94609   4.980   1.683   7.090
31456WAT     H194610   4.989   1.677   7.190
31456WAT     H294611   4.909   1.621   7.058
31457WAT      O94612   7.947   5.773   2.119
31457WAT     H194613   8.008   5.719   2.061
31457WAT     H294614   7.993   5.857   2.147
31458WAT      O94615   5.605   8.217   3.279
31458WAT     H194616   5.689   8.267   3.301
31458WAT     H294617   5.617   8.170   3.191
31459WAT      O94618   4.382   3.354   1.800
31459WAT     H194619   4.356   3.345   1.896
31459WAT     H294620   4.409   3.265   1.764
31460WAT      O94621   5.432   0.122   1.363
31460WAT     H194622   5.433   0.022   1.370
31460WAT     H294623   5.496   0.161   1.429
31461WAT      O94624   3.908   6.514   8.277
31461WAT     H194625   3.980   6.550   8.336
31461WAT     H294626   3.844   6.587   8.254
31462WAT      O94627   7.011   6.437   8.074
31462WAT     H194628   7.023   6.416   8.170
31462WAT     H294629   7.042   6.530   8.056
31463WAT      O94630   4.541   2.507   4.204
31463WAT     H194631   4.534   2.507   4.304
31463WAT     H294632   4.477   2.441   4.165
31464WAT      O94633   8.493   2.603   9.480
31464WAT     H194634   8.540   2.563   9.401
31464WAT     H294635   8.514   2.550   9.562
31465WAT      O94636   3.368   8.999   9.454
31465WAT     H194637   3.432   8.935   9.412
31465WAT     H294638   3.382   8.998   9.553
31466WAT      O94639   2.792   6.835   3.254
31466WAT     H194640   2.841   6.820   3.168
31466WAT     H294641   2.848   6.893   3.314
31467WAT      O94642   2.582   0.211   5.155
31467WAT     H194643   2.521   0.136   5.180
31467WAT     H294644   2.552   0.295   5.202
31468WAT      O94645   4.501   1.922   0.453
31468WAT     H194646   4.446   1.846   0.418
31468WAT     H294647   4.480   1.936   0.550
31469WAT      O94648   6.698   4.265   9.253
31469WAT     H194649   6.658   4.343   9.204
31469WAT     H294650   6.668   4.180   9.209
31470WAT      O94651   2.634   1.432   1.675
31470WAT     H194652   2.558   1.497   1.681
31470WAT     H294653   2.610   1.359   1.611
31471WAT      O94654   2.032   5.865   2.786
31471WAT     H194655   2.052   5.960   2.762
31471WAT     H294656   1.948   5.861   2.840
31472WAT      O94657   3.400   3.898   9.222
31472WAT     H194658   3.315   3.944   9.199
31472WAT     H294659   3.469   3.965   9.250
31473WAT      O94660   3.913   4.212   7.598
31473WAT     H194661   3.922   4.301   7.553
31473WAT     H294662   3.827   4.169   7.571
31474WAT      O94663   2.973   8.918   9.596
31474WAT     H194664   2.877   8.947   9.589
31474WAT     H294665   3.023   8.950   9.515
31475WAT      O94666   0.569   3.364   0.602
31475WAT     H194667   0.556   3.379   0.504
31475WAT     H294668   0.647   3.303   0.615
31476WAT      O94669   0.937   8.182   7.129
31476WAT     H194670   1.031   8.155   7.147
31476WAT     H294671   0.874   8.120   7.176
31477WAT      O94672   3.798   3.554   9.204
31477WAT     H194673   3.777   3.648   9.230
31477WAT     H294674   3.897   3.545   9.186
31478WAT      O94675   6.941   6.827   0.678
31478WAT     H194676   6.889   6.754   0.724
31478WAT     H294677   6.914   6.915   0.715
31479WAT      O94678   9.496   4.691   9.652
31479WAT     H194679   9.549   4.744   9.719
31479WAT     H294680   9.539   4.602   9.638
31480WAT      O94681   3.668   7.735   3.379
31480WAT     H194682   3.659   7.689   3.291
31480WAT     H294683   3.588   7.716   3.435
31481WAT      O94684   9.047   4.429   2.723
31481WAT     H194685   9.037   4.441   2.822
31481WAT     H294686   9.107   4.352   2.704
31482WAT      O94687   3.718   9.602   0.361
31482WAT     H194688   3.620   9.615   0.350
31482WAT     H294689   3.737   9.554   0.447
31483WAT      O94690   4.184   1.739   1.133
31483WAT     H194691   4.216   1.687   1.053
31483WAT     H294692   4.235   1.710   1.214
31484WAT      O94693   1.704   3.213   7.500
31484WAT     H194694   1.628   3.239   7.440
31484WAT     H294695   1.682   3.237   7.595
31485WAT      O94696   0.760   3.158   6.282
31485WAT     H194697   0.743   3.255   6.297
31485WAT     H294698   0.854   3.146   6.248
31486WAT      O94699   7.809   5.959   9.477
31486WAT     H194700   7.886   5.953   9.539
31486WAT     H294701   7.761   5.872   9.474
31487WAT      O94702   1.859   2.727   9.297
31487WAT     H194703   1.773   2.773   9.320
31487WAT     H294704   1.867   2.644   9.351
31488WAT      O94705   8.605   2.228   1.438
31488WAT     H194706   8.512   2.255   1.415
31488WAT     H294707   8.668   2.304   1.420
31489WAT      O94708   8.948   3.016   5.375
31489WAT     H194709   8.995   3.074   5.308
31489WAT     H294710   9.014   2.986   5.444
31490WAT      O94711   3.614   3.493   3.905
31490WAT     H194712   3.524   3.515   3.868
31490WAT     H294713   3.684   3.521   3.840
31491WAT      O94714   6.818   8.119   5.738
31491WAT     H194715   6.840   8.025   5.763
31491WAT     H294716   6.820   8.129   5.638
31492WAT      O94717   3.211   2.331   1.206
31492WAT     H194718   3.192   2.428   1.221
31492WAT     H294719   3.271   2.321   1.127
31493WAT      O94720   2.625   7.749   8.550
31493WAT     H194721   2.646   7.843   8.578
31493WAT     H294722   2.702   7.690   8.572
31494WAT      O94723   7.941   8.585   1.497
31494WAT     H194724   8.025   8.533   1.480
31494WAT     H294725   7.951   8.677   1.459
31495WAT      O94726   6.711   6.857   7.763
31495WAT     H194727   6.695   6.834   7.859
31495WAT     H294728   6.642   6.812   7.706
31496WAT      O94729   2.079   3.252   2.011
31496WAT     H194730   2.154   3.302   2.055
31496WAT     H294731   1.994   3.267   2.061
31497WAT      O94732   0.795   2.768   0.595
31497WAT     H194733   0.742   2.844   0.634
31497WAT     H294734   0.778   2.685   0.648
31498WAT      O94735   2.703   7.027   9.265
31498WAT     H194736   2.764   6.974   9.207
31498WAT     H294737   2.632   7.069   9.209
31499WAT      O94738   9.561   6.315   9.407
31499WAT     H194739   9.465   6.343   9.404
31499WAT     H294740   9.607   6.360   9.484
31500WAT      O94741   7.158   2.373   7.905
31500WAT     H194742   7.160   2.376   8.004
31500WAT     H294743   7.180   2.280   7.874
31501WAT      O94744   0.080   1.903   3.560
31501WAT     H194745   0.053   1.990   3.603
31501WAT     H294746   0.063   1.828   3.624
31502WAT      O94747   9.220   8.676   7.949
31502WAT     H194748   9.254   8.727   7.870
31502WAT     H294749   9.176   8.592   7.918
31503WAT      O94750   2.230   9.732   7.459
31503WAT     H194751   2.183   9.644   7.455
31503WAT     H294752   2.252   9.755   7.554
31504WAT      O94753   2.983   0.067   4.623
31504WAT     H194754   2.951   0.018   4.704
31504WAT     H294755   3.017   0.002   4.555
31505WAT      O94756   7.416   8.585   3.070
31505WAT     H194757   7.497   8.598   3.013
31505WAT     H294758   7.334   8.583   3.011
31506WAT      O94759   7.076   3.741   3.909
31506WAT     H194760   6.987   3.786   3.908
31506WAT     H294761   7.067   3.650   3.867
31507WAT      O94762   4.108   5.513   6.173
31507WAT     H194763   4.195   5.495   6.218
31507WAT     H294764   4.042   5.442   6.198
31508WAT      O94765   2.486   6.773   1.622
31508WAT     H194766   2.425   6.719   1.680
31508WAT     H294767   2.434   6.842   1.572
31509WAT      O94768   6.206   1.675   4.843
31509WAT     H194769   6.184   1.602   4.779
31509WAT     H294770   6.210   1.762   4.795
31510WAT      O94771   2.740   7.988   3.784
31510WAT     H194772   2.764   8.020   3.693
31510WAT     H294773   2.795   7.908   3.807
31511WAT      O94774   9.483   4.275   7.853
31511WAT     H194775   9.463   4.302   7.759
31511WAT     H294776   9.403   4.231   7.893
31512WAT      O94777   2.594   0.198   3.141
31512WAT     H194778   2.625   0.255   3.065
31512WAT     H294779   2.614   0.102   3.120
31513WAT      O94780   6.594   6.176   9.260
31513WAT     H194781   6.555   6.257   9.215
31513WAT     H294782   6.694   6.181   9.255
31514WAT      O94783   5.118   0.198   6.184
31514WAT     H194784   5.168   0.138   6.122
31514WAT     H294785   5.173   0.280   6.203
31515WAT      O94786   3.830   1.547   5.051
31515WAT     H194787   3.880   1.565   4.966
31515WAT     H294788   3.845   1.453   5.080
31516WAT      O94789   1.974   9.767   7.350
31516WAT     H194790   1.950   9.677   7.313
31516WAT     H294791   2.074   9.775   7.352
31517WAT      O94792   2.155   0.324   5.030
31517WAT     H194793   2.201   0.324   5.119
31517WAT     H294794   2.105   0.239   5.018
31518WAT      O94795   4.205   0.403   7.006
31518WAT     H194796   4.193   0.307   6.980
31518WAT     H294797   4.190   0.412   7.105
31519WAT      O94798   2.669   1.894   7.469
31519WAT     H194799   2.617   1.977   7.447
31519WAT     H294800   2.736   1.915   7.541
31520WAT      O94801   7.062   7.367   3.515
31520WAT     H194802   7.105   7.279   3.494
31520WAT     H294803   7.130   7.429   3.555
31521WAT      O94804   4.925   0.657   3.564
31521WAT     H194805   4.894   0.627   3.654
31521WAT     H294806   4.935   0.578   3.504
31522WAT      O94807   8.427   1.333   7.618
31522WAT     H194808   8.329   1.341   7.599
31522WAT     H294809   8.477   1.405   7.570
31523WAT      O94810   3.101   6.770   0.447
31523WAT     H194811   3.092   6.867   0.424
31523WAT     H294812   3.197   6.747   0.457
31524WAT      O94813   2.725   0.228   6.051
31524WAT     H194814   2.770   0.237   5.962
31524WAT     H294815   2.663   0.150   6.050
31525WAT      O94816   8.340   1.982   0.986
31525WAT     H194817   8.299   1.937   0.906
31525WAT     H294818   8.287   1.959   1.068
31526WAT      O94819   4.092   7.279   3.239
31526WAT     H194820   4.035   7.249   3.162
31526WAT     H294821   4.048   7.357   3.284
31527WAT      O94822   5.799   7.356   9.422
31527WAT     H194823   5.879   7.410   9.449
31527WAT     H294824   5.828   7.281   9.362
31528WAT      O94825   5.317   5.097   8.163
31528WAT     H194826   5.410   5.117   8.195
31528WAT     H294827   5.259   5.177   8.177
31529WAT      O94828   8.455   7.863   5.509
31529WAT     H194829   8.547   7.858   5.547
31529WAT     H294830   8.397   7.919   5.569
31530WAT      O94831   4.514   6.846   3.296
31530WAT     H194832   4.457   6.867   3.217
31530WAT     H294833   4.543   6.932   3.339
31531WAT      O94834   8.635   6.495   1.645
31531WAT     H194835   8.550   6.443   1.639
31531WAT     H294836   8.703   6.456   1.583
31532WAT      O94837   1.886   8.854   3.262
31532WAT     H194838   1.904   8.887   3.355
31532WAT     H294839   1.792   8.819   3.257
31533WAT      O94840   6.632   0.756   4.075
31533WAT     H194841   6.656   0.740   4.171
31533WAT     H294842   6.661   0.848   4.049
31534WAT      O94843   7.931   7.609   1.350
31534WAT     H194844   7.942   7.548   1.428
31534WAT     H294845   7.906   7.700   1.382
31535WAT      O94846   3.208   5.869   3.068
31535WAT     H194847   3.276   5.919   3.121
31535WAT     H294848   3.124   5.924   3.061
31536WAT      O94849   9.531   5.608   9.131
31536WAT     H194850   9.474   5.542   9.181
31536WAT     H294851   9.525   5.589   9.033
31537WAT      O94852   6.549   6.368   7.833
31537WAT     H194853   6.493   6.285   7.836
31537WAT     H294854   6.558   6.405   7.926
31538WAT      O94855   0.219   5.162   0.506
31538WAT     H194856   0.275   5.237   0.471
31538WAT     H294857   0.274   5.079   0.513
31539WAT      O94858   1.697   2.937   6.707
31539WAT     H194859   1.762   2.962   6.635
31539WAT     H294860   1.745   2.884   6.777
31540WAT      O94861   8.494   1.064   4.637
31540WAT     H194862   8.494   0.967   4.659
31540WAT     H294863   8.466   1.077   4.542
31541WAT      O94864   2.825   0.879   5.587
31541WAT     H194865   2.774   0.939   5.649
31541WAT     H294866   2.914   0.920   5.566
31542WAT      O94867   6.428   3.142   6.251
31542WAT     H194868   6.487   3.223   6.250
31542WAT     H294869   6.343   3.163   6.203
31543WAT      O94870   6.954   3.847   2.563
31543WAT     H194871   6.962   3.803   2.474
31543WAT     H294872   6.946   3.777   2.634
31544WAT      O94873   4.592   2.834   9.365
31544WAT     H194874   4.646   2.761   9.323
31544WAT     H294875   4.651   2.887   9.427
31545WAT      O94876   6.925   6.114   8.270
31545WAT     H194877   6.889   6.125   8.178
31545WAT     H294878   7.016   6.073   8.265
31546WAT      O94879   6.478   4.016   3.573
31546WAT     H194880   6.398   4.071   3.548
31546WAT     H294881   6.451   3.921   3.586
31547WAT      O94882   0.077   7.485   8.089
31547WAT     H194883   0.019   7.562   8.064
31547WAT     H294884   0.136   7.461   8.012
31548WAT      O94885   1.143   6.536   9.757
31548WAT     H194886   1.216   6.595   9.722
31548WAT     H294887   1.171   6.495   9.843
31549WAT      O94888   1.523   3.341   2.523
31549WAT     H194889   1.441   3.305   2.479
31549WAT     H294890   1.573   3.266   2.566
31550WAT      O94891   5.965   6.362   3.565
31550WAT     H194892   5.976   6.300   3.643
31550WAT     H294893   5.934   6.310   3.486
31551WAT      O94894   5.988   6.802   0.173
31551WAT     H194895   5.935   6.789   0.089
31551WAT     H294896   5.946   6.749   0.247
31552WAT      O94897   3.654   1.161   4.606
31552WAT     H194898   3.695   1.073   4.585
31552WAT     H294899   3.694   1.197   4.691
31553WAT      O94900   0.866   7.489   5.424
31553WAT     H194901   0.806   7.439   5.487
31553WAT     H294902   0.819   7.570   5.389
31554WAT      O94903   0.131   5.748   1.458
31554WAT     H194904   0.116   5.791   1.547
31554WAT     H294905   0.124   5.818   1.386
31555WAT      O94906   9.134   9.707   0.933
31555WAT     H194907   9.194   9.771   0.980
31555WAT     H294908   9.161   9.613   0.955
31556WAT      O94909   3.410   4.166   1.990
31556WAT     H194910   3.422   4.151   2.088
31556WAT     H294911   3.498   4.155   1.943
31557WAT      O94912   7.929   1.064   5.318
31557WAT     H194913   8.003   1.131   5.308
31557WAT     H294914   7.956   0.995   5.385
31558WAT      O94915   1.664   2.485   3.543
31558WAT     H194916   1.652   2.455   3.448
31558WAT     H294917   1.702   2.411   3.597
31559WAT      O94918   4.595   9.172   0.276
31559WAT     H194919   4.583   9.251   0.217
31559WAT     H294920   4.514   9.114   0.271
31560WAT      O94921   5.785   2.301   4.166
31560WAT     H194922   5.842   2.329   4.244
31560WAT     H294923   5.695   2.343   4.175
31561WAT      O94924   3.138   2.967   8.675
31561WAT     H194925   3.051   3.011   8.697
31561WAT     H294926   3.175   3.005   8.591
31562WAT      O94927   2.550   4.111   9.241
31562WAT     H194928   2.549   4.193   9.297
31562WAT     H294929   2.634   4.108   9.187
31563WAT      O94930   5.442   4.503   7.894
31563WAT     H194931   5.539   4.482   7.902
31563WAT     H294932   5.427   4.600   7.913
31564WAT      O94933   5.866   9.288   0.371
31564WAT     H194934   5.826   9.318   0.457
31564WAT     H294935   5.815   9.211   0.335
31565WAT      O94936   9.199   2.129   3.336
31565WAT     H194937   9.134   2.059   3.305
31565WAT     H294938   9.284   2.121   3.284
31566WAT      O94939   2.333   0.134   6.799
31566WAT     H194940   2.344   0.221   6.752
31566WAT     H294941   2.414   0.115   6.854
31567WAT      O94942   4.447   5.372   6.080
31567WAT     H194943   4.493   5.296   6.033
31567WAT     H294944   4.486   5.459   6.048
31568WAT      O94945   8.801   3.612   9.079
31568WAT     H194946   8.764   3.553   9.150
31568WAT     H294947   8.817   3.703   9.116
31569WAT      O94948   6.800   4.242   9.517
31569WAT     H194949   6.742   4.260   9.439
31569WAT     H294950   6.858   4.321   9.535
31570WAT      O94951   2.313   8.313   0.701
31570WAT     H194952   2.215   8.310   0.725
31570WAT     H294953   2.325   8.282   0.607
31571WAT      O94954   8.718   9.136   0.557
31571WAT     H194955   8.794   9.128   0.493
31571WAT     H294956   8.646   9.193   0.517
31572WAT      O94957   5.527   7.528   8.106
31572WAT     H194958   5.616   7.492   8.080
31572WAT     H294959   5.539   7.617   8.150
31573WAT      O94960   6.036   3.210   0.288
31573WAT     H194961   6.074   3.203   0.196
31573WAT     H294962   6.094   3.268   0.344
31574WAT      O94963   0.258   2.364   4.898
31574WAT     H194964   0.172   2.381   4.850
31574WAT     H294965   0.238   2.329   4.989
31575WAT      O94966   3.814   3.167   1.814
31575WAT     H194967   3.809   3.116   1.899
31575WAT     H294968   3.778   3.112   1.739
31576WAT      O94969   1.555   1.220   8.791
31576WAT     H194970   1.459   1.247   8.802
31576WAT     H294971   1.614   1.296   8.818
31577WAT      O94972   1.203   5.812   3.625
31577WAT     H194973   1.185   5.721   3.662
31577WAT     H294974   1.271   5.806   3.551
31578WAT      O94975   4.698   5.674   0.183
31578WAT     H194976   4.675   5.744   0.250
31578WAT     H294977   4.779   5.701   0.132
31579WAT      O94978   3.195   4.590   1.794
31579WAT     H194979   3.168   4.613   1.887
31579WAT     H294980   3.280   4.538   1.795
31580WAT      O94981   1.809   4.347   0.638
31580WAT     H194982   1.898   4.348   0.593
31580WAT     H294983   1.819   4.383   0.731
31581WAT      O94984   4.622   7.358   1.820
31581WAT     H194985   4.574   7.308   1.748
31581WAT     H294986   4.556   7.412   1.872
31582WAT      O94987   8.491   5.765   4.103
31582WAT     H194988   8.431   5.784   4.025
31582WAT     H294989   8.461   5.818   4.182
31583WAT      O94990   6.236   2.081   9.169
31583WAT     H194991   6.157   2.021   9.155
31583WAT     H294992   6.318   2.026   9.185
31584WAT      O94993   6.889   1.436   7.878
31584WAT     H194994   6.926   1.385   7.801
31584WAT     H294995   6.828   1.378   7.931
31585WAT      O94996   2.140   9.349   4.875
31585WAT     H194997   2.174   9.285   4.944
31585WAT     H294998   2.192   9.435   4.880
31586WAT      O94999   0.745   5.163   8.624
31586WAT     H195000   0.717   5.086   8.566
31586WAT     H295001   0.805   5.130   8.697
31587WAT      O95002   1.977   6.907   8.642
31587WAT     H195003   1.940   6.815   8.636
31587WAT     H295004   1.946   6.961   8.564
31588WAT      O95005   0.662   3.833   6.308
31588WAT     H195006   0.681   3.784   6.393
31588WAT     H295007   0.578   3.887   6.318
31589WAT      O95008   5.985   2.987   0.754
31589WAT     H195009   5.892   3.013   0.779
31589WAT     H295010   6.038   3.068   0.729
31590WAT      O95011   7.130   4.512   1.875
31590WAT     H195012   7.214   4.498   1.823
31590WAT     H295013   7.147   4.492   1.972
31591WAT      O95014   2.207   3.558   5.538
31591WAT     H195015   2.203   3.459   5.524
31591WAT     H295016   2.148   3.584   5.615
31592WAT      O95017   3.751   2.055   7.055
31592WAT     H195018   3.840   2.017   7.079
31592WAT     H295019   3.704   2.085   7.137
31593WAT      O95020   1.784   2.138   4.835
31593WAT     H195021   1.832   2.162   4.750
31593WAT     H295022   1.842   2.079   4.890
31594WAT      O95023   2.758   7.144   8.533
31594WAT     H195024   2.745   7.189   8.445
31594WAT     H295025   2.672   7.144   8.584
31595WAT      O95026   0.798   9.583   2.418
31595WAT     H195027   0.753   9.494   2.408
31595WAT     H295028   0.886   9.571   2.463
31596WAT      O95029   7.599   6.735   2.542
31596WAT     H195030   7.673   6.777   2.594
31596WAT     H295031   7.636   6.659   2.488
31597WAT      O95032   8.095   4.995   4.027
31597WAT     H195033   8.027   5.003   3.954
31597WAT     H295034   8.054   5.022   4.114
31598WAT      O95035   4.546   8.586   3.413
31598WAT     H195036   4.607   8.519   3.453
31598WAT     H295037   4.453   8.573   3.448
31599WAT      O95038   4.397   2.460   5.006
31599WAT     H195039   4.341   2.498   5.080
31599WAT     H295040   4.393   2.360   5.010
31600WAT      O95041   8.879   3.946   4.783
31600WAT     H195042   8.964   3.937   4.834
31600WAT     H295043   8.843   3.855   4.762
31601WAT      O95044   7.081   6.538   3.467
31601WAT     H195045   6.992   6.530   3.421
31601WAT     H295046   7.071   6.595   3.549
31602WAT      O95047   3.571   9.033   6.864
31602WAT     H195048   3.528   8.944   6.873
31602WAT     H295049   3.668   9.026   6.890
31603WAT      O95050   2.730   5.156   2.876
31603WAT     H195051   2.792   5.127   2.803
31603WAT     H295052   2.768   5.130   2.965
31604WAT      O95053   5.255   0.631   7.121
31604WAT     H195054   5.341   0.628   7.172
31604WAT     H295055   5.274   0.649   7.024
31605WAT      O95056   5.256   2.628   2.760
31605WAT     H195057   5.331   2.693   2.746
31605WAT     H295058   5.293   2.543   2.797
31606WAT      O95059   7.242   8.849   4.144
31606WAT     H195060   7.228   8.756   4.109
31606WAT     H295061   7.167   8.907   4.113
31607WAT      O95062   8.088   0.990   7.526
31607WAT     H195063   8.053   1.005   7.618
31607WAT     H295064   8.187   1.004   7.524
31608WAT      O95065   8.369   8.876   5.802
31608WAT     H195066   8.408   8.881   5.709
31608WAT     H295067   8.433   8.918   5.866
31609WAT      O95068   3.028   9.190   1.599
31609WAT     H195069   2.972   9.139   1.664
31609WAT     H295070   2.975   9.211   1.517
31610WAT      O95071   1.917   0.087   2.733
31610WAT     H195072   1.876   0.107   2.644
31610WAT     H295073   1.979   0.009   2.724
31611WAT      O95074   9.214   1.461   1.552
31611WAT     H195075   9.305   1.431   1.579
31611WAT     H295076   9.197   1.554   1.587
31612WAT      O95077   1.803   9.792   9.530
31612WAT     H195078   1.860   9.822   9.453
31612WAT     H295079   1.861   9.778   9.611
31613WAT      O95080   4.815   7.766   8.965
31613WAT     H195081   4.790   7.784   9.059
31613WAT     H295082   4.882   7.834   8.934
31614WAT      O95083   2.944   0.007   5.385
31614WAT     H195084   2.901  -0.077   5.351
31614WAT     H295085   3.035   0.016   5.346
31615WAT      O95086   9.006   3.536   0.521
31615WAT     H195087   9.029   3.471   0.449
31615WAT     H295088   8.928   3.502   0.573
31616WAT      O95089   9.704   0.262   9.692
31616WAT     H195090   9.786   0.298   9.737
31616WAT     H295091   9.731   0.198   9.620
31617WAT      O95092   2.264   2.483   2.998
31617WAT     H195093   2.237   2.414   3.066
31617WAT     H295094   2.333   2.543   3.037
31618WAT      O95095   3.433   7.440   4.219
31618WAT     H195096   3.524   7.470   4.248
31618WAT     H295097   3.373   7.436   4.298
31619WAT      O95098   0.283   0.214   7.573
31619WAT     H195099   0.293   0.139   7.507
31619WAT     H295100   0.235   0.182   7.654
31620WAT      O95101   7.134   7.708   8.694
31620WAT     H195102   7.172   7.615   8.702
31620WAT     H295103   7.206   7.775   8.711
31621WAT      O95104   4.209   8.826   9.746
31621WAT     H195105   4.165   8.755   9.691
31621WAT     H295106   4.307   8.830   9.723
31622WAT      O95107   1.269   4.908   2.306
31622WAT     H195108   1.266   4.839   2.378
31622WAT     H295109   1.193   4.893   2.242
31623WAT      O95110   3.693   0.839   9.585
31623WAT     H195111   3.635   0.769   9.626
31623WAT     H295112   3.636   0.908   9.540
31624WAT      O95113   8.215   7.554   0.236
31624WAT     H195114   8.268   7.522   0.314
31624WAT     H295115   8.275   7.604   0.173
31625WAT      O95116   2.440   8.493   8.504
31625WAT     H195117   2.471   8.495   8.409
31625WAT     H295118   2.340   8.490   8.506
31626WAT      O95119   4.165   9.365   6.678
31626WAT     H195120   4.106   9.296   6.719
31626WAT     H295121   4.251   9.371   6.730
31627WAT      O95122   3.829   7.319   6.562
31627WAT     H195123   3.773   7.341   6.642
31627WAT     H295124   3.921   7.292   6.593
31628WAT      O95125   6.760   2.311   5.352
31628WAT     H195126   6.751   2.287   5.448
31628WAT     H295127   6.765   2.410   5.342
31629WAT      O95128   3.226   5.811   2.144
31629WAT     H195129   3.281   5.871   2.086
31629WAT     H295130   3.197   5.731   2.091
31630WAT      O95131   1.039   9.165   9.012
31630WAT     H195132   0.989   9.236   9.062
31630WAT     H295133   1.036   9.079   9.064
31631WAT      O95134   2.143   5.736   7.184
31631WAT     H195135   2.073   5.675   7.147
31631WAT     H295136   2.228   5.724   7.132
31632WAT      O95137   5.187   0.598   2.490
31632WAT     H195138   5.269   0.655   2.497
31632WAT     H295139   5.157   0.595   2.395
31633WAT      O95140   8.693   0.337   3.900
31633WAT     H195141   8.611   0.390   3.877
31633WAT     H295142   8.721   0.359   3.994
31634WAT      O95143   2.818   7.826   2.772
31634WAT     H195144   2.822   7.731   2.802
31634WAT     H295145   2.791   7.885   2.849
31635WAT      O95146   5.830   8.847   3.434
31635WAT     H195147   5.797   8.910   3.504
31635WAT     H295148   5.869   8.766   3.478
31636WAT      O95149   0.475   9.757   5.316
31636WAT     H195150   0.514   9.734   5.406
31636WAT     H295151   0.411   9.686   5.289
31637WAT      O95152   3.536   0.270   4.402
31637WAT     H195153   3.478   0.309   4.473
31637WAT     H295154   3.630   0.303   4.414
31638WAT      O95155   9.099   4.657   9.211
31638WAT     H195156   9.138   4.571   9.179
31638WAT     H295157   9.024   4.685   9.151
31639WAT      O95158   1.614   8.274   0.096
31639WAT     H195159   1.709   8.261   0.125
31639WAT     H295160   1.585   8.196   0.041
31640WAT      O95161   7.822   0.084   2.877
31640WAT     H195162   7.911   0.130   2.868
31640WAT     H295163   7.751   0.151   2.894
31641WAT      O95164   0.284   4.611   8.993
31641WAT     H195165   0.199   4.569   8.963
31641WAT     H295166   0.322   4.666   8.918
31642WAT      O95167   4.019   2.630   3.263
31642WAT     H195168   3.995   2.644   3.167
31642WAT     H295169   4.107   2.584   3.269
31643WAT      O95170   7.706   6.328   3.819
31643WAT     H195171   7.611   6.360   3.812
31643WAT     H295172   7.708   6.228   3.813
31644WAT      O95173   2.587   7.293   4.272
31644WAT     H195174   2.540   7.342   4.346
31644WAT     H295175   2.583   7.194   4.290
31645WAT      O95176   0.165   1.777   4.416
31645WAT     H195177   0.253   1.749   4.453
31645WAT     H295178   0.096   1.708   4.439
31646WAT      O95179   7.209   4.034   2.972
31646WAT     H195180   7.217   4.133   2.970
31646WAT     H295181   7.254   3.994   2.892
31647WAT      O95182   6.907   8.798   5.479
31647WAT     H195183   6.968   8.877   5.478
31647WAT     H295184   6.812   8.829   5.489
31648WAT      O95185   8.906   9.821   5.631
31648WAT     H195186   8.812   9.788   5.646
31648WAT     H295187   8.936   9.794   5.540
31649WAT      O95188   5.817   3.088   8.662
31649WAT     H195189   5.866   3.076   8.575
31649WAT     H295190   5.729   3.133   8.645
31650WAT      O95191   5.028   6.488   8.912
31650WAT     H195192   5.028   6.588   8.921
31650WAT     H295193   4.970   6.461   8.835
31651WAT      O95194   2.669   8.970   9.514
31651WAT     H195195   2.570   8.970   9.525
31651WAT     H295196   2.698   9.055   9.470
31652WAT      O95197   9.243   4.722   9.531
31652WAT     H195198   9.252   4.740   9.433
31652WAT     H295199   9.333   4.708   9.572
31653WAT      O95200   7.243   4.316   0.378
31653WAT     H195201   7.328   4.367   0.375
31653WAT     H295202   7.170   4.370   0.335
31654WAT      O95203   4.292   2.955   4.467
31654WAT     H195204   4.263   2.861   4.485
31654WAT     H295205   4.216   3.017   4.483
31655WAT      O95206   7.691   5.740   9.470
31655WAT     H195207   7.609   5.683   9.471
31655WAT     H295208   7.743   5.721   9.387
31656WAT      O95209   6.027   2.874   4.170
31656WAT     H195210   6.100   2.905   4.231
31656WAT     H295211   6.066   2.812   4.102
31657WAT      O95212   8.418   8.709   6.722
31657WAT     H195213   8.464   8.760   6.650
31657WAT     H295214   8.400   8.616   6.691
31658WAT      O95215   8.544   7.989   6.017
31658WAT     H195216   8.605   8.050   6.069
31658WAT     H295217   8.596   7.944   5.944
31659WAT      O95218   4.111   9.706   2.212
31659WAT     H195219   4.185   9.644   2.186
31659WAT     H295220   4.069   9.744   2.129
31660WAT      O95221   5.394   2.630   2.221
31660WAT     H195222   5.457   2.661   2.291
31660WAT     H295223   5.358   2.540   2.247
31661WAT      O95224   5.188   4.100   2.652
31661WAT     H195225   5.199   4.014   2.602
31661WAT     H295226   5.092   4.113   2.674
31662WAT      O95227   7.624   3.836   0.443
31662WAT     H195228   7.535   3.846   0.489
31662WAT     H295229   7.670   3.755   0.479
31663WAT      O95230   6.857   1.889   2.697
31663WAT     H195231   6.826   1.973   2.741
31663WAT     H295232   6.807   1.876   2.611
31664WAT      O95233   3.088   1.907   0.733
31664WAT     H195234   3.037   1.896   0.818
31664WAT     H295235   3.146   1.988   0.739
31665WAT      O95236   5.621   7.077   6.574
31665WAT     H195237   5.626   7.170   6.538
31665WAT     H295238   5.601   7.013   6.500
31666WAT      O95239   6.523   2.850   1.469
31666WAT     H195240   6.448   2.914   1.450
31666WAT     H295241   6.528   2.783   1.395
31667WAT      O95242   2.591   9.087   7.865
31667WAT     H195243   2.610   9.004   7.812
31667WAT     H295244   2.494   9.092   7.886
31668WAT      O95245   9.280   1.498   7.512
31668WAT     H195246   9.299   1.593   7.488
31668WAT     H295247   9.190   1.492   7.555
31669WAT      O95248   3.568   5.834   2.352
31669WAT     H195249   3.559   5.735   2.343
31669WAT     H295250   3.534   5.863   2.441
31670WAT      O95251   2.426   4.989   0.965
31670WAT     H195252   2.365   4.912   0.983
31670WAT     H295253   2.386   5.072   1.005
31671WAT      O95254   3.457   2.229   5.984
31671WAT     H195255   3.524   2.207   6.056
31671WAT     H295256   3.444   2.150   5.925
31672WAT      O95257   0.410   1.219   0.510
31672WAT     H195258   0.342   1.155   0.544
31672WAT     H295259   0.471   1.173   0.446
31673WAT      O95260   2.718   8.467   0.208
31673WAT     H195261   2.693   8.554   0.164
31673WAT     H295262   2.659   8.454   0.288
31674WAT      O95263   8.450   7.485   3.966
31674WAT     H195264   8.390   7.408   3.943
31674WAT     H295265   8.543   7.452   3.982
31675WAT      O95266   2.469   3.109   6.330
31675WAT     H195267   2.510   3.182   6.385
31675WAT     H295268   2.434   3.148   6.245
31676WAT      O95269   0.361   9.394   4.970
31676WAT     H195270   0.453   9.379   4.932
31676WAT     H295271   0.339   9.320   5.033
31677WAT      O95272   7.731   9.129   2.234
31677WAT     H195273   7.646   9.180   2.247
31677WAT     H295274   7.735   9.053   2.299
31678WAT      O95275   8.048   1.572   5.445
31678WAT     H195276   8.051   1.653   5.502
31678WAT     H295277   7.988   1.503   5.487
31679WAT      O95278   5.276   5.702   9.742
31679WAT     H195279   5.189   5.719   9.697
31679WAT     H295280   5.350   5.703   9.674
31680WAT      O95281   7.148   9.239   1.906
31680WAT     H195282   7.096   9.211   1.825
31680WAT     H295283   7.088   9.287   1.970
31681WAT      O95284   1.525   3.272   3.811
31681WAT     H195285   1.510   3.258   3.713
31681WAT     H295286   1.563   3.189   3.851
31682WAT      O95287   1.397   6.518   4.630
31682WAT     H195288   1.322   6.547   4.572
31682WAT     H295289   1.483   6.520   4.578
31683WAT      O95290   0.030   9.493   3.045
31683WAT     H195291   0.047   9.518   2.950
31683WAT     H295292  -0.003   9.574   3.095
31684WAT      O95293   6.792   3.156   6.421
31684WAT     H195294   6.872   3.177   6.477
31684WAT     H295295   6.718   3.124   6.480
31685WAT      O95296   3.417   7.660   7.493
31685WAT     H195297   3.490   7.597   7.519
31685WAT     H295298   3.386   7.710   7.574
31686WAT      O95299   2.198   1.444   0.768
31686WAT     H195300   2.103   1.427   0.741
31686WAT     H295301   2.260   1.408   0.699
31687WAT      O95302   0.819   9.433   4.871
31687WAT     H195303   0.770   9.501   4.925
31687WAT     H295304   0.858   9.364   4.932
31688WAT      O95305   6.557   1.668   2.307
31688WAT     H195306   6.552   1.719   2.221
31688WAT     H295307   6.605   1.582   2.292
31689WAT      O95308   3.174   0.832   9.505
31689WAT     H195309   3.235   0.910   9.516
31689WAT     H295310   3.089   0.848   9.555
31690WAT      O95311   7.328   5.520   0.565
31690WAT     H195312   7.340   5.614   0.534
31690WAT     H295313   7.303   5.461   0.488
31691WAT      O95314   2.137   0.123   8.143
31691WAT     H195315   2.143   0.183   8.064
31691WAT     H295316   2.089   0.039   8.118
31692WAT      O95317   0.025   7.134   7.608
31692WAT     H195318   0.060   7.044   7.634
31692WAT     H295319   0.089   7.204   7.639
31693WAT      O95320   9.026   1.660   3.794
31693WAT     H195321   9.076   1.574   3.793
31693WAT     H295322   9.032   1.703   3.704
31694WAT      O95323   8.564   5.474   6.854
31694WAT     H195324   8.510   5.392   6.873
31694WAT     H295325   8.572   5.487   6.755
31695WAT      O95326   1.700   0.593   9.126
31695WAT     H195327   1.708   0.692   9.134
31695WAT     H295328   1.702   0.552   9.217
31696WAT      O95329   9.436   3.163   9.138
31696WAT     H195330   9.412   3.131   9.046
31696WAT     H295331   9.367   3.228   9.169
31697WAT      O95332   0.441   4.000   0.760
31697WAT     H195333   0.472   4.054   0.682
31697WAT     H295334   0.355   4.037   0.796
31698WAT      O95335   1.950   9.402   0.907
31698WAT     H195336   1.978   9.307   0.922
31698WAT     H295337   1.936   9.416   0.809
31699WAT      O95338   9.561   1.904   9.695
31699WAT     H195339   9.521   1.939   9.610
31699WAT     H295340   9.656   1.933   9.701
31700WAT      O95341   4.302   2.264   4.162
31700WAT     H195342   4.205   2.240   4.169
31700WAT     H295343   4.332   2.251   4.068
31701WAT      O95344   3.176   7.582   0.670
31701WAT     H195345   3.179   7.584   0.570
31701WAT     H295346   3.269   7.573   0.706
31702WAT      O95347   6.126   5.942   5.825
31702WAT     H195348   6.153   5.914   5.734
31702WAT     H295349   6.029   5.920   5.840
31703WAT      O95350   1.795   1.459   6.756
31703WAT     H195351   1.827   1.465   6.662
31703WAT     H295352   1.697   1.438   6.757
31704WAT      O95353   5.353   8.562   4.821
31704WAT     H195354   5.325   8.558   4.726
31704WAT     H295355   5.447   8.595   4.827
31705WAT      O95356   8.296   5.409   7.622
31705WAT     H195357   8.214   5.460   7.649
31705WAT     H295358   8.318   5.430   7.527
31706WAT      O95359   9.660   0.300   7.905
31706WAT     H195360   9.619   0.384   7.870
31706WAT     H295361   9.632   0.287   8.000
31707WAT      O95362   6.839   5.066   4.087
31707WAT     H195363   6.881   5.143   4.039
31707WAT     H295364   6.910   5.009   4.129
31708WAT      O95365   1.014   3.391   6.268
31708WAT     H195366   1.032   3.384   6.366
31708WAT     H295367   0.925   3.433   6.253
31709WAT      O95368   2.644   1.173   0.790
31709WAT     H195369   2.659   1.137   0.882
31709WAT     H295370   2.690   1.262   0.782
31710WAT      O95371   6.631   1.572   5.521
31710WAT     H195372   6.599   1.477   5.522
31710WAT     H295373   6.563   1.630   5.566
31711WAT      O95374   7.065   2.014   6.784
31711WAT     H195375   7.025   1.965   6.706
31711WAT     H295376   7.100   1.949   6.850
31712WAT      O95377   5.294   9.165   8.754
31712WAT     H195378   5.333   9.073   8.756
31712WAT     H295379   5.367   9.232   8.769
31713WAT      O95380   8.455   3.680   7.161
31713WAT     H195381   8.400   3.764   7.159
31713WAT     H295382   8.548   3.702   7.190
31714WAT      O95383   8.459   7.324   9.336
31714WAT     H195384   8.537   7.338   9.274
31714WAT     H295385   8.472   7.240   9.389
31715WAT      O95386   5.847   0.980   3.308
31715WAT     H195387   5.804   1.070   3.296
31715WAT     H295388   5.781   0.918   3.351
31716WAT      O95389   3.268   5.581   6.411
31716WAT     H195390   3.334   5.506   6.420
31716WAT     H295391   3.239   5.589   6.316
31717WAT      O95392   1.627   5.558   3.602
31717WAT     H195393   1.718   5.520   3.618
31717WAT     H295394   1.630   5.658   3.613
31718WAT      O95395   1.820   1.155   0.936
31718WAT     H195396   1.826   1.198   1.026
31718WAT     H295397   1.873   1.070   0.936
31719WAT      O95398   4.960   0.743   2.528
31719WAT     H195399   5.049   0.704   2.503
31719WAT     H295400   4.943   0.726   2.625
31720WAT      O95401   5.275   8.546   2.750
31720WAT     H195402   5.295   8.643   2.740
31720WAT     H295403   5.258   8.525   2.846
31721WAT      O95404   6.931   6.440   7.359
31721WAT     H195405   6.935   6.479   7.451
31721WAT     H295406   7.003   6.371   7.349
31722WAT      O95407   9.465   2.318   8.515
31722WAT     H195408   9.490   2.342   8.421
31722WAT     H295409   9.416   2.230   8.515
31723WAT      O95410   9.476   4.527   0.040
31723WAT     H195411   9.462   4.465  -0.037
31723WAT     H295412   9.507   4.616   0.006
31724WAT      O95413   8.559   7.554   9.499
31724WAT     H195414   8.521   7.601   9.579
31724WAT     H295415   8.488   7.498   9.457
31725WAT      O95416   8.182   8.169   0.368
31725WAT     H195417   8.222   8.260   0.381
31725WAT     H295418   8.165   8.127   0.457
31726WAT      O95419   7.069   4.752   2.003
31726WAT     H195420   7.150   4.797   2.039
31726WAT     H295421   7.097   4.674   1.948
31727WAT      O95422   0.056   2.376   6.378
31727WAT     H195423   0.127   2.419   6.322
31727WAT     H295424   0.070   2.401   6.474
31728WAT      O95425   3.529   9.513   2.492
31728WAT     H195426   3.601   9.542   2.430
31728WAT     H295427   3.495   9.591   2.544
31729WAT      O95428   6.621   6.811   2.792
31729WAT     H195429   6.580   6.864   2.719
31729WAT     H295430   6.554   6.748   2.830
31730WAT      O95431   4.892   1.820   0.684
31730WAT     H195432   4.852   1.869   0.606
31730WAT     H295433   4.953   1.881   0.734
31731WAT      O95434   1.161   4.794   7.358
31731WAT     H195435   1.145   4.792   7.259
31731WAT     H295436   1.096   4.857   7.401
31732WAT      O95437   2.793   3.317   9.871
31732WAT     H195438   2.880   3.313   9.920
31732WAT     H295439   2.734   3.386   9.913
31733WAT      O95440   0.100   4.884   6.573
31733WAT     H195441   0.100   4.785   6.581
31733WAT     H295442   0.103   4.911   6.477
31734WAT      O95443   8.481   4.183   7.981
31734WAT     H195444   8.561   4.216   7.931
31734WAT     H295445   8.418   4.138   7.919
31735WAT      O95446   0.727   8.547   8.718
31735WAT     H195447   0.788   8.626   8.723
31735WAT     H295448   0.685   8.544   8.627
31736WAT      O95449   2.656   2.363   9.554
31736WAT     H195450   2.631   2.442   9.499
31736WAT     H295451   2.587   2.291   9.543
31737WAT      O95452   8.096   0.896   4.667
31737WAT     H195453   8.152   0.816   4.686
31737WAT     H295454   8.085   0.950   4.750
31738WAT      O95455   6.137   2.083   6.830
31738WAT     H195456   6.137   2.145   6.751
31738WAT     H295457   6.043   2.066   6.858
31739WAT      O95458   3.061   4.389   6.768
31739WAT     H195459   3.010   4.349   6.844
31739WAT     H295460   3.062   4.325   6.691
31740WAT      O95461   1.824   5.418   2.858
31740WAT     H195462   1.869   5.362   2.927
31740WAT     H295463   1.787   5.500   2.901
31741WAT      O95464   0.736   4.453   7.737
31741WAT     H195465   0.745   4.514   7.815
31741WAT     H295466   0.644   4.414   7.735
31742WAT      O95467   0.027   7.573   3.528
31742WAT     H195468   0.068   7.662   3.508
31742WAT     H295469  -0.062   7.566   3.483
31743WAT      O95470   9.461   4.090   0.782
31743WAT     H195471   9.428   4.131   0.866
31743WAT     H295472   9.387   4.089   0.714
31744WAT      O95473   5.595   6.800   1.139
31744WAT     H195474   5.667   6.798   1.069
31744WAT     H295475   5.593   6.890   1.181
31745WAT      O95476   1.740   4.919   0.197
31745WAT     H195477   1.790   4.884   0.276
31745WAT     H295478   1.781   4.884   0.113
31746WAT      O95479   4.117   6.450   5.179
31746WAT     H195480   4.024   6.420   5.201
31746WAT     H295481   4.150   6.400   5.099
31747WAT      O95482   0.854   6.310   2.845
31747WAT     H195483   0.791   6.357   2.784
31747WAT     H295484   0.895   6.376   2.908
31748WAT      O95485   1.411   8.555   5.087
31748WAT     H195486   1.361   8.630   5.130
31748WAT     H295487   1.398   8.471   5.140
31749WAT      O95488   4.961   6.208   3.341
31749WAT     H195489   4.936   6.244   3.251
31749WAT     H295490   5.041   6.148   3.332
31750WAT      O95491   2.762   2.769   9.617
31750WAT     H195492   2.798   2.735   9.530
31750WAT     H295493   2.837   2.783   9.681
31751WAT      O95494   5.009   7.762   2.370
31751WAT     H195495   4.926   7.771   2.424
31751WAT     H295496   4.989   7.714   2.285
31752WAT      O95497   5.722   9.050   3.609
31752WAT     H195498   5.771   9.087   3.688
31752WAT     H295499   5.629   9.023   3.636
31753WAT      O95500   9.565   3.043   3.259
31753WAT     H195501   9.606   3.037   3.350
31753WAT     H295502   9.631   3.080   3.195
31754WAT      O95503   9.445   6.866   8.652
31754WAT     H195504   9.506   6.837   8.579
31754WAT     H295505   9.470   6.959   8.682
31755WAT      O95506   9.544   3.414   4.674
31755WAT     H195507   9.470   3.365   4.627
31755WAT     H295508   9.508   3.459   4.756
31756WAT      O95509   0.205   6.355   6.367
31756WAT     H195510   0.191   6.274   6.310
31756WAT     H295511   0.253   6.425   6.314
31757WAT      O95512   8.223   5.434   0.909
31757WAT     H195513   8.245   5.500   0.837
31757WAT     H295514   8.301   5.426   0.971
31758WAT      O95515   6.290   8.081   2.327
31758WAT     H195516   6.230   8.090   2.407
31758WAT     H295517   6.369   8.141   2.337
31759WAT      O95518   4.013   1.495   2.467
31759WAT     H195519   4.019   1.497   2.367
31759WAT     H295520   3.918   1.505   2.495
31760WAT      O95521   6.486   9.779   9.832
31760WAT     H195522   6.487   9.723   9.915
31760WAT     H295523   6.512   9.873   9.855
31761WAT      O95524   5.152   7.676   9.669
31761WAT     H195525   5.114   7.608   9.733
31761WAT     H295526   5.077   7.727   9.628
31762WAT      O95527   1.599   0.795   2.901
31762WAT     H195528   1.596   0.807   3.000
31762WAT     H295529   1.524   0.846   2.859
31763WAT      O95530   5.045   1.070   5.245
31763WAT     H195531   5.064   1.043   5.339
31763WAT     H295532   5.122   1.122   5.209
31764WAT      O95533   0.207   5.108   3.947
31764WAT     H195534   0.163   5.120   4.036
31764WAT     H295535   0.167   5.028   3.901
31765WAT      O95536   7.348   2.395   6.254
31765WAT     H195537   7.430   2.373   6.202
31765WAT     H295538   7.304   2.475   6.214
31766WAT      O95539   3.748   7.590   1.344
31766WAT     H195540   3.786   7.498   1.355
31766WAT     H295541   3.745   7.613   1.247
31767WAT      O95542   9.564   9.162   6.557
31767WAT     H195543   9.623   9.154   6.638
31767WAT     H295544   9.471   9.134   6.580
31768WAT      O95545   2.825   8.439   2.827
31768WAT     H195546   2.817   8.510   2.898
31768WAT     H295547   2.919   8.437   2.792
31769WAT      O95548   8.609   0.357   9.636
31769WAT     H195549   8.624   0.374   9.539
31769WAT     H295550   8.558   0.271   9.648
31770WAT      O95551   2.720   4.860   4.306
31770WAT     H195552   2.702   4.782   4.366
31770WAT     H295553   2.634   4.897   4.272
31771WAT      O95554   1.496   8.015   7.916
31771WAT     H195555   1.559   7.938   7.924
31771WAT     H295556   1.475   8.031   7.819
31772WAT      O95557   3.723   2.064   6.578
31772WAT     H195558   3.783   2.004   6.631
31772WAT     H295559   3.685   2.135   6.637
31773WAT      O95560   8.028   4.456   9.669
31773WAT     H195561   7.998   4.516   9.744
31773WAT     H295562   7.953   4.445   9.604
31774WAT      O95563   5.455   1.678   9.739
31774WAT     H195564   5.485   1.756   9.793
31774WAT     H295565   5.486   1.593   9.783
31775WAT      O95566   7.432   7.981   5.224
31775WAT     H195567   7.469   7.927   5.299
31775WAT     H295568   7.451   8.078   5.240
31776WAT      O95569   9.472   5.294   9.092
31776WAT     H195570   9.418   5.296   9.008
31776WAT     H295571   9.417   5.327   9.168
31777WAT      O95572   1.317   7.089   7.080
31777WAT     H195573   1.336   7.182   7.049
31777WAT     H295574   1.238   7.091   7.142
31778WAT      O95575   9.120   8.151   6.911
31778WAT     H195576   9.108   8.061   6.952
31778WAT     H295577   9.177   8.144   6.829
31779WAT      O95578   6.835   3.647   1.771
31779WAT     H195579   6.878   3.670   1.684
31779WAT     H295580   6.735   3.649   1.760
31780WAT      O95581   6.632   7.010   6.443
31780WAT     H195582   6.578   7.006   6.359
31780WAT     H295583   6.640   6.919   6.482
31781WAT      O95584   5.051   3.483   9.052
31781WAT     H195585   5.104   3.534   9.119
31781WAT     H295586   4.960   3.463   9.090
31782WAT      O95587   1.010   3.474   4.596
31782WAT     H195588   0.974   3.470   4.502
31782WAT     H295589   0.934   3.474   4.661
31783WAT      O95590   4.832   7.992   8.411
31783WAT     H195591   4.780   8.066   8.371
31783WAT     H295592   4.876   7.938   8.339
31784WAT      O95593   6.411   6.798   6.981
31784WAT     H195594   6.458   6.711   6.962
31784WAT     H295595   6.421   6.859   6.902
31785WAT      O95596   7.337   2.101   8.696
31785WAT     H195597   7.252   2.132   8.654
31785WAT     H295598   7.320   2.018   8.748
31786WAT      O95599   1.429   4.674   8.035
31786WAT     H195600   1.381   4.620   7.966
31786WAT     H295601   1.484   4.613   8.093
31787WAT      O95602   5.714   8.101   6.695
31787WAT     H195603   5.748   8.193   6.676
31787WAT     H295604   5.792   8.040   6.711
31788WAT      O95605   6.570   8.673   5.898
31788WAT     H195606   6.572   8.576   5.919
31788WAT     H295607   6.650   8.697   5.843
31789WAT      O95608   9.592   3.582   2.883
31789WAT     H195609   9.592   3.598   2.784
31789WAT     H295610   9.557   3.490   2.902
31790WAT      O95611   4.027   3.566   0.456
31790WAT     H195612   4.070   3.607   0.376
31790WAT     H295613   3.989   3.638   0.514
31791WAT      O95614   5.826   9.425   3.259
31791WAT     H195615   5.779   9.433   3.171
31791WAT     H295616   5.880   9.341   3.260
31792WAT      O95617   9.524   4.699   5.564
31792WAT     H195618   9.534   4.600   5.573
31792WAT     H295619   9.435   4.728   5.600
31793WAT      O95620   9.688   6.105   7.854
31793WAT     H195621   9.659   6.076   7.945
31793WAT     H295622   9.626   6.176   7.821
31794WAT      O95623   8.250   7.454   5.393
31794WAT     H195624   8.340   7.498   5.391
31794WAT     H295625   8.240   7.402   5.478
31795WAT      O95626   0.331   9.486   1.498
31795WAT     H195627   0.326   9.486   1.598
31795WAT     H295628   0.388   9.410   1.467
31796WAT      O95629   2.603   0.136   4.832
31796WAT     H195630   2.601   0.218   4.775
31796WAT     H295631   2.596   0.161   4.928
31797WAT      O95632   1.771   0.061   5.220
31797WAT     H195633   1.866   0.093   5.228
31797WAT     H295634   1.740   0.072   5.126
31798WAT      O95635   9.867   9.219   0.019
31798WAT     H195636   9.868   9.170   0.106
31798WAT     H295637   9.852   9.155  -0.056
31799WAT      O95638   8.037   2.989   6.897
31799WAT     H195639   8.045   3.013   6.994
31799WAT     H295640   7.948   2.946   6.881
31800WAT      O95641   0.130   8.918   4.810
31800WAT     H195642   0.064   8.966   4.752
31800WAT     H295643   0.117   8.819   4.801
31801WAT      O95644   0.166   5.562   5.674
31801WAT     H195645   0.253   5.517   5.697
31801WAT     H295646   0.185   5.646   5.623
31802WAT      O95647   4.825   0.558   2.046
31802WAT     H195648   4.868   0.598   1.965
31802WAT     H295649   4.783   0.631   2.101
31803WAT      O95650   6.393   6.574   4.828
31803WAT     H195651   6.415   6.569   4.926
31803WAT     H295652   6.417   6.488   4.784
31804WAT      O95653   8.087   3.229   5.483
31804WAT     H195654   8.002   3.179   5.497
31804WAT     H295655   8.108   3.283   5.565
31805WAT      O95656   8.274   1.038   8.293
31805WAT     H195657   8.347   1.032   8.225
31805WAT     H295658   8.314   1.047   8.384
31806WAT      O95659   3.964   3.500   3.130
31806WAT     H195660   4.021   3.545   3.061
31806WAT     H295661   4.022   3.450   3.194
31807WAT      O95662   3.051   5.837   0.471
31807WAT     H195663   3.001   5.916   0.435
31807WAT     H295664   3.050   5.839   0.571
31808WAT      O95665   8.175   6.176   3.826
31808WAT     H195666   8.143   6.270   3.815
31808WAT     H295667   8.266   6.167   3.784
31809WAT      O95668   7.184   9.469   0.207
31809WAT     H195669   7.196   9.420   0.120
31809WAT     H295670   7.134   9.554   0.189
31810WAT      O95671   1.617   9.331   3.575
31810WAT     H195672   1.559   9.250   3.575
31810WAT     H295673   1.560   9.413   3.569
31811WAT      O95674   4.121   3.024   7.733
31811WAT     H195675   4.059   2.996   7.660
31811WAT     H295676   4.069   3.041   7.816
31812WAT      O95677   8.895   8.379   9.110
31812WAT     H195678   8.985   8.365   9.069
31812WAT     H295679   8.905   8.393   9.209
31813WAT      O95680   3.896   2.514   6.967
31813WAT     H195681   3.923   2.426   7.006
31813WAT     H295682   3.854   2.499   6.877
31814WAT      O95683   5.379   8.090   2.230
31814WAT     H195684   5.340   8.035   2.303
31814WAT     H295685   5.314   8.096   2.154
31815WAT      O95686   3.883   7.559   0.443
31815WAT     H195687   3.968   7.609   0.461
31815WAT     H295688   3.832   7.605   0.370
31816WAT      O95689   4.747   4.296   3.566
31816WAT     H195690   4.844   4.283   3.588
31816WAT     H295691   4.736   4.383   3.517
31817WAT      O95692   0.609   2.425   0.130
31817WAT     H195693   0.671   2.502   0.142
31817WAT     H295694   0.662   2.341   0.119
31818WAT      O95695   4.862   9.570   9.583
31818WAT     H195696   4.939   9.627   9.613
31818WAT     H295697   4.887   9.519   9.501
31819WAT      O95698   7.037   8.507   2.467
31819WAT     H195699   7.083   8.452   2.397
31819WAT     H295700   6.940   8.515   2.444
31820WAT      O95701   0.656   3.749   8.789
31820WAT     H195702   0.660   3.844   8.757
31820WAT     H295703   0.749   3.715   8.803
31821WAT      O95704   1.931   2.581   1.958
31821WAT     H195705   1.974   2.524   1.888
31821WAT     H295706   1.841   2.610   1.926
31822WAT      O95707   9.331   6.911   3.064
31822WAT     H195708   9.366   6.899   2.971
31822WAT     H295709   9.250   6.855   3.077
31823WAT      O95710   1.503   4.178   9.575
31823WAT     H195711   1.469   4.107   9.513
31823WAT     H295712   1.573   4.232   9.529
31824WAT      O95713   0.365   9.781   3.961
31824WAT     H195714   0.418   9.814   4.039
31824WAT     H295715   0.376   9.682   3.952
31825WAT      O95716   7.064   1.586   2.316
31825WAT     H195717   7.093   1.491   2.313
31825WAT     H295718   6.974   1.593   2.360
31826WAT      O95719   5.674   1.600   4.054
31826WAT     H195720   5.651   1.540   4.130
31826WAT     H295721   5.604   1.592   3.982
31827WAT      O95722   5.234   8.512   3.335
31827WAT     H195723   5.269   8.603   3.357
31827WAT     H295724   5.283   8.443   3.388
31828WAT      O95725   0.818   2.357   1.411
31828WAT     H195726   0.740   2.304   1.443
31828WAT     H295727   0.821   2.355   1.311
31829WAT      O95728   5.330   2.976   8.888
31829WAT     H195729   5.252   2.981   8.825
31829WAT     H295730   5.312   2.907   8.957
31830WAT      O95731   4.970   3.274   0.365
31830WAT     H195732   4.902   3.326   0.314
31830WAT     H295733   5.030   3.337   0.415
31831WAT      O95734   8.610   1.212   8.016
31831WAT     H195735   8.593   1.272   8.094
31831WAT     H295736   8.525   1.198   7.965
31832WAT      O95737   3.588   0.296   8.732
31832WAT     H195738   3.663   0.237   8.701
31832WAT     H295739   3.624   0.386   8.756
31833WAT      O95740   4.440   4.453   5.492
31833WAT     H195741   4.494   4.490   5.416
31833WAT     H295742   4.492   4.460   5.577
31834WAT      O95743   5.408   7.341   3.356
31834WAT     H195744   5.394   7.252   3.400
31834WAT     H295745   5.325   7.367   3.308
31835WAT      O95746   8.369   1.789   1.484
31835WAT     H195747   8.297   1.757   1.423
31835WAT     H295748   8.423   1.860   1.437
31836WAT      O95749   3.215   2.257   8.849
31836WAT     H195750   3.245   2.352   8.861
31836WAT     H295751   3.211   2.235   8.752
31837WAT      O95752   5.981   0.930   0.870
31837WAT     H195753   6.046   0.881   0.812
31837WAT     H295754   5.974   1.025   0.841
31838WAT      O95755   6.979   4.777   0.515
31838WAT     H195756   6.906   4.731   0.564
31838WAT     H295757   7.067   4.736   0.540
31839WAT      O95758   7.120   9.459   5.174
31839WAT     H195759   7.164   9.546   5.198
31839WAT     H295760   7.026   9.476   5.145
31840WAT      O95761   8.657   5.453   8.536
31840WAT     H195762   8.726   5.482   8.469
31840WAT     H295763   8.702   5.428   8.621
31841WAT      O95764   5.700   3.272   9.467
31841WAT     H195765   5.702   3.181   9.423
31841WAT     H295766   5.606   3.296   9.489
31842WAT      O95767   0.466   6.325   2.512
31842WAT     H195768   0.498   6.238   2.473
31842WAT     H295769   0.488   6.400   2.450
31843WAT      O95770   2.644   1.442   2.411
31843WAT     H195771   2.589   1.497   2.474
31843WAT     H295772   2.592   1.360   2.385
31844WAT      O95773   5.009   6.750   8.777
31844WAT     H195774   5.105   6.778   8.764
31844WAT     H295775   4.949   6.809   8.724
31845WAT      O95776   6.323   7.543   0.935
31845WAT     H195777   6.271   7.626   0.955
31845WAT     H295778   6.276   7.464   0.974
31846WAT      O95779   0.050   7.650   4.527
31846WAT     H195780  -0.039   7.696   4.523
31846WAT     H295781   0.043   7.560   4.483
31847WAT      O95782   9.428   9.235   7.705
31847WAT     H195783   9.329   9.245   7.710
31847WAT     H295784   9.472   9.320   7.734
31848WAT      O95785   5.150   6.074   6.046
31848WAT     H195786   5.221   6.090   6.113
31848WAT     H295787   5.084   6.149   6.049
31849WAT      O95788   7.959   2.345   9.380
31849WAT     H195789   7.952   2.356   9.281
31849WAT     H295790   7.937   2.251   9.405
31850WAT      O95791   3.594   9.404   0.084
31850WAT     H195792   3.688   9.372   0.070
31850WAT     H295793   3.595   9.496   0.123
31851WAT      O95794   5.716   0.289   5.678
31851WAT     H195795   5.778   0.325   5.748
31851WAT     H295796   5.759   0.297   5.588
31852WAT      O95797   1.478   3.863   6.402
31852WAT     H195798   1.435   3.773   6.413
31852WAT     H295799   1.561   3.853   6.346
31853WAT      O95800   5.646   4.960   2.582
31853WAT     H195801   5.603   4.900   2.650
31853WAT     H295802   5.610   5.052   2.592
31854WAT      O95803   7.958   4.391   6.895
31854WAT     H195804   7.993   4.303   6.928
31854WAT     H295805   7.889   4.425   6.958
31855WAT      O95806   6.229   8.826   9.815
31855WAT     H195807   6.192   8.858   9.902
31855WAT     H295808   6.273   8.737   9.828
31856WAT      O95809   5.917   2.137   1.041
31856WAT     H195810   5.920   2.060   0.977
31856WAT     H295811   5.976   2.118   1.119
31857WAT      O95812   9.755   3.506   7.570
31857WAT     H195813   9.681   3.573   7.562
31857WAT     H295814   9.717   3.418   7.600
31858WAT      O95815   4.117   0.540   9.796
31858WAT     H195816   4.020   0.563   9.799
31858WAT     H295817   4.163   0.583   9.874
31859WAT      O95818   3.025   2.867   1.546
31859WAT     H195819   2.980   2.920   1.618
31859WAT     H295820   3.045   2.926   1.469
31860WAT      O95821   3.480   5.404   1.168
31860WAT     H195822   3.448   5.428   1.076
31860WAT     H295823   3.453   5.474   1.233
31861WAT      O95824   8.975   4.993   4.240
31861WAT     H195825   8.965   4.893   4.232
31861WAT     H295826   9.006   5.030   4.153
31862WAT      O95827   0.388   8.111   0.172
31862WAT     H195828   0.448   8.191   0.171
31862WAT     H295829   0.348   8.098   0.081
31863WAT      O95830   6.610   2.349   7.520
31863WAT     H195831   6.662   2.411   7.579
31863WAT     H295832   6.541   2.400   7.470
31864WAT      O95833   2.452   6.634   0.305
31864WAT     H195834   2.388   6.557   0.303
31864WAT     H295835   2.530   6.611   0.363
31865WAT      O95836   4.644   7.893   4.574
31865WAT     H195837   4.552   7.888   4.535
31865WAT     H295838   4.692   7.972   4.537
31866WAT      O95839   7.946   6.604   2.577
31866WAT     H195840   7.922   6.700   2.591
31866WAT     H295841   7.880   6.562   2.515
31867WAT      O95842   2.032   5.158   9.240
31867WAT     H195843   2.106   5.117   9.187
31867WAT     H295844   1.961   5.193   9.179
31868WAT      O95845   4.233   2.111   4.899
31868WAT     H195846   4.147   2.072   4.931
31868WAT     H295847   4.214   2.192   4.842
31869WAT      O95848   1.452   7.568   1.909
31869WAT     H195849   1.389   7.626   1.962
31869WAT     H295850   1.525   7.625   1.872
31870WAT      O95851   3.807   5.377   0.945
31870WAT     H195852   3.875   5.333   0.886
31870WAT     H295853   3.854   5.425   1.019
31871WAT      O95854   6.537   5.718   6.499
31871WAT     H195855   6.610   5.667   6.454
31871WAT     H295856   6.567   5.747   6.590
31872WAT      O95857   8.371   5.263   9.301
31872WAT     H195858   8.370   5.276   9.400
31872WAT     H295859   8.421   5.179   9.279
31873WAT      O95860   1.364   4.667   5.458
31873WAT     H195861   1.296   4.658   5.531
31873WAT     H295862   1.446   4.712   5.495
31874WAT      O95863   7.923   8.523   4.888
31874WAT     H195864   7.858   8.586   4.846
31874WAT     H295865   7.951   8.454   4.820
31875WAT      O95866   9.131   1.158   1.605
31875WAT     H195867   9.203   1.147   1.537
31875WAT     H295868   9.131   1.252   1.639
31876WAT      O95869   2.171   0.029   4.651
31876WAT     H195870   2.218  -0.039   4.594
31876WAT     H295871   2.234   0.062   4.721
31877WAT      O95872   5.432   8.933   0.222
31877WAT     H195873   5.394   8.924   0.314
31877WAT     H295874   5.371   8.987   0.165
31878WAT      O95875   0.871   6.795   0.224
31878WAT     H195876   0.907   6.792   0.131
31878WAT     H295877   0.941   6.834   0.285
31879WAT      O95878   6.750   5.540   6.961
31879WAT     H195879   6.704   5.481   7.027
31879WAT     H295880   6.807   5.606   7.009
31880WAT      O95881   7.713   2.774   9.650
31880WAT     H195882   7.704   2.771   9.551
31880WAT     H295883   7.801   2.734   9.677
31881WAT      O95884   5.985   8.067   6.484
31881WAT     H195885   5.920   8.142   6.494
31881WAT     H295886   6.015   8.037   6.575
31882WAT      O95887   4.386   4.414   8.206
31882WAT     H195888   4.365   4.511   8.218
31882WAT     H295889   4.302   4.364   8.182
31883WAT      O95890   5.325   3.416   2.490
31883WAT     H195891   5.409   3.376   2.455
31883WAT     H295892   5.310   3.506   2.448
31884WAT      O95893   7.313   7.415   8.427
31884WAT     H195894   7.275   7.410   8.520
31884WAT     H295895   7.351   7.506   8.411
31885WAT      O95896   0.790   7.644   7.309
31885WAT     H195897   0.715   7.698   7.348
31885WAT     H295898   0.758   7.594   7.229
31886WAT      O95899   3.614   3.031   0.769
31886WAT     H195900   3.561   3.039   0.685
31886WAT     H295901   3.698   2.979   0.751
31887WAT      O95902   5.073   7.515   8.100
31887WAT     H195903   5.112   7.600   8.135
31887WAT     H295904   5.003   7.482   8.162
31888WAT      O95905   4.162   1.524   4.251
31888WAT     H195906   4.166   1.514   4.151
31888WAT     H295907   4.202   1.611   4.278
31889WAT      O95908   7.635   2.245   5.145
31889WAT     H195909   7.626   2.258   5.046
31889WAT     H295910   7.697   2.168   5.163
31890WAT      O95911   3.742   2.452   0.428
31890WAT     H195912   3.790   2.365   0.438
31890WAT     H295913   3.689   2.451   0.343
31891WAT      O95914   8.882   1.630   5.619
31891WAT     H195915   8.877   1.554   5.684
31891WAT     H295916   8.889   1.595   5.526
31892WAT      O95917   8.736   1.638   9.127
31892WAT     H195918   8.682   1.560   9.092
31892WAT     H295919   8.833   1.613   9.127
31893WAT      O95920   0.196   4.806   3.538
31893WAT     H195921   0.203   4.790   3.440
31893WAT     H295922   0.106   4.843   3.560
31894WAT      O95923   3.609   4.718   4.045
31894WAT     H195924   3.526   4.730   4.100
31894WAT     H295925   3.689   4.749   4.097
31895WAT      O95926   5.068   9.805   3.870
31895WAT     H195927   4.990   9.792   3.809
31895WAT     H295928   5.049   9.762   3.958
31896WAT      O95929   3.344   7.341   5.022
31896WAT     H195930   3.280   7.311   5.092
31896WAT     H295931   3.384   7.429   5.049
31897WAT      O95932   3.310   8.734   8.512
31897WAT     H195933   3.356   8.773   8.433
31897WAT     H295934   3.344   8.778   8.595
31898WAT      O95935   5.498   5.869   5.400
31898WAT     H195936   5.473   5.869   5.496
31898WAT     H295937   5.442   5.936   5.351
31899WAT      O95938   9.353   6.178   3.461
31899WAT     H195939   9.306   6.131   3.386
31899WAT     H295940   9.376   6.111   3.532
   9.88928    9.84380    9.89279 
