%VERSION  VERSION_STAMP = V0001.000  DATE = 04/01/25 16:30:18                  
%FLAG TITLE                                                                     
%FORMAT(20a4)                                                                   
default_name                                                                    
%FLAG POINTERS                                                                  
%FORMAT(10I8)                                                                   
     876      16     227     515     521     805    1175    1581       0       0
    4032     211     515     805    1581      40      81      57      30       0
       0       0       0       0       0       0       0       1      35       0
       0
%FLAG ATOM_NAME                                                                 
%FORMAT(20a4)                                                                   
HO5'O5' C5' H5' H5''C4' H4' O4' C1' H1' N9  C8  H8  N7  C5  C6  O6  N1  H1  C2  
N2  H21 H22 N3  C4  C3' H3' C2' H2' O2' HO2'O3' P   OP1 OP2 O5' C5' H5' H5''C4' 
H4' O4' C1' H1' N9  C8  H8  N7  C5  C6  O6  N1  H1  C2  N2  H21 H22 N3  C4  C3' 
H3' C2' H2' O2' HO2'O3' P   OP1 OP2 O5' C5' H5' H5''C4' H4' O4' C1' H1' N9  C8  
H8  N7  C5  C6  O6  N1  H1  C2  N2  H21 H22 N3  C4  C3' H3' C2' H2' O2' HO2'O3' 
P   OP1 OP2 O5' C5' H5' H5''C4' H4' O4' C1' H1' N1  C6  H6  C5  H5  C4  O4  N3  
H3  C2  O2  C3' H3' C2' H2' O2' HO2'O3' P   OP1 OP2 O5' C5' H5' H5''C4' H4' O4' 
C1' H1' N1  C6  H6  C5  H5  C4  O4  N3  H3  C2  O2  C3' H3' C2' H2' O2' HO2'O3' 
P   OP1 OP2 O5' C5' H5' H5''C4' H4' O4' C1' H1' N9  C8  H8  N7  C5  C6  N6  H61 
H62 N1  C2  H2  N3  C4  C3' H3' C2' H2' O2' HO2'O3' P   OP1 OP2 O5' C5' H5' H5''
C4' H4' O4' C1' H1' N9  C8  H8  N7  C5  C6  O6  N1  H1  C2  N2  H21 H22 N3  C4  
C3' H3' C2' H2' O2' HO2'O3' P   OP1 OP2 O5' C5' H5' H5''C4' H4' O4' C1' H1' N9  
C8  H8  N7  C5  C6  O6  N1  H1  C2  N2  H21 H22 N3  C4  C3' H3' C2' H2' O2' HO2'
O3' P   OP1 OP2 O5' C5' H5' H5''C4' H4' O4' C1' H1' N9  C8  H8  N7  C5  C6  O6  
N1  H1  C2  N2  H21 H22 N3  C4  C3' H3' C2' H2' O2' HO2'O3' P   OP1 OP2 O5' C5' 
H5' H5''C4' H4' O4' C1' H1' N1  C6  H6  C5  H5  C4  O4  N3  H3  C2  O2  C3' H3' 
C2' H2' O2' HO2'O3' P   OP1 OP2 O5' C5' H5' H5''C4' H4' O4' C1' H1' N1  C6  H6  
C5  H5  C4  O4  N3  H3  C2  O2  C3' H3' C2' H2' O2' HO2'O3' P   OP1 OP2 O5' C5' 
H5' H5''C4' H4' O4' C1' H1' N9  C8  H8  N7  C5  C6  N6  H61 H62 N1  C2  H2  N3  
C4  C3' H3' C2' H2' O2' HO2'O3' P   OP1 OP2 O5' C5' H5' H5''C4' H4' O4' C1' H1' 
N9  C8  H8  N7  C5  C6  O6  N1  H1  C2  N2  H21 H22 N3  C4  C3' H3' C2' H2' O2' 
HO2'O3' P   OP1 OP2 O5' C5' H5' H5''C4' H4' O4' C1' H1' N9  C8  H8  N7  C5  C6  
O6  N1  H1  C2  N2  H21 H22 N3  C4  C3' H3' C2' H2' O2' HO2'O3' P   OP1 OP2 O5' 
C5' H5' H5''C4' H4' O4' C1' H1' N9  C8  H8  N7  C5  C6  O6  N1  H1  C2  N2  H21 
H22 N3  C4  C3' H3' C2' H2' O2' HO2'O3' P   OP1 OP2 O5' C5' H5' H5''C4' H4' O4' 
C1' H1' N1  C6  H6  C5  H5  C4  O4  N3  H3  C2  O2  C3' H3' C2' H2' O2' HO2'O3' 
P   OP1 OP2 O5' C5' H5' H5''C4' H4' O4' C1' H1' N1  C6  H6  C5  H5  C4  O4  N3  
H3  C2  O2  C3' H3' C2' H2' O2' HO2'O3' P   OP1 OP2 O5' C5' H5' H5''C4' H4' O4' 
C1' H1' N9  C8  H8  N7  C5  C6  N6  H61 H62 N1  C2  H2  N3  C4  C3' H3' C2' H2' 
O2' HO2'O3' P   OP1 OP2 O5' C5' H5' H5''C4' H4' O4' C1' H1' N9  C8  H8  N7  C5  
C6  O6  N1  H1  C2  N2  H21 H22 N3  C4  C3' H3' C2' H2' O2' HO2'O3' P   OP1 OP2 
O5' C5' H5' H5''C4' H4' O4' C1' H1' N9  C8  H8  N7  C5  C6  O6  N1  H1  C2  N2  
H21 H22 N3  C4  C3' H3' C2' H2' O2' HO2'O3' P   OP1 OP2 O5' C5' H5' H5''C4' H4' 
O4' C1' H1' N9  C8  H8  N7  C5  C6  O6  N1  H1  C2  N2  H21 H22 N3  C4  C3' H3' 
C2' H2' O2' HO2'O3' HO3'Cl- Cl- Cl- Cl- Cl- Cl- Cl- Cl- Cl- Cl- Cl- Cl- Cl- Cl- 
Cl- Cl- Cl- Cl- Cl- Cl- Cl- Cl- Cl- Cl- Cl- Cl- Cl- Cl- Cl- Cl- Cl- Cl- Cl- Cl- 
Cl- Cl- Cl- Cl- Cl- Cl- Cl- Cl- Cl- Cl- Cl- Cl- Cl- Cl- Cl- Cl- Cl- Cl- Cl- Cl- 
Cl- Cl- Cl- Cl- Cl- Cl- Cl- Cl- Cl- Cl- Cl- Cl- Cl- Cl- Cl- Cl- Cl- Cl- Cl- Cl- 
Cl- Cl- Cl- Cl- Cl- Cl- Cl- Cl- Cl- Cl- Cl- K+  K+  K+  K+  K+  K+  K+  K+  K+  
K+  K+  K+  K+  K+  K+  K+  K+  K+  K+  K+  K+  K+  K+  K+  K+  K+  K+  K+  K+  
K+  K+  K+  K+  K+  K+  K+  K+  K+  K+  K+  K+  K+  K+  K+  K+  K+  K+  K+  K+  
K+  K+  K+  K+  K+  K+  K+  K+  K+  K+  K+  K+  K+  K+  K+  K+  K+  K+  K+  K+  
K+  K+  K+  K+  K+  K+  K+  K+  K+  K+  K+  K+  K+  K+  K+  K+  K+  K+  K+  K+  
K+  K+  K+  K+  K+  K+  K+  K+  K+  K+  K+  K+  K+  K+  K+  K+  
%FLAG CHARGE                                                                    
%FORMAT(5E16.8)                                                                 
  7.82647785E+00 -1.13397373E+01  1.01680434E+00  1.23729417E+00  1.23729417E+00
  1.94067495E+00  2.13929802E+00 -6.46527204E+00  3.48045930E-01  3.65539338E+00
  8.96537160E-01  2.50374402E+00  2.98845720E+00 -1.04031111E+01  3.17796912E+00
  8.69203710E+00 -1.01990213E+01 -8.72301501E+00  6.23931552E+00  1.39528151E+01
 -1.76246086E+01  7.95221172E+00  7.95221172E+00 -1.15219603E+01  2.22676506E+00
  3.68454906E+00  1.12067145E+00  1.22089410E+00  1.77120756E+00 -1.11866700E+01
  7.62785478E+00 -9.55941858E+00  2.12508463E+01 -1.41405048E+01 -1.41405048E+01
 -9.09110547E+00  1.01680434E+00  1.23729417E+00  1.23729417E+00  1.94067495E+00
  2.13929802E+00 -6.46527204E+00  3.48045930E-01  3.65539338E+00  8.96537160E-01
  2.50374402E+00  2.98845720E+00 -1.04031111E+01  3.17796912E+00  8.69203710E+00
 -1.01990213E+01 -8.72301501E+00  6.23931552E+00  1.39528151E+01 -1.76246086E+01
  7.95221172E+00  7.95221172E+00 -1.15219603E+01  2.22676506E+00  3.68454906E+00
  1.12067145E+00  1.22089410E+00  1.77120756E+00 -1.11866700E+01  7.62785478E+00
 -9.55941858E+00  2.12508463E+01 -1.41405048E+01 -1.41405048E+01 -9.09110547E+00
  1.01680434E+00  1.23729417E+00  1.23729417E+00  1.94067495E+00  2.13929802E+00
 -6.46527204E+00  3.48045930E-01  3.65539338E+00  8.96537160E-01  2.50374402E+00
  2.98845720E+00 -1.04031111E+01  3.17796912E+00  8.69203710E+00 -1.01990213E+01
 -8.72301501E+00  6.23931552E+00  1.39528151E+01 -1.76246086E+01  7.95221172E+00
  7.95221172E+00 -1.15219603E+01  2.22676506E+00  3.68454906E+00  1.12067145E+00
  1.22089410E+00  1.77120756E+00 -1.11866700E+01  7.62785478E+00 -9.55941858E+00
  2.12508463E+01 -1.41405048E+01 -1.41405048E+01 -9.09110547E+00  1.01680434E+00
  1.23729417E+00  1.23729417E+00  1.94067495E+00  2.13929802E+00 -6.46527204E+00
  1.22818302E+00  3.32374752E+00  7.61692140E-01 -2.05183098E+00  3.98703924E+00
 -6.62380605E+00  3.30005853E+00  1.08459130E+01 -1.04978670E+01 -6.46709427E+00
  5.74731342E+00  8.54079201E+00 -9.98035371E+00  3.68454906E+00  1.12067145E+00
  1.22089410E+00  1.77120756E+00 -1.11866700E+01  7.62785478E+00 -9.55941858E+00
  2.12508463E+01 -1.41405048E+01 -1.41405048E+01 -9.09110547E+00  1.01680434E+00
  1.23729417E+00  1.23729417E+00  1.94067495E+00  2.13929802E+00 -6.46527204E+00
  1.22818302E+00  3.32374752E+00  7.61692140E-01 -2.05183098E+00  3.98703924E+00
 -6.62380605E+00  3.30005853E+00  1.08459130E+01 -1.04978670E+01 -6.46709427E+00
  5.74731342E+00  8.54079201E+00 -9.98035371E+00  3.68454906E+00  1.12067145E+00
  1.22089410E+00  1.77120756E+00 -1.11866700E+01  7.62785478E+00 -9.55941858E+00
  2.12508463E+01 -1.41405048E+01 -1.41405048E+01 -9.09110547E+00  1.01680434E+00
  1.23729417E+00  1.23729417E+00  1.94067495E+00  2.13929802E+00 -6.46527204E+00
  7.17958620E-01  3.65721561E+00 -4.57379730E-01  3.65539338E+00  2.82992319E+00
 -1.10664028E+01  9.38448450E-01  1.27720101E+01 -1.64346924E+01  7.49847645E+00
  7.49847645E+00 -1.38762815E+01  1.07056013E+01  8.61914790E-01 -1.27501433E+01
  5.56326819E+00  3.68454906E+00  1.12067145E+00  1.22089410E+00  1.77120756E+00
 -1.11866700E+01  7.62785478E+00 -9.55941858E+00  2.12508463E+01 -1.41405048E+01
 -1.41405048E+01 -9.09110547E+00  1.01680434E+00  1.23729417E+00  1.23729417E+00
  1.94067495E+00  2.13929802E+00 -6.46527204E+00  3.48045930E-01  3.65539338E+00
  8.96537160E-01  2.50374402E+00  2.98845720E+00 -1.04031111E+01  3.17796912E+00
  8.69203710E+00 -1.01990213E+01 -8.72301501E+00  6.23931552E+00  1.39528151E+01
 -1.76246086E+01  7.95221172E+00  7.95221172E+00 -1.15219603E+01  2.22676506E+00
  3.68454906E+00  1.12067145E+00  1.22089410E+00  1.77120756E+00 -1.11866700E+01
  7.62785478E+00 -9.55941858E+00  2.12508463E+01 -1.41405048E+01 -1.41405048E+01
 -9.09110547E+00  1.01680434E+00  1.23729417E+00  1.23729417E+00  1.94067495E+00
  2.13929802E+00 -6.46527204E+00  3.48045930E-01  3.65539338E+00  8.96537160E-01
  2.50374402E+00  2.98845720E+00 -1.04031111E+01  3.17796912E+00  8.69203710E+00
 -1.01990213E+01 -8.72301501E+00  6.23931552E+00  1.39528151E+01 -1.76246086E+01
  7.95221172E+00  7.95221172E+00 -1.15219603E+01  2.22676506E+00  3.68454906E+00
  1.12067145E+00  1.22089410E+00  1.77120756E+00 -1.11866700E+01  7.62785478E+00
 -9.55941858E+00  2.12508463E+01 -1.41405048E+01 -1.41405048E+01 -9.09110547E+00
  1.01680434E+00  1.23729417E+00  1.23729417E+00  1.94067495E+00  2.13929802E+00
 -6.46527204E+00  3.48045930E-01  3.65539338E+00  8.96537160E-01  2.50374402E+00
  2.98845720E+00 -1.04031111E+01  3.17796912E+00  8.69203710E+00 -1.01990213E+01
 -8.72301501E+00  6.23931552E+00  1.39528151E+01 -1.76246086E+01  7.95221172E+00
  7.95221172E+00 -1.15219603E+01  2.22676506E+00  3.68454906E+00  1.12067145E+00
  1.22089410E+00  1.77120756E+00 -1.11866700E+01  7.62785478E+00 -9.55941858E+00
  2.12508463E+01 -1.41405048E+01 -1.41405048E+01 -9.09110547E+00  1.01680434E+00
  1.23729417E+00  1.23729417E+00  1.94067495E+00  2.13929802E+00 -6.46527204E+00
  1.22818302E+00  3.32374752E+00  7.61692140E-01 -2.05183098E+00  3.98703924E+00
 -6.62380605E+00  3.30005853E+00  1.08459130E+01 -1.04978670E+01 -6.46709427E+00
  5.74731342E+00  8.54079201E+00 -9.98035371E+00  3.68454906E+00  1.12067145E+00
  1.22089410E+00  1.77120756E+00 -1.11866700E+01  7.62785478E+00 -9.55941858E+00
  2.12508463E+01 -1.41405048E+01 -1.41405048E+01 -9.09110547E+00  1.01680434E+00
  1.23729417E+00  1.23729417E+00  1.94067495E+00  2.13929802E+00 -6.46527204E+00
  1.22818302E+00  3.32374752E+00  7.61692140E-01 -2.05183098E+00  3.98703924E+00
 -6.62380605E+00  3.30005853E+00  1.08459130E+01 -1.04978670E+01 -6.46709427E+00
  5.74731342E+00  8.54079201E+00 -9.98035371E+00  3.68454906E+00  1.12067145E+00
  1.22089410E+00  1.77120756E+00 -1.11866700E+01  7.62785478E+00 -9.55941858E+00
  2.12508463E+01 -1.41405048E+01 -1.41405048E+01 -9.09110547E+00  1.01680434E+00
  1.23729417E+00  1.23729417E+00  1.94067495E+00  2.13929802E+00 -6.46527204E+00
  7.17958620E-01  3.65721561E+00 -4.57379730E-01  3.65539338E+00  2.82992319E+00
 -1.10664028E+01  9.38448450E-01  1.27720101E+01 -1.64346924E+01  7.49847645E+00
  7.49847645E+00 -1.38762815E+01  1.07056013E+01  8.61914790E-01 -1.27501433E+01
  5.56326819E+00  3.68454906E+00  1.12067145E+00  1.22089410E+00  1.77120756E+00
 -1.11866700E+01  7.62785478E+00 -9.55941858E+00  2.12508463E+01 -1.41405048E+01
 -1.41405048E+01 -9.09110547E+00  1.01680434E+00  1.23729417E+00  1.23729417E+00
  1.94067495E+00  2.13929802E+00 -6.46527204E+00  3.48045930E-01  3.65539338E+00
  8.96537160E-01  2.50374402E+00  2.98845720E+00 -1.04031111E+01  3.17796912E+00
  8.69203710E+00 -1.01990213E+01 -8.72301501E+00  6.23931552E+00  1.39528151E+01
 -1.76246086E+01  7.95221172E+00  7.95221172E+00 -1.15219603E+01  2.22676506E+00
  3.68454906E+00  1.12067145E+00  1.22089410E+00  1.77120756E+00 -1.11866700E+01
  7.62785478E+00 -9.55941858E+00  2.12508463E+01 -1.41405048E+01 -1.41405048E+01
 -9.09110547E+00  1.01680434E+00  1.23729417E+00  1.23729417E+00  1.94067495E+00
  2.13929802E+00 -6.46527204E+00  3.48045930E-01  3.65539338E+00  8.96537160E-01
  2.50374402E+00  2.98845720E+00 -1.04031111E+01  3.17796912E+00  8.69203710E+00
 -1.01990213E+01 -8.72301501E+00  6.23931552E+00  1.39528151E+01 -1.76246086E+01
  7.95221172E+00  7.95221172E+00 -1.15219603E+01  2.22676506E+00  3.68454906E+00
  1.12067145E+00  1.22089410E+00  1.77120756E+00 -1.11866700E+01  7.62785478E+00
 -9.55941858E+00  2.12508463E+01 -1.41405048E+01 -1.41405048E+01 -9.09110547E+00
  1.01680434E+00  1.23729417E+00  1.23729417E+00  1.94067495E+00  2.13929802E+00
 -6.46527204E+00  3.48045930E-01  3.65539338E+00  8.96537160E-01  2.50374402E+00
  2.98845720E+00 -1.04031111E+01  3.17796912E+00  8.69203710E+00 -1.01990213E+01
 -8.72301501E+00  6.23931552E+00  1.39528151E+01 -1.76246086E+01  7.95221172E+00
  7.95221172E+00 -1.15219603E+01  2.22676506E+00  3.68454906E+00  1.12067145E+00
  1.22089410E+00  1.77120756E+00 -1.11866700E+01  7.62785478E+00 -9.55941858E+00
  2.12508463E+01 -1.41405048E+01 -1.41405048E+01 -9.09110547E+00  1.01680434E+00
  1.23729417E+00  1.23729417E+00  1.94067495E+00  2.13929802E+00 -6.46527204E+00
  1.22818302E+00  3.32374752E+00  7.61692140E-01 -2.05183098E+00  3.98703924E+00
 -6.62380605E+00  3.30005853E+00  1.08459130E+01 -1.04978670E+01 -6.46709427E+00
  5.74731342E+00  8.54079201E+00 -9.98035371E+00  3.68454906E+00  1.12067145E+00
  1.22089410E+00  1.77120756E+00 -1.11866700E+01  7.62785478E+00 -9.55941858E+00
  2.12508463E+01 -1.41405048E+01 -1.41405048E+01 -9.09110547E+00  1.01680434E+00
  1.23729417E+00  1.23729417E+00  1.94067495E+00  2.13929802E+00 -6.46527204E+00
  1.22818302E+00  3.32374752E+00  7.61692140E-01 -2.05183098E+00  3.98703924E+00
 -6.62380605E+00  3.30005853E+00  1.08459130E+01 -1.04978670E+01 -6.46709427E+00
  5.74731342E+00  8.54079201E+00 -9.98035371E+00  3.68454906E+00  1.12067145E+00
  1.22089410E+00  1.77120756E+00 -1.11866700E+01  7.62785478E+00 -9.55941858E+00
  2.12508463E+01 -1.41405048E+01 -1.41405048E+01 -9.09110547E+00  1.01680434E+00
  1.23729417E+00  1.23729417E+00  1.94067495E+00  2.13929802E+00 -6.46527204E+00
  7.17958620E-01  3.65721561E+00 -4.57379730E-01  3.65539338E+00  2.82992319E+00
 -1.10664028E+01  9.38448450E-01  1.27720101E+01 -1.64346924E+01  7.49847645E+00
  7.49847645E+00 -1.38762815E+01  1.07056013E+01  8.61914790E-01 -1.27501433E+01
  5.56326819E+00  3.68454906E+00  1.12067145E+00  1.22089410E+00  1.77120756E+00
 -1.11866700E+01  7.62785478E+00 -9.55941858E+00  2.12508463E+01 -1.41405048E+01
 -1.41405048E+01 -9.09110547E+00  1.01680434E+00  1.23729417E+00  1.23729417E+00
  1.94067495E+00  2.13929802E+00 -6.46527204E+00  3.48045930E-01  3.65539338E+00
  8.96537160E-01  2.50374402E+00  2.98845720E+00 -1.04031111E+01  3.17796912E+00
  8.69203710E+00 -1.01990213E+01 -8.72301501E+00  6.23931552E+00  1.39528151E+01
 -1.76246086E+01  7.95221172E+00  7.95221172E+00 -1.15219603E+01  2.22676506E+00
  3.68454906E+00  1.12067145E+00  1.22089410E+00  1.77120756E+00 -1.11866700E+01
  7.62785478E+00 -9.55941858E+00  2.12508463E+01 -1.41405048E+01 -1.41405048E+01
 -9.09110547E+00  1.01680434E+00  1.23729417E+00  1.23729417E+00  1.94067495E+00
  2.13929802E+00 -6.46527204E+00  3.48045930E-01  3.65539338E+00  8.96537160E-01
  2.50374402E+00  2.98845720E+00 -1.04031111E+01  3.17796912E+00  8.69203710E+00
 -1.01990213E+01 -8.72301501E+00  6.23931552E+00  1.39528151E+01 -1.76246086E+01
  7.95221172E+00  7.95221172E+00 -1.15219603E+01  2.22676506E+00  3.68454906E+00
  1.12067145E+00  1.22089410E+00  1.77120756E+00 -1.11866700E+01  7.62785478E+00
 -9.55941858E+00  2.12508463E+01 -1.41405048E+01 -1.41405048E+01 -9.09110547E+00
  1.01680434E+00  1.23729417E+00  1.23729417E+00  1.94067495E+00  2.13929802E+00
 -6.46527204E+00  3.48045930E-01  3.65539338E+00  8.96537160E-01  2.50374402E+00
  2.98845720E+00 -1.04031111E+01  3.17796912E+00  8.69203710E+00 -1.01990213E+01
 -8.72301501E+00  6.23931552E+00  1.39528151E+01 -1.76246086E+01  7.95221172E+00
  7.95221172E+00 -1.15219603E+01  2.22676506E+00  3.68454906E+00  1.12067145E+00
  1.22089410E+00  1.77120756E+00 -1.11866700E+01  7.62785478E+00 -1.19192064E+01
  7.97407848E+00 -1.82223000E+01 -1.82223000E+01 -1.82223000E+01 -1.82223000E+01
 -1.82223000E+01 -1.82223000E+01 -1.82223000E+01 -1.82223000E+01 -1.82223000E+01
 -1.82223000E+01 -1.82223000E+01 -1.82223000E+01 -1.82223000E+01 -1.82223000E+01
 -1.82223000E+01 -1.82223000E+01 -1.82223000E+01 -1.82223000E+01 -1.82223000E+01
 -1.82223000E+01 -1.82223000E+01 -1.82223000E+01 -1.82223000E+01 -1.82223000E+01
 -1.82223000E+01 -1.82223000E+01 -1.82223000E+01 -1.82223000E+01 -1.82223000E+01
 -1.82223000E+01 -1.82223000E+01 -1.82223000E+01 -1.82223000E+01 -1.82223000E+01
 -1.82223000E+01 -1.82223000E+01 -1.82223000E+01 -1.82223000E+01 -1.82223000E+01
 -1.82223000E+01 -1.82223000E+01 -1.82223000E+01 -1.82223000E+01 -1.82223000E+01
 -1.82223000E+01 -1.82223000E+01 -1.82223000E+01 -1.82223000E+01 -1.82223000E+01
 -1.82223000E+01 -1.82223000E+01 -1.82223000E+01 -1.82223000E+01 -1.82223000E+01
 -1.82223000E+01 -1.82223000E+01 -1.82223000E+01 -1.82223000E+01 -1.82223000E+01
 -1.82223000E+01 -1.82223000E+01 -1.82223000E+01 -1.82223000E+01 -1.82223000E+01
 -1.82223000E+01 -1.82223000E+01 -1.82223000E+01 -1.82223000E+01 -1.82223000E+01
 -1.82223000E+01 -1.82223000E+01 -1.82223000E+01 -1.82223000E+01 -1.82223000E+01
 -1.82223000E+01 -1.82223000E+01 -1.82223000E+01 -1.82223000E+01 -1.82223000E+01
 -1.82223000E+01 -1.82223000E+01 -1.82223000E+01 -1.82223000E+01 -1.82223000E+01
 -1.82223000E+01  1.82223000E+01  1.82223000E+01  1.82223000E+01  1.82223000E+01
  1.82223000E+01  1.82223000E+01  1.82223000E+01  1.82223000E+01  1.82223000E+01
  1.82223000E+01  1.82223000E+01  1.82223000E+01  1.82223000E+01  1.82223000E+01
  1.82223000E+01  1.82223000E+01  1.82223000E+01  1.82223000E+01  1.82223000E+01
  1.82223000E+01  1.82223000E+01  1.82223000E+01  1.82223000E+01  1.82223000E+01
  1.82223000E+01  1.82223000E+01  1.82223000E+01  1.82223000E+01  1.82223000E+01
  1.82223000E+01  1.82223000E+01  1.82223000E+01  1.82223000E+01  1.82223000E+01
  1.82223000E+01  1.82223000E+01  1.82223000E+01  1.82223000E+01  1.82223000E+01
  1.82223000E+01  1.82223000E+01  1.82223000E+01  1.82223000E+01  1.82223000E+01
  1.82223000E+01  1.82223000E+01  1.82223000E+01  1.82223000E+01  1.82223000E+01
  1.82223000E+01  1.82223000E+01  1.82223000E+01  1.82223000E+01  1.82223000E+01
  1.82223000E+01  1.82223000E+01  1.82223000E+01  1.82223000E+01  1.82223000E+01
  1.82223000E+01  1.82223000E+01  1.82223000E+01  1.82223000E+01  1.82223000E+01
  1.82223000E+01  1.82223000E+01  1.82223000E+01  1.82223000E+01  1.82223000E+01
  1.82223000E+01  1.82223000E+01  1.82223000E+01  1.82223000E+01  1.82223000E+01
  1.82223000E+01  1.82223000E+01  1.82223000E+01  1.82223000E+01  1.82223000E+01
  1.82223000E+01  1.82223000E+01  1.82223000E+01  1.82223000E+01  1.82223000E+01
  1.82223000E+01  1.82223000E+01  1.82223000E+01  1.82223000E+01  1.82223000E+01
  1.82223000E+01  1.82223000E+01  1.82223000E+01  1.82223000E+01  1.82223000E+01
  1.82223000E+01  1.82223000E+01  1.82223000E+01  1.82223000E+01  1.82223000E+01
  1.82223000E+01  1.82223000E+01  1.82223000E+01  1.82223000E+01  1.82223000E+01
  1.82223000E+01
%FLAG ATOMIC_NUMBER                                                             
%FORMAT(10I8)                                                                   
       1       8       6       1       1       6       1       8       6       1
       7       6       1       7       6       6       8       7       1       6
       7       1       1       7       6       6       1       6       1       8
       1       8      15       8       8       8       6       1       1       6
       1       8       6       1       7       6       1       7       6       6
       8       7       1       6       7       1       1       7       6       6
       1       6       1       8       1       8      15       8       8       8
       6       1       1       6       1       8       6       1       7       6
       1       7       6       6       8       7       1       6       7       1
       1       7       6       6       1       6       1       8       1       8
      15       8       8       8       6       1       1       6       1       8
       6       1       7       6       1       6       1       6       8       7
       1       6       8       6       1       6       1       8       1       8
      15       8       8       8       6       1       1       6       1       8
       6       1       7       6       1       6       1       6       8       7
       1       6       8       6       1       6       1       8       1       8
      15       8       8       8       6       1       1       6       1       8
       6       1       7       6       1       7       6       6       7       1
       1       7       6       1       7       6       6       1       6       1
       8       1       8      15       8       8       8       6       1       1
       6       1       8       6       1       7       6       1       7       6
       6       8       7       1       6       7       1       1       7       6
       6       1       6       1       8       1       8      15       8       8
       8       6       1       1       6       1       8       6       1       7
       6       1       7       6       6       8       7       1       6       7
       1       1       7       6       6       1       6       1       8       1
       8      15       8       8       8       6       1       1       6       1
       8       6       1       7       6       1       7       6       6       8
       7       1       6       7       1       1       7       6       6       1
       6       1       8       1       8      15       8       8       8       6
       1       1       6       1       8       6       1       7       6       1
       6       1       6       8       7       1       6       8       6       1
       6       1       8       1       8      15       8       8       8       6
       1       1       6       1       8       6       1       7       6       1
       6       1       6       8       7       1       6       8       6       1
       6       1       8       1       8      15       8       8       8       6
       1       1       6       1       8       6       1       7       6       1
       7       6       6       7       1       1       7       6       1       7
       6       6       1       6       1       8       1       8      15       8
       8       8       6       1       1       6       1       8       6       1
       7       6       1       7       6       6       8       7       1       6
       7       1       1       7       6       6       1       6       1       8
       1       8      15       8       8       8       6       1       1       6
       1       8       6       1       7       6       1       7       6       6
       8       7       1       6       7       1       1       7       6       6
       1       6       1       8       1       8      15       8       8       8
       6       1       1       6       1       8       6       1       7       6
       1       7       6       6       8       7       1       6       7       1
       1       7       6       6       1       6       1       8       1       8
      15       8       8       8       6       1       1       6       1       8
       6       1       7       6       1       6       1       6       8       7
       1       6       8       6       1       6       1       8       1       8
      15       8       8       8       6       1       1       6       1       8
       6       1       7       6       1       6       1       6       8       7
       1       6       8       6       1       6       1       8       1       8
      15       8       8       8       6       1       1       6       1       8
       6       1       7       6       1       7       6       6       7       1
       1       7       6       1       7       6       6       1       6       1
       8       1       8      15       8       8       8       6       1       1
       6       1       8       6       1       7       6       1       7       6
       6       8       7       1       6       7       1       1       7       6
       6       1       6       1       8       1       8      15       8       8
       8       6       1       1       6       1       8       6       1       7
       6       1       7       6       6       8       7       1       6       7
       1       1       7       6       6       1       6       1       8       1
       8      15       8       8       8       6       1       1       6       1
       8       6       1       7       6       1       7       6       6       8
       7       1       6       7       1       1       7       6       6       1
       6       1       8       1       8       1      17      17      17      17
      17      17      17      17      17      17      17      17      17      17
      17      17      17      17      17      17      17      17      17      17
      17      17      17      17      17      17      17      17      17      17
      17      17      17      17      17      17      17      17      17      17
      17      17      17      17      17      17      17      17      17      17
      17      17      17      17      17      17      17      17      17      17
      17      17      17      17      17      17      17      17      17      17
      17      17      17      17      17      17      17      17      17      17
      17      19      19      19      19      19      19      19      19      19
      19      19      19      19      19      19      19      19      19      19
      19      19      19      19      19      19      19      19      19      19
      19      19      19      19      19      19      19      19      19      19
      19      19      19      19      19      19      19      19      19      19
      19      19      19      19      19      19      19      19      19      19
      19      19      19      19      19      19      19      19      19      19
      19      19      19      19      19      19      19      19      19      19
      19      19      19      19      19      19      19      19      19      19
      19      19      19      19      19      19      19      19      19      19
      19      19      19      19      19      19
%FLAG MASS                                                                      
%FORMAT(5E16.8)                                                                 
  3.02400000E+00  1.39840000E+01  7.97800000E+00  3.02400000E+00  3.02400000E+00
  9.99400000E+00  3.02400000E+00  1.60000000E+01  9.99400000E+00  3.02400000E+00
  1.40100000E+01  9.99400000E+00  3.02400000E+00  1.40100000E+01  1.20100000E+01
  1.20100000E+01  1.60000000E+01  1.19940000E+01  3.02400000E+00  1.20100000E+01
  9.97800000E+00  3.02400000E+00  3.02400000E+00  1.40100000E+01  1.20100000E+01
  9.99400000E+00  3.02400000E+00  9.99400000E+00  3.02400000E+00  1.39840000E+01
  3.02400000E+00  1.60000000E+01  3.09700000E+01  1.60000000E+01  1.60000000E+01
  1.60000000E+01  7.97800000E+00  3.02400000E+00  3.02400000E+00  9.99400000E+00
  3.02400000E+00  1.60000000E+01  9.99400000E+00  3.02400000E+00  1.40100000E+01
  9.99400000E+00  3.02400000E+00  1.40100000E+01  1.20100000E+01  1.20100000E+01
  1.60000000E+01  1.19940000E+01  3.02400000E+00  1.20100000E+01  9.97800000E+00
  3.02400000E+00  3.02400000E+00  1.40100000E+01  1.20100000E+01  9.99400000E+00
  3.02400000E+00  9.99400000E+00  3.02400000E+00  1.39840000E+01  3.02400000E+00
  1.60000000E+01  3.09700000E+01  1.60000000E+01  1.60000000E+01  1.60000000E+01
  7.97800000E+00  3.02400000E+00  3.02400000E+00  9.99400000E+00  3.02400000E+00
  1.60000000E+01  9.99400000E+00  3.02400000E+00  1.40100000E+01  9.99400000E+00
  3.02400000E+00  1.40100000E+01  1.20100000E+01  1.20100000E+01  1.60000000E+01
  1.19940000E+01  3.02400000E+00  1.20100000E+01  9.97800000E+00  3.02400000E+00
  3.02400000E+00  1.40100000E+01  1.20100000E+01  9.99400000E+00  3.02400000E+00
  9.99400000E+00  3.02400000E+00  1.39840000E+01  3.02400000E+00  1.60000000E+01
  3.09700000E+01  1.60000000E+01  1.60000000E+01  1.60000000E+01  7.97800000E+00
  3.02400000E+00  3.02400000E+00  9.99400000E+00  3.02400000E+00  1.60000000E+01
  9.99400000E+00  3.02400000E+00  1.40100000E+01  9.99400000E+00  3.02400000E+00
  9.99400000E+00  3.02400000E+00  1.20100000E+01  1.60000000E+01  1.19940000E+01
  3.02400000E+00  1.20100000E+01  1.60000000E+01  9.99400000E+00  3.02400000E+00
  9.99400000E+00  3.02400000E+00  1.39840000E+01  3.02400000E+00  1.60000000E+01
  3.09700000E+01  1.60000000E+01  1.60000000E+01  1.60000000E+01  7.97800000E+00
  3.02400000E+00  3.02400000E+00  9.99400000E+00  3.02400000E+00  1.60000000E+01
  9.99400000E+00  3.02400000E+00  1.40100000E+01  9.99400000E+00  3.02400000E+00
  9.99400000E+00  3.02400000E+00  1.20100000E+01  1.60000000E+01  1.19940000E+01
  3.02400000E+00  1.20100000E+01  1.60000000E+01  9.99400000E+00  3.02400000E+00
  9.99400000E+00  3.02400000E+00  1.39840000E+01  3.02400000E+00  1.60000000E+01
  3.09700000E+01  1.60000000E+01  1.60000000E+01  1.60000000E+01  7.97800000E+00
  3.02400000E+00  3.02400000E+00  9.99400000E+00  3.02400000E+00  1.60000000E+01
  9.99400000E+00  3.02400000E+00  1.40100000E+01  9.99400000E+00  3.02400000E+00
  1.40100000E+01  1.20100000E+01  1.20100000E+01  9.97800000E+00  3.02400000E+00
  3.02400000E+00  1.40100000E+01  9.99400000E+00  3.02400000E+00  1.40100000E+01
  1.20100000E+01  9.99400000E+00  3.02400000E+00  9.99400000E+00  3.02400000E+00
  1.39840000E+01  3.02400000E+00  1.60000000E+01  3.09700000E+01  1.60000000E+01
  1.60000000E+01  1.60000000E+01  7.97800000E+00  3.02400000E+00  3.02400000E+00
  9.99400000E+00  3.02400000E+00  1.60000000E+01  9.99400000E+00  3.02400000E+00
  1.40100000E+01  9.99400000E+00  3.02400000E+00  1.40100000E+01  1.20100000E+01
  1.20100000E+01  1.60000000E+01  1.19940000E+01  3.02400000E+00  1.20100000E+01
  9.97800000E+00  3.02400000E+00  3.02400000E+00  1.40100000E+01  1.20100000E+01
  9.99400000E+00  3.02400000E+00  9.99400000E+00  3.02400000E+00  1.39840000E+01
  3.02400000E+00  1.60000000E+01  3.09700000E+01  1.60000000E+01  1.60000000E+01
  1.60000000E+01  7.97800000E+00  3.02400000E+00  3.02400000E+00  9.99400000E+00
  3.02400000E+00  1.60000000E+01  9.99400000E+00  3.02400000E+00  1.40100000E+01
  9.99400000E+00  3.02400000E+00  1.40100000E+01  1.20100000E+01  1.20100000E+01
  1.60000000E+01  1.19940000E+01  3.02400000E+00  1.20100000E+01  9.97800000E+00
  3.02400000E+00  3.02400000E+00  1.40100000E+01  1.20100000E+01  9.99400000E+00
  3.02400000E+00  9.99400000E+00  3.02400000E+00  1.39840000E+01  3.02400000E+00
  1.60000000E+01  3.09700000E+01  1.60000000E+01  1.60000000E+01  1.60000000E+01
  7.97800000E+00  3.02400000E+00  3.02400000E+00  9.99400000E+00  3.02400000E+00
  1.60000000E+01  9.99400000E+00  3.02400000E+00  1.40100000E+01  9.99400000E+00
  3.02400000E+00  1.40100000E+01  1.20100000E+01  1.20100000E+01  1.60000000E+01
  1.19940000E+01  3.02400000E+00  1.20100000E+01  9.97800000E+00  3.02400000E+00
  3.02400000E+00  1.40100000E+01  1.20100000E+01  9.99400000E+00  3.02400000E+00
  9.99400000E+00  3.02400000E+00  1.39840000E+01  3.02400000E+00  1.60000000E+01
  3.09700000E+01  1.60000000E+01  1.60000000E+01  1.60000000E+01  7.97800000E+00
  3.02400000E+00  3.02400000E+00  9.99400000E+00  3.02400000E+00  1.60000000E+01
  9.99400000E+00  3.02400000E+00  1.40100000E+01  9.99400000E+00  3.02400000E+00
  9.99400000E+00  3.02400000E+00  1.20100000E+01  1.60000000E+01  1.19940000E+01
  3.02400000E+00  1.20100000E+01  1.60000000E+01  9.99400000E+00  3.02400000E+00
  9.99400000E+00  3.02400000E+00  1.39840000E+01  3.02400000E+00  1.60000000E+01
  3.09700000E+01  1.60000000E+01  1.60000000E+01  1.60000000E+01  7.97800000E+00
  3.02400000E+00  3.02400000E+00  9.99400000E+00  3.02400000E+00  1.60000000E+01
  9.99400000E+00  3.02400000E+00  1.40100000E+01  9.99400000E+00  3.02400000E+00
  9.99400000E+00  3.02400000E+00  1.20100000E+01  1.60000000E+01  1.19940000E+01
  3.02400000E+00  1.20100000E+01  1.60000000E+01  9.99400000E+00  3.02400000E+00
  9.99400000E+00  3.02400000E+00  1.39840000E+01  3.02400000E+00  1.60000000E+01
  3.09700000E+01  1.60000000E+01  1.60000000E+01  1.60000000E+01  7.97800000E+00
  3.02400000E+00  3.02400000E+00  9.99400000E+00  3.02400000E+00  1.60000000E+01
  9.99400000E+00  3.02400000E+00  1.40100000E+01  9.99400000E+00  3.02400000E+00
  1.40100000E+01  1.20100000E+01  1.20100000E+01  9.97800000E+00  3.02400000E+00
  3.02400000E+00  1.40100000E+01  9.99400000E+00  3.02400000E+00  1.40100000E+01
  1.20100000E+01  9.99400000E+00  3.02400000E+00  9.99400000E+00  3.02400000E+00
  1.39840000E+01  3.02400000E+00  1.60000000E+01  3.09700000E+01  1.60000000E+01
  1.60000000E+01  1.60000000E+01  7.97800000E+00  3.02400000E+00  3.02400000E+00
  9.99400000E+00  3.02400000E+00  1.60000000E+01  9.99400000E+00  3.02400000E+00
  1.40100000E+01  9.99400000E+00  3.02400000E+00  1.40100000E+01  1.20100000E+01
  1.20100000E+01  1.60000000E+01  1.19940000E+01  3.02400000E+00  1.20100000E+01
  9.97800000E+00  3.02400000E+00  3.02400000E+00  1.40100000E+01  1.20100000E+01
  9.99400000E+00  3.02400000E+00  9.99400000E+00  3.02400000E+00  1.39840000E+01
  3.02400000E+00  1.60000000E+01  3.09700000E+01  1.60000000E+01  1.60000000E+01
  1.60000000E+01  7.97800000E+00  3.02400000E+00  3.02400000E+00  9.99400000E+00
  3.02400000E+00  1.60000000E+01  9.99400000E+00  3.02400000E+00  1.40100000E+01
  9.99400000E+00  3.02400000E+00  1.40100000E+01  1.20100000E+01  1.20100000E+01
  1.60000000E+01  1.19940000E+01  3.02400000E+00  1.20100000E+01  9.97800000E+00
  3.02400000E+00  3.02400000E+00  1.40100000E+01  1.20100000E+01  9.99400000E+00
  3.02400000E+00  9.99400000E+00  3.02400000E+00  1.39840000E+01  3.02400000E+00
  1.60000000E+01  3.09700000E+01  1.60000000E+01  1.60000000E+01  1.60000000E+01
  7.97800000E+00  3.02400000E+00  3.02400000E+00  9.99400000E+00  3.02400000E+00
  1.60000000E+01  9.99400000E+00  3.02400000E+00  1.40100000E+01  9.99400000E+00
  3.02400000E+00  1.40100000E+01  1.20100000E+01  1.20100000E+01  1.60000000E+01
  1.19940000E+01  3.02400000E+00  1.20100000E+01  9.97800000E+00  3.02400000E+00
  3.02400000E+00  1.40100000E+01  1.20100000E+01  9.99400000E+00  3.02400000E+00
  9.99400000E+00  3.02400000E+00  1.39840000E+01  3.02400000E+00  1.60000000E+01
  3.09700000E+01  1.60000000E+01  1.60000000E+01  1.60000000E+01  7.97800000E+00
  3.02400000E+00  3.02400000E+00  9.99400000E+00  3.02400000E+00  1.60000000E+01
  9.99400000E+00  3.02400000E+00  1.40100000E+01  9.99400000E+00  3.02400000E+00
  9.99400000E+00  3.02400000E+00  1.20100000E+01  1.60000000E+01  1.19940000E+01
  3.02400000E+00  1.20100000E+01  1.60000000E+01  9.99400000E+00  3.02400000E+00
  9.99400000E+00  3.02400000E+00  1.39840000E+01  3.02400000E+00  1.60000000E+01
  3.09700000E+01  1.60000000E+01  1.60000000E+01  1.60000000E+01  7.97800000E+00
  3.02400000E+00  3.02400000E+00  9.99400000E+00  3.02400000E+00  1.60000000E+01
  9.99400000E+00  3.02400000E+00  1.40100000E+01  9.99400000E+00  3.02400000E+00
  9.99400000E+00  3.02400000E+00  1.20100000E+01  1.60000000E+01  1.19940000E+01
  3.02400000E+00  1.20100000E+01  1.60000000E+01  9.99400000E+00  3.02400000E+00
  9.99400000E+00  3.02400000E+00  1.39840000E+01  3.02400000E+00  1.60000000E+01
  3.09700000E+01  1.60000000E+01  1.60000000E+01  1.60000000E+01  7.97800000E+00
  3.02400000E+00  3.02400000E+00  9.99400000E+00  3.02400000E+00  1.60000000E+01
  9.99400000E+00  3.02400000E+00  1.40100000E+01  9.99400000E+00  3.02400000E+00
  1.40100000E+01  1.20100000E+01  1.20100000E+01  9.97800000E+00  3.02400000E+00
  3.02400000E+00  1.40100000E+01  9.99400000E+00  3.02400000E+00  1.40100000E+01
  1.20100000E+01  9.99400000E+00  3.02400000E+00  9.99400000E+00  3.02400000E+00
  1.39840000E+01  3.02400000E+00  1.60000000E+01  3.09700000E+01  1.60000000E+01
  1.60000000E+01  1.60000000E+01  7.97800000E+00  3.02400000E+00  3.02400000E+00
  9.99400000E+00  3.02400000E+00  1.60000000E+01  9.99400000E+00  3.02400000E+00
  1.40100000E+01  9.99400000E+00  3.02400000E+00  1.40100000E+01  1.20100000E+01
  1.20100000E+01  1.60000000E+01  1.19940000E+01  3.02400000E+00  1.20100000E+01
  9.97800000E+00  3.02400000E+00  3.02400000E+00  1.40100000E+01  1.20100000E+01
  9.99400000E+00  3.02400000E+00  9.99400000E+00  3.02400000E+00  1.39840000E+01
  3.02400000E+00  1.60000000E+01  3.09700000E+01  1.60000000E+01  1.60000000E+01
  1.60000000E+01  7.97800000E+00  3.02400000E+00  3.02400000E+00  9.99400000E+00
  3.02400000E+00  1.60000000E+01  9.99400000E+00  3.02400000E+00  1.40100000E+01
  9.99400000E+00  3.02400000E+00  1.40100000E+01  1.20100000E+01  1.20100000E+01
  1.60000000E+01  1.19940000E+01  3.02400000E+00  1.20100000E+01  9.97800000E+00
  3.02400000E+00  3.02400000E+00  1.40100000E+01  1.20100000E+01  9.99400000E+00
  3.02400000E+00  9.99400000E+00  3.02400000E+00  1.39840000E+01  3.02400000E+00
  1.60000000E+01  3.09700000E+01  1.60000000E+01  1.60000000E+01  1.60000000E+01
  7.97800000E+00  3.02400000E+00  3.02400000E+00  9.99400000E+00  3.02400000E+00
  1.60000000E+01  9.99400000E+00  3.02400000E+00  1.40100000E+01  9.99400000E+00
  3.02400000E+00  1.40100000E+01  1.20100000E+01  1.20100000E+01  1.60000000E+01
  1.19940000E+01  3.02400000E+00  1.20100000E+01  9.97800000E+00  3.02400000E+00
  3.02400000E+00  1.40100000E+01  1.20100000E+01  9.99400000E+00  3.02400000E+00
  9.99400000E+00  3.02400000E+00  1.39840000E+01  3.02400000E+00  1.39840000E+01
  3.02400000E+00  3.54500000E+01  3.54500000E+01  3.54500000E+01  3.54500000E+01
  3.54500000E+01  3.54500000E+01  3.54500000E+01  3.54500000E+01  3.54500000E+01
  3.54500000E+01  3.54500000E+01  3.54500000E+01  3.54500000E+01  3.54500000E+01
  3.54500000E+01  3.54500000E+01  3.54500000E+01  3.54500000E+01  3.54500000E+01
  3.54500000E+01  3.54500000E+01  3.54500000E+01  3.54500000E+01  3.54500000E+01
  3.54500000E+01  3.54500000E+01  3.54500000E+01  3.54500000E+01  3.54500000E+01
  3.54500000E+01  3.54500000E+01  3.54500000E+01  3.54500000E+01  3.54500000E+01
  3.54500000E+01  3.54500000E+01  3.54500000E+01  3.54500000E+01  3.54500000E+01
  3.54500000E+01  3.54500000E+01  3.54500000E+01  3.54500000E+01  3.54500000E+01
  3.54500000E+01  3.54500000E+01  3.54500000E+01  3.54500000E+01  3.54500000E+01
  3.54500000E+01  3.54500000E+01  3.54500000E+01  3.54500000E+01  3.54500000E+01
  3.54500000E+01  3.54500000E+01  3.54500000E+01  3.54500000E+01  3.54500000E+01
  3.54500000E+01  3.54500000E+01  3.54500000E+01  3.54500000E+01  3.54500000E+01
  3.54500000E+01  3.54500000E+01  3.54500000E+01  3.54500000E+01  3.54500000E+01
  3.54500000E+01  3.54500000E+01  3.54500000E+01  3.54500000E+01  3.54500000E+01
  3.54500000E+01  3.54500000E+01  3.54500000E+01  3.54500000E+01  3.54500000E+01
  3.54500000E+01  3.54500000E+01  3.54500000E+01  3.54500000E+01  3.54500000E+01
  3.54500000E+01  3.91000000E+01  3.91000000E+01  3.91000000E+01  3.91000000E+01
  3.91000000E+01  3.91000000E+01  3.91000000E+01  3.91000000E+01  3.91000000E+01
  3.91000000E+01  3.91000000E+01  3.91000000E+01  3.91000000E+01  3.91000000E+01
  3.91000000E+01  3.91000000E+01  3.91000000E+01  3.91000000E+01  3.91000000E+01
  3.91000000E+01  3.91000000E+01  3.91000000E+01  3.91000000E+01  3.91000000E+01
  3.91000000E+01  3.91000000E+01  3.91000000E+01  3.91000000E+01  3.91000000E+01
  3.91000000E+01  3.91000000E+01  3.91000000E+01  3.91000000E+01  3.91000000E+01
  3.91000000E+01  3.91000000E+01  3.91000000E+01  3.91000000E+01  3.91000000E+01
  3.91000000E+01  3.91000000E+01  3.91000000E+01  3.91000000E+01  3.91000000E+01
  3.91000000E+01  3.91000000E+01  3.91000000E+01  3.91000000E+01  3.91000000E+01
  3.91000000E+01  3.91000000E+01  3.91000000E+01  3.91000000E+01  3.91000000E+01
  3.91000000E+01  3.91000000E+01  3.91000000E+01  3.91000000E+01  3.91000000E+01
  3.91000000E+01  3.91000000E+01  3.91000000E+01  3.91000000E+01  3.91000000E+01
  3.91000000E+01  3.91000000E+01  3.91000000E+01  3.91000000E+01  3.91000000E+01
  3.91000000E+01  3.91000000E+01  3.91000000E+01  3.91000000E+01  3.91000000E+01
  3.91000000E+01  3.91000000E+01  3.91000000E+01  3.91000000E+01  3.91000000E+01
  3.91000000E+01  3.91000000E+01  3.91000000E+01  3.91000000E+01  3.91000000E+01
  3.91000000E+01  3.91000000E+01  3.91000000E+01  3.91000000E+01  3.91000000E+01
  3.91000000E+01  3.91000000E+01  3.91000000E+01  3.91000000E+01  3.91000000E+01
  3.91000000E+01  3.91000000E+01  3.91000000E+01  3.91000000E+01  3.91000000E+01
  3.91000000E+01  3.91000000E+01  3.91000000E+01  3.91000000E+01  3.91000000E+01
  3.91000000E+01
%FLAG ATOM_TYPE_INDEX                                                           
%FORMAT(10I8)                                                                   
       1       2       3       4       4       3       4       5       3       6
       7       8       9       7       8       8      10       7      11       8
       7      11      11       7       8       3       4       3       4       2
       1       5      12      10      10       5       3       4       4       3
       4       5       3       6       7       8       9       7       8       8
      10       7      11       8       7      11      11       7       8       3
       4       3       4       2       1       5      12      10      10       5
       3       4       4       3       4       5       3       6       7       8
       9       7       8       8      10       7      11       8       7      11
      11       7       8       3       4       3       4       2       1       5
      12      10      10       5       3       4       4       3       4       5
       3       6       7       8      13       8      14       8      10       7
      11       8      10       3       4       3       4       2       1       5
      12      10      10       5       3       4       4       3       4       5
       3       6       7       8      13       8      14       8      10       7
      11       8      10       3       4       3       4       2       1       5
      12      10      10       5       3       4       4       3       4       5
       3       6       7       8       9       7       8       8       7      11
      11       7       8       9       7       8       3       4       3       4
       2       1       5      12      10      10       5       3       4       4
       3       4       5       3       6       7       8       9       7       8
       8      10       7      11       8       7      11      11       7       8
       3       4       3       4       2       1       5      12      10      10
       5       3       4       4       3       4       5       3       6       7
       8       9       7       8       8      10       7      11       8       7
      11      11       7       8       3       4       3       4       2       1
       5      12      10      10       5       3       4       4       3       4
       5       3       6       7       8       9       7       8       8      10
       7      11       8       7      11      11       7       8       3       4
       3       4       2       1       5      12      10      10       5       3
       4       4       3       4       5       3       6       7       8      13
       8      14       8      10       7      11       8      10       3       4
       3       4       2       1       5      12      10      10       5       3
       4       4       3       4       5       3       6       7       8      13
       8      14       8      10       7      11       8      10       3       4
       3       4       2       1       5      12      10      10       5       3
       4       4       3       4       5       3       6       7       8       9
       7       8       8       7      11      11       7       8       9       7
       8       3       4       3       4       2       1       5      12      10
      10       5       3       4       4       3       4       5       3       6
       7       8       9       7       8       8      10       7      11       8
       7      11      11       7       8       3       4       3       4       2
       1       5      12      10      10       5       3       4       4       3
       4       5       3       6       7       8       9       7       8       8
      10       7      11       8       7      11      11       7       8       3
       4       3       4       2       1       5      12      10      10       5
       3       4       4       3       4       5       3       6       7       8
       9       7       8       8      10       7      11       8       7      11
      11       7       8       3       4       3       4       2       1       5
      12      10      10       5       3       4       4       3       4       5
       3       6       7       8      13       8      14       8      10       7
      11       8      10       3       4       3       4       2       1       5
      12      10      10       5       3       4       4       3       4       5
       3       6       7       8      13       8      14       8      10       7
      11       8      10       3       4       3       4       2       1       5
      12      10      10       5       3       4       4       3       4       5
       3       6       7       8       9       7       8       8       7      11
      11       7       8       9       7       8       3       4       3       4
       2       1       5      12      10      10       5       3       4       4
       3       4       5       3       6       7       8       9       7       8
       8      10       7      11       8       7      11      11       7       8
       3       4       3       4       2       1       5      12      10      10
       5       3       4       4       3       4       5       3       6       7
       8       9       7       8       8      10       7      11       8       7
      11      11       7       8       3       4       3       4       2       1
       5      12      10      10       5       3       4       4       3       4
       5       3       6       7       8       9       7       8       8      10
       7      11       8       7      11      11       7       8       3       4
       3       4       2       1       2       1      15      15      15      15
      15      15      15      15      15      15      15      15      15      15
      15      15      15      15      15      15      15      15      15      15
      15      15      15      15      15      15      15      15      15      15
      15      15      15      15      15      15      15      15      15      15
      15      15      15      15      15      15      15      15      15      15
      15      15      15      15      15      15      15      15      15      15
      15      15      15      15      15      15      15      15      15      15
      15      15      15      15      15      15      15      15      15      15
      15      16      16      16      16      16      16      16      16      16
      16      16      16      16      16      16      16      16      16      16
      16      16      16      16      16      16      16      16      16      16
      16      16      16      16      16      16      16      16      16      16
      16      16      16      16      16      16      16      16      16      16
      16      16      16      16      16      16      16      16      16      16
      16      16      16      16      16      16      16      16      16      16
      16      16      16      16      16      16      16      16      16      16
      16      16      16      16      16      16      16      16      16      16
      16      16      16      16      16      16      16      16      16      16
      16      16      16      16      16      16
%FLAG NUMBER_EXCLUDED_ATOMS                                                     
%FORMAT(10I8)                                                                   
       5       7      10       5       4      12       6      11      15       7
      12       7       3       6       7       7       4       7       3       5
       4       2       1       1       1      10       5       5       3       2
       1       5       7       3       2       7      10       5       4      12
       6      11      15       7      12       7       3       6       7       7
       4       7       3       5       4       2       1       1       1      10
       5       5       3       2       1       5       7       3       2       7
      10       5       4      12       6      11      15       7      12       7
       3       6       7       7       4       7       3       5       4       2
       1       1       1      10       5       5       3       2       1       5
       7       3       2       7      10       5       4      12       6      11
      15       7      13       9       4       6       3       5       3       3
       2       2       1      10       5       5       3       2       1       5
       7       3       2       7      10       5       4      12       6      11
      15       7      13       9       4       6       3       5       3       3
       2       2       1      10       5       5       3       2       1       5
       7       3       2       7      10       5       4      12       6      11
      15       7      12       7       3       6       8       8       5       2
       1       4       3       2       1       1      10       5       5       3
       2       1       5       7       3       2       7      10       5       4
      12       6      11      15       7      12       7       3       6       7
       7       4       7       3       5       4       2       1       1       1
      10       5       5       3       2       1       5       7       3       2
       7      10       5       4      12       6      11      15       7      12
       7       3       6       7       7       4       7       3       5       4
       2       1       1       1      10       5       5       3       2       1
       5       7       3       2       7      10       5       4      12       6
      11      15       7      12       7       3       6       7       7       4
       7       3       5       4       2       1       1       1      10       5
       5       3       2       1       5       7       3       2       7      10
       5       4      12       6      11      15       7      13       9       4
       6       3       5       3       3       2       2       1      10       5
       5       3       2       1       5       7       3       2       7      10
       5       4      12       6      11      15       7      13       9       4
       6       3       5       3       3       2       2       1      10       5
       5       3       2       1       5       7       3       2       7      10
       5       4      12       6      11      15       7      12       7       3
       6       8       8       5       2       1       4       3       2       1
       1      10       5       5       3       2       1       5       7       3
       2       7      10       5       4      12       6      11      15       7
      12       7       3       6       7       7       4       7       3       5
       4       2       1       1       1      10       5       5       3       2
       1       5       7       3       2       7      10       5       4      12
       6      11      15       7      12       7       3       6       7       7
       4       7       3       5       4       2       1       1       1      10
       5       5       3       2       1       5       7       3       2       7
      10       5       4      12       6      11      15       7      12       7
       3       6       7       7       4       7       3       5       4       2
       1       1       1      10       5       5       3       2       1       5
       7       3       2       7      10       5       4      12       6      11
      15       7      13       9       4       6       3       5       3       3
       2       2       1      10       5       5       3       2       1       5
       7       3       2       7      10       5       4      12       6      11
      15       7      13       9       4       6       3       5       3       3
       2       2       1      10       5       5       3       2       1       5
       7       3       2       7      10       5       4      12       6      11
      15       7      12       7       3       6       8       8       5       2
       1       4       3       2       1       1      10       5       5       3
       2       1       5       7       3       2       7      10       5       4
      12       6      11      15       7      12       7       3       6       7
       7       4       7       3       5       4       2       1       1       1
      10       5       5       3       2       1       5       7       3       2
       7      10       5       4      12       6      11      15       7      12
       7       3       6       7       7       4       7       3       5       4
       2       1       1       1      10       5       5       3       2       1
       5       7       3       2       7      10       5       4      12       6
      11      15       7      12       7       3       6       7       7       4
       7       3       5       4       2       1       1       1       7       5
       5       3       2       1       1       1       1       1       1       1
       1       1       1       1       1       1       1       1       1       1
       1       1       1       1       1       1       1       1       1       1
       1       1       1       1       1       1       1       1       1       1
       1       1       1       1       1       1       1       1       1       1
       1       1       1       1       1       1       1       1       1       1
       1       1       1       1       1       1       1       1       1       1
       1       1       1       1       1       1       1       1       1       1
       1       1       1       1       1       1       1       1       1       1
       1       1       1       1       1       1       1       1       1       1
       1       1       1       1       1       1       1       1       1       1
       1       1       1       1       1       1       1       1       1       1
       1       1       1       1       1       1       1       1       1       1
       1       1       1       1       1       1       1       1       1       1
       1       1       1       1       1       1       1       1       1       1
       1       1       1       1       1       1       1       1       1       1
       1       1       1       1       1       1       1       1       1       1
       1       1       1       1       1       1       1       1       1       1
       1       1       1       1       1       1       1       1       1       1
       1       1       1       1       1       1
%FLAG NONBONDED_PARM_INDEX                                                      
%FORMAT(10I8)                                                                   
       1       2       4       7      11      16      22      29      37      46
      56      67      79      92     106     121       2       3       5       8
      12      17      23      30      38      47      57      68      80      93
     107     122       4       5       6       9      13      18      24      31
      39      48      58      69      81      94     108     123       7       8
       9      10      14      19      25      32      40      49      59      70
      82      95     109     124      11      12      13      14      15      20
      26      33      41      50      60      71      83      96     110     125
      16      17      18      19      20      21      27      34      42      51
      61      72      84      97     111     126      22      23      24      25
      26      27      28      35      43      52      62      73      85      98
     112     127      29      30      31      32      33      34      35      36
      44      53      63      74      86      99     113     128      37      38
      39      40      41      42      43      44      45      54      64      75
      87     100     114     129      46      47      48      49      50      51
      52      53      54      55      65      76      88     101     115     130
      56      57      58      59      60      61      62      63      64      65
      66      77      89     102     116     131      67      68      69      70
      71      72      73      74      75      76      77      78      90     103
     117     132      79      80      81      82      83      84      85      86
      87      88      89      90      91     104     118     133      92      93
      94      95      96      97      98      99     100     101     102     103
     104     105     119     134     106     107     108     109     110     111
     112     113     114     115     116     117     118     119     120     135
     121     122     123     124     125     126     127     128     129     130
     131     132     133     134     135     136
%FLAG RESIDUE_LABEL                                                             
%FORMAT(20a4)                                                                   
G5  G   G   U   U   A   G   G   G   U   U   A   G   G   G   U   U   A   G   G   
G3  Cl- Cl- Cl- Cl- Cl- Cl- Cl- Cl- Cl- Cl- Cl- Cl- Cl- Cl- Cl- Cl- Cl- Cl- Cl- 
Cl- Cl- Cl- Cl- Cl- Cl- Cl- Cl- Cl- Cl- Cl- Cl- Cl- Cl- Cl- Cl- Cl- Cl- Cl- Cl- 
Cl- Cl- Cl- Cl- Cl- Cl- Cl- Cl- Cl- Cl- Cl- Cl- Cl- Cl- Cl- Cl- Cl- Cl- Cl- Cl- 
Cl- Cl- Cl- Cl- Cl- Cl- Cl- Cl- Cl- Cl- Cl- Cl- Cl- Cl- Cl- Cl- Cl- Cl- Cl- Cl- 
Cl- Cl- Cl- Cl- Cl- Cl- K+  K+  K+  K+  K+  K+  K+  K+  K+  K+  K+  K+  K+  K+  
K+  K+  K+  K+  K+  K+  K+  K+  K+  K+  K+  K+  K+  K+  K+  K+  K+  K+  K+  K+  
K+  K+  K+  K+  K+  K+  K+  K+  K+  K+  K+  K+  K+  K+  K+  K+  K+  K+  K+  K+  
K+  K+  K+  K+  K+  K+  K+  K+  K+  K+  K+  K+  K+  K+  K+  K+  K+  K+  K+  K+  
K+  K+  K+  K+  K+  K+  K+  K+  K+  K+  K+  K+  K+  K+  K+  K+  K+  K+  K+  K+  
K+  K+  K+  K+  K+  K+  K+  K+  K+  K+  K+  
%FLAG RESIDUE_POINTER                                                           
%FORMAT(10I8)                                                                   
       1      33      67     101     131     161     194     228     262     296
     326     356     389     423     457     491     521     551     584     618
     652     687     688     689     690     691     692     693     694     695
     696     697     698     699     700     701     702     703     704     705
     706     707     708     709     710     711     712     713     714     715
     716     717     718     719     720     721     722     723     724     725
     726     727     728     729     730     731     732     733     734     735
     736     737     738     739     740     741     742     743     744     745
     746     747     748     749     750     751     752     753     754     755
     756     757     758     759     760     761     762     763     764     765
     766     767     768     769     770     771     772     773     774     775
     776     777     778     779     780     781     782     783     784     785
     786     787     788     789     790     791     792     793     794     795
     796     797     798     799     800     801     802     803     804     805
     806     807     808     809     810     811     812     813     814     815
     816     817     818     819     820     821     822     823     824     825
     826     827     828     829     830     831     832     833     834     835
     836     837     838     839     840     841     842     843     844     845
     846     847     848     849     850     851     852     853     854     855
     856     857     858     859     860     861     862     863     864     865
     866     867     868     869     870     871     872     873     874     875
     876
%FLAG BOND_FORCE_CONSTANT                                                       
%FORMAT(5E16.8)                                                                 
  2.30000000E+02  3.20000000E+02  3.10000000E+02  3.20000000E+02  4.61000000E+02
  4.81000000E+02  4.83000000E+02  4.27000000E+02  5.70000000E+02  4.18000000E+02
  4.47000000E+02  5.20000000E+02  4.14000000E+02  5.29000000E+02  4.40000000E+02
  4.36000000E+02  3.37000000E+02  3.10000000E+02  3.20000000E+02  3.20000000E+02
  5.25000000E+02  4.10000000E+02  5.49000000E+02  4.48000000E+02  4.24000000E+02
  5.02000000E+02  4.69000000E+02  5.29000000E+02  4.40000000E+02  5.53000000E+02
  3.40000000E+02  4.34000000E+02  4.34000000E+02  3.67000000E+02  3.40000000E+02
  3.40000000E+02  3.67000000E+02  3.67000000E+02  3.67000000E+02  3.67000000E+02
%FLAG BOND_EQUIL_VALUE                                                          
%FORMAT(5E16.8)                                                                 
  1.61000000E+00  1.41000000E+00  1.52600000E+00  1.41000000E+00  1.35400000E+00
  1.34000000E+00  1.33900000E+00  1.38100000E+00  1.22900000E+00  1.38800000E+00
  1.41900000E+00  1.37000000E+00  1.39100000E+00  1.30400000E+00  1.37100000E+00
  1.37400000E+00  1.47500000E+00  1.52600000E+00  1.41000000E+00  1.41000000E+00
  1.48000000E+00  1.44400000E+00  1.35000000E+00  1.36500000E+00  1.38300000E+00
  1.32400000E+00  1.40400000E+00  1.30400000E+00  1.37100000E+00  9.60000000E-01
  1.09000000E+00  1.01000000E+00  1.01000000E+00  1.08000000E+00  1.09000000E+00
  1.09000000E+00  1.08000000E+00  1.08000000E+00  1.08000000E+00  1.08000000E+00
%FLAG ANGLE_FORCE_CONSTANT                                                      
%FORMAT(5E16.8)                                                                 
  1.00000000E+02  4.50000000E+01  5.00000000E+01  5.00000000E+01  1.00000000E+02
  7.00000000E+01  7.00000000E+01  7.00000000E+01  7.00000000E+01  8.00000000E+01
  6.30000000E+01  7.00000000E+01  8.00000000E+01  7.00000000E+01  7.00000000E+01
  7.00000000E+01  7.00000000E+01  7.00000000E+01  7.00000000E+01  5.00000000E+01
  7.00000000E+01  7.00000000E+01  7.00000000E+01  7.00000000E+01  7.00000000E+01
  4.00000000E+01  5.00000000E+01  6.00000000E+01  5.00000000E+01  4.00000000E+01
  5.00000000E+01  5.00000000E+01  1.40000000E+02  1.00000000E+02  7.00000000E+01
  8.00000000E+01  7.00000000E+01  7.00000000E+01  6.30000000E+01  7.00000000E+01
  7.00000000E+01  8.00000000E+01  7.00000000E+01  7.00000000E+01  7.00000000E+01
  7.00000000E+01  6.30000000E+01  7.00000000E+01  7.00000000E+01  7.00000000E+01
  7.00000000E+01  7.00000000E+01  7.00000000E+01  7.00000000E+01  7.00000000E+01
  5.00000000E+01  5.50000000E+01  5.00000000E+01  5.00000000E+01  3.50000000E+01
  5.00000000E+01  5.00000000E+01  5.00000000E+01  5.00000000E+01  5.00000000E+01
  5.00000000E+01  5.00000000E+01  5.00000000E+01  5.00000000E+01  3.50000000E+01
  5.00000000E+01  5.00000000E+01  5.50000000E+01  5.00000000E+01  5.00000000E+01
  5.00000000E+01  5.00000000E+01  5.00000000E+01  5.00000000E+01  5.00000000E+01
  5.00000000E+01
%FLAG ANGLE_EQUIL_VALUE                                                         
%FORMAT(5E16.8)                                                                 
  1.88897066E+00  1.79070858E+00  1.91113635E+00  1.91113635E+00  2.10312265E+00
  2.08217869E+00  1.95826026E+00  2.02458280E+00  2.15199189E+00  2.10486798E+00
  2.08043336E+00  2.18515316E+00  2.24798504E+00  1.94255229E+00  2.22878641E+00
  2.26892900E+00  1.92684432E+00  1.83957782E+00  1.81165254E+00  1.91113635E+00
  1.98793087E+00  1.85354046E+00  2.20260646E+00  2.24798504E+00  2.19562514E+00
  1.91113635E+00  1.91113635E+00  1.91113635E+00  1.91113635E+00  1.91113635E+00
  1.91113635E+00  1.91113635E+00  2.09265067E+00  2.10312265E+00  2.20609712E+00
  2.18689849E+00  1.99142153E+00  2.12232128E+00  2.10661331E+00  2.11533996E+00
  2.01411082E+00  2.11010397E+00  2.11533996E+00  2.05250808E+00  1.93731630E+00
  2.25322103E+00  2.04727209E+00  2.06996138E+00  2.15548255E+00  2.04727209E+00
  2.31081692E+00  1.83957782E+00  1.81165254E+00  1.98793087E+00  2.24798504E+00
  1.91113635E+00  1.89368305E+00  1.91113635E+00  1.91113635E+00  2.09439600E+00
  2.09439600E+00  2.05948940E+00  2.03854544E+00  2.14762857E+00  2.14762857E+00
  1.91113635E+00  1.91113635E+00  1.91113635E+00  1.91113635E+00  1.91113635E+00
  1.91113635E+00  1.91113635E+00  1.89368305E+00  1.91113635E+00  2.08916001E+00
  2.08916001E+00  2.08916001E+00  2.07868803E+00  2.01498349E+00  2.14762857E+00
  2.14762857E+00
%FLAG DIHEDRAL_FORCE_CONSTANT                                                   
%FORMAT(5E16.8)                                                                 
  1.85181000E-01  1.25653100E+00  3.54858000E-01  1.17500000E+00  1.44000000E-01
  3.83333333E-01  2.50000000E-01  1.20000000E+00  0.00000000E+00  4.80000000E+00
  3.00000000E+00  1.35000000E+00  5.45000000E+00  1.50000000E+00  4.15000000E+00
  1.70000000E+00  1.65000000E+00  2.55000000E+00  1.55555556E-01  1.00000000E+01
  1.00000000E-01  3.83000000E-01  7.05100000E-01  1.06546000E+00  4.42730000E-01
  2.56020000E-01  6.50000000E-01  2.00000000E-01  2.50000000E-01  1.80000000E-01
  1.17804000E+00  9.21020000E-02  9.62830000E-01  1.85000000E+00  1.45000000E+00
  2.17500000E+00  3.00000000E-01  6.65000000E+00  1.02514000E+00  1.74876000E+00
  5.81500000E-01  3.51480000E-01  3.50000000E+00  6.80000000E+00  9.65610000E-01
  1.07403000E+00  4.57540000E-01  3.09170000E-01  0.00000000E+00  1.10000000E+00
  1.05000000E+01  1.00000000E+00  2.50000000E-01  0.00000000E+00  1.66666667E-01
  1.60000000E-01  2.40000000E+00
%FLAG DIHEDRAL_PERIODICITY                                                      
%FORMAT(5E16.8)                                                                 
  1.00000000E+00  2.00000000E+00  3.00000000E+00  2.00000000E+00  3.00000000E+00
  3.00000000E+00  3.00000000E+00  2.00000000E+00  2.00000000E+00  2.00000000E+00
  2.00000000E+00  2.00000000E+00  2.00000000E+00  2.00000000E+00  2.00000000E+00
  2.00000000E+00  2.00000000E+00  2.00000000E+00  3.00000000E+00  2.00000000E+00
  2.00000000E+00  3.00000000E+00  1.00000000E+00  2.00000000E+00  3.00000000E+00
  4.00000000E+00  2.00000000E+00  1.00000000E+00  2.00000000E+00  3.00000000E+00
  1.00000000E+00  2.00000000E+00  3.00000000E+00  2.00000000E+00  2.00000000E+00
  2.00000000E+00  3.00000000E+00  2.00000000E+00  1.00000000E+00  2.00000000E+00
  3.00000000E+00  4.00000000E+00  2.00000000E+00  2.00000000E+00  1.00000000E+00
  2.00000000E+00  3.00000000E+00  4.00000000E+00  2.00000000E+00  2.00000000E+00
  2.00000000E+00  2.00000000E+00  1.00000000E+00  3.00000000E+00  3.00000000E+00
  3.00000000E+00  2.00000000E+00
%FLAG DIHEDRAL_PHASE                                                            
%FORMAT(5E16.8)                                                                 
  5.54929070E-01  6.14285649E+00  6.23514744E+00  0.00000000E+00  0.00000000E+00
  0.00000000E+00  0.00000000E+00  0.00000000E+00  0.00000000E+00  3.14159400E+00
  3.14159400E+00  3.14159400E+00  3.14159400E+00  3.14159400E+00  3.14159400E+00
  3.14159400E+00  3.14159400E+00  3.14159400E+00  0.00000000E+00  3.14159400E+00
  3.14159400E+00  0.00000000E+00  1.30473540E+00  1.08709624E-01  2.94350428E+00
  6.93698862E-02  0.00000000E+00  3.14159400E+00  3.14159400E+00  0.00000000E+00
  3.33317067E+00  5.15976777E+00  6.07541257E+00  3.14159400E+00  3.14159400E+00
  3.14159400E+00  0.00000000E+00  3.14159400E+00  2.61552187E+00  2.92601084E-01
  3.13020398E+00  2.79280725E-01  3.14159400E+00  3.14159400E+00  1.20061600E+00
  2.72899799E-01  2.99461452E+00  3.33220149E-01  3.14159400E+00  3.14159400E+00
  3.14159400E+00  3.14159400E+00  0.00000000E+00  0.00000000E+00  0.00000000E+00
  0.00000000E+00  3.14159400E+00
%FLAG SCEE_SCALE_FACTOR                                                         
%FORMAT(5E16.8)                                                                 
  1.20000000E+00  1.20000000E+00  1.20000000E+00  1.20000000E+00  1.20000000E+00
  1.20000000E+00  1.20000000E+00  1.20000000E+00  1.20000000E+00  1.20000000E+00
  1.20000000E+00  1.20000000E+00  1.20000000E+00  1.20000000E+00  1.20000000E+00
  1.20000000E+00  1.20000000E+00  1.20000000E+00  1.20000000E+00  1.20000000E+00
  1.20000000E+00  1.20000000E+00  1.20000000E+00  1.20000000E+00  1.20000000E+00
  1.20000000E+00  1.20000000E+00  1.20000000E+00  1.20000000E+00  1.20000000E+00
  1.20000000E+00  1.20000000E+00  1.20000000E+00  1.20000000E+00  1.20000000E+00
  1.20000000E+00  1.20000000E+00  1.20000000E+00  1.20000000E+00  1.20000000E+00
  1.20000000E+00  1.20000000E+00  1.20000000E+00  1.20000000E+00  1.20000000E+00
  1.20000000E+00  1.20000000E+00  1.20000000E+00  0.00000000E+00  0.00000000E+00
  0.00000000E+00  0.00000000E+00  1.20000000E+00  1.20000000E+00  1.20000000E+00
  1.20000000E+00  1.20000000E+00
%FLAG SCNB_SCALE_FACTOR                                                         
%FORMAT(5E16.8)                                                                 
  2.00000000E+00  2.00000000E+00  2.00000000E+00  2.00000000E+00  2.00000000E+00
  2.00000000E+00  2.00000000E+00  2.00000000E+00  2.00000000E+00  2.00000000E+00
  2.00000000E+00  2.00000000E+00  2.00000000E+00  2.00000000E+00  2.00000000E+00
  2.00000000E+00  2.00000000E+00  2.00000000E+00  2.00000000E+00  2.00000000E+00
  2.00000000E+00  2.00000000E+00  2.00000000E+00  2.00000000E+00  2.00000000E+00
  2.00000000E+00  2.00000000E+00  2.00000000E+00  2.00000000E+00  2.00000000E+00
  2.00000000E+00  2.00000000E+00  2.00000000E+00  2.00000000E+00  2.00000000E+00
  2.00000000E+00  2.00000000E+00  2.00000000E+00  2.00000000E+00  2.00000000E+00
  2.00000000E+00  2.00000000E+00  2.00000000E+00  2.00000000E+00  2.00000000E+00
  2.00000000E+00  2.00000000E+00  2.00000000E+00  0.00000000E+00  0.00000000E+00
  0.00000000E+00  0.00000000E+00  2.00000000E+00  2.00000000E+00  2.00000000E+00
  2.00000000E+00  2.00000000E+00
%FLAG SOLTY                                                                     
%FORMAT(5E16.8)                                                                 
  0.00000000E+00  0.00000000E+00  0.00000000E+00  0.00000000E+00  0.00000000E+00
  0.00000000E+00  0.00000000E+00  0.00000000E+00  0.00000000E+00  0.00000000E+00
  0.00000000E+00  0.00000000E+00  0.00000000E+00  0.00000000E+00  0.00000000E+00
  0.00000000E+00  0.00000000E+00  0.00000000E+00  0.00000000E+00  0.00000000E+00
  0.00000000E+00  0.00000000E+00  0.00000000E+00  0.00000000E+00  0.00000000E+00
  0.00000000E+00  0.00000000E+00  0.00000000E+00  0.00000000E+00  0.00000000E+00
%FLAG LENNARD_JONES_ACOEF                                                       
%FORMAT(5E16.8)                                                                 
  0.00000000E+00  0.00000000E+00  5.81803229E+05  0.00000000E+00  7.91544157E+05
  1.04308023E+06  0.00000000E+00  4.66922514E+04  6.78771368E+04  3.25969625E+03
  0.00000000E+00  4.58874091E+05  6.28541240E+05  3.63097246E+04  3.61397723E+05
  0.00000000E+00  3.15360051E+04  4.68930885E+04  2.09814978E+03  2.44050579E+04
  1.32801250E+03  0.00000000E+00  7.44975864E+05  9.95480466E+05  6.20665997E+04
  5.89818288E+05  4.24594555E+04  9.44293233E+05  0.00000000E+00  7.01803794E+05
  9.24822270E+05  6.01816484E+04  5.57281136E+05  4.15766412E+04  8.82619071E+05
  8.19971662E+05  0.00000000E+00  4.09427581E+04  5.98885646E+04  2.82099197E+03
  3.17965283E+04  1.80748014E+03  5.46147253E+04  5.30987710E+04  2.43828624E+03
  0.00000000E+00  4.71003287E+05  6.47841731E+05  3.69471530E+04  3.70622491E+05
  2.47595516E+04  6.06829342E+05  5.74393458E+05  3.23283631E+04  3.79876399E+05
  0.00000000E+00  1.40467023E+03  2.56678134E+03  5.94667300E+01  1.03954408E+03
  3.20009193E+01  2.12601181E+03  2.27577561E+03  4.90239937E+01  1.02595236E+03
  1.39982777E-01  0.00000000E+00  1.98683736E+06  2.54188684E+06  1.81087383E+05
  1.58759528E+06  1.27716552E+05  2.45746558E+06  2.25370349E+06  1.60682053E+05
  1.64263766E+06  8.41065839E+03  6.02589390E+06  0.00000000E+00  4.96707306E+04
  7.18621074E+04  3.50301067E+03  3.86654993E+04  2.26273716E+03  6.58473870E+04
  6.37148278E+04  3.03448006E+03  3.93690817E+04  6.63368273E+01  1.90880272E+05
  3.76169105E+03  0.00000000E+00  6.00750218E+04  8.59947003E+04  4.33325458E+03
  4.68711055E+04  2.82099197E+03  7.91627154E+04  7.62451550E+04  3.76169105E+03
  4.77908183E+04  8.90987508E+01  2.26202022E+05  4.64559155E+03  5.71629601E+03
  0.00000000E+00  2.97899829E+06  3.52723645E+06  3.17807134E+05  2.41950003E+06
  2.36272768E+05  3.52778674E+06  3.12734028E+06  2.86107279E+05  2.52848425E+06
  2.45929350E+04  7.77480753E+06  3.31255111E+05  3.82850003E+05  8.25305789E+06
  0.00000000E+00  5.27640742E+05  7.35189669E+05  4.02837972E+04  4.14047379E+05
  2.67451529E+04  6.84777705E+05  6.51838429E+05  3.51582519E+04  4.23668273E+05
  1.01624591E+03  1.88647952E+06  4.30089946E+04  5.24379115E+04  2.99504205E+06
  4.70024038E+05
%FLAG LENNARD_JONES_BCOEF                                                       
%FORMAT(5E16.8)                                                                 
  0.00000000E+00  0.00000000E+00  6.99746810E+02  0.00000000E+00  6.93079947E+02
  6.75612247E+02  0.00000000E+00  1.03606917E+02  1.06076943E+02  1.43076527E+01
  0.00000000E+00  5.89183300E+02  5.85549272E+02  8.66220817E+01  4.95732238E+02
  0.00000000E+00  8.51470647E+01  8.81685417E+01  1.14788417E+01  7.10161395E+01
  9.13231543E+00  0.00000000E+00  7.50714425E+02  7.36907417E+02  1.13252061E+02
  6.33305958E+02  9.36708259E+01  8.01323529E+02  0.00000000E+00  6.14502845E+02
  5.99015525E+02  9.40505980E+01  5.19163331E+02  7.81725398E+01  6.53361429E+02
  5.31102864E+02  0.00000000E+00  9.59185913E+01  9.85097219E+01  1.31591746E+01
  8.01410250E+01  1.05333009E+01  1.05031585E+02  8.73413012E+01  1.20953369E+01
  0.00000000E+00  6.29300710E+02  6.26720080E+02  9.21192136E+01  5.29252520E+02
  7.54103785E+01  6.77220874E+02  5.55666448E+02  8.51921330E+01  5.64885984E+02
  0.00000000E+00  1.79702257E+01  2.06278363E+01  1.93248820E+00  1.46567808E+01
  1.41762397E+00  2.09604198E+01  1.82891803E+01  1.73473071E+00  1.53505284E+01
  9.37598976E-02  0.00000000E+00  1.27682121E+03  1.22636552E+03  2.01468199E+02
  1.08210555E+03  1.69194406E+02  1.34630496E+03  1.08732781E+03  1.87626421E+02
  1.16041466E+03  4.34187588E+01  2.19561270E+03  0.00000000E+00  1.05648788E+02
  1.07908863E+02  1.46638650E+01  8.83744760E+01  1.17854122E+01  1.15327881E+02
  9.56748258E+01  1.34932874E+01  9.40124296E+01  2.01792524E+00  2.04498832E+02
  1.50233639E+01  0.00000000E+00  1.16187983E+02  1.18043746E+02  1.63092814E+01
  9.73010751E+01  1.31591746E+01  1.26451907E+02  1.04660679E+02  1.50233639E+01
  1.03580945E+02  2.33864085E+00  2.22617115E+02  1.66953734E+01  1.85196588E+01
  0.00000000E+00  7.86143341E+02  7.26401607E+02  1.34202904E+02  6.71707542E+02
  1.15714272E+02  8.11089111E+02  6.44046702E+02  1.25890352E+02  7.23919256E+02
  3.73323452E+01  1.25402877E+03  1.35459444E+02  1.45627140E+02  6.49662513E+02
  0.00000000E+00  7.96623830E+02  7.98503321E+02  1.15043692E+02  6.69052116E+02
  9.37389650E+01  8.60418490E+02  7.07973972E+02  1.06257391E+02  7.13494276E+02
  1.82724599E+01  1.48732626E+03  1.17523619E+02  1.29768178E+02  9.42322028E+02
  8.98825605E+02
%FLAG BONDS_INC_HYDROGEN                                                        
%FORMAT(10I8)                                                                   
      87      90      30      81      84      31      75      78      31      60
      63      32      60      66      32      51      54      33      33      36
      34      24      27      35      15      18      31       6       9      36
       6      12      36       0       3      30     189     192      30     183
     186      31     177     180      31     162     165      32     162     168
      32     153     156      33     135     138      34     126     129      35
     117     120      31     108     111      36     108     114      36     291
     294      30     285     288      31     279     282      31     264     267
      32     264     270      32     255     258      33     237     240      34
     228     231      35     219     222      31     210     213      36     210
     216      36     381     384      30     375     378      31     369     372
      31     357     360      33     345     348      37     339     342      38
     330     333      35     321     324      31     312     315      36     312
     318      36     471     474      30     465     468      31     459     462
      31     447     450      33     435     438      37     429     432      38
     420     423      35     411     414      31     402     405      36     402
     408      36     570     573      30     564     567      31     558     561
      31     546     549      39     534     537      32     534     540      32
     519     522      40     510     513      35     501     504      31     492
     495      36     492     498      36     672     675      30     666     669
      31     660     663      31     645     648      32     645     651      32
     636     639      33     618     621      34     609     612      35     600
     603      31     591     594      36     591     597      36     774     777
      30     768     771      31     762     765      31     747     750      32
     747     753      32     738     741      33     720     723      34     711
     714      35     702     705      31     693     696      36     693     699
      36     876     879      30     870     873      31     864     867      31
     849     852      32     849     855      32     840     843      33     822
     825      34     813     816      35     804     807      31     795     798
      36     795     801      36     966     969      30     960     963      31
     954     957      31     942     945      33     930     933      37     924
     927      38     915     918      35     906     909      31     897     900
      36     897     903      36    1056    1059      30    1050    1053      31
    1044    1047      31    1032    1035      33    1020    1023      37    1014
    1017      38    1005    1008      35     996     999      31     987     990
      36     987     993      36    1155    1158      30    1149    1152      31
    1143    1146      31    1131    1134      39    1119    1122      32    1119
    1125      32    1104    1107      40    1095    1098      35    1086    1089
      31    1077    1080      36    1077    1083      36    1257    1260      30
    1251    1254      31    1245    1248      31    1230    1233      32    1230
    1236      32    1221    1224      33    1203    1206      34    1194    1197
      35    1185    1188      31    1176    1179      36    1176    1182      36
    1359    1362      30    1353    1356      31    1347    1350      31    1332
    1335      32    1332    1338      32    1323    1326      33    1305    1308
      34    1296    1299      35    1287    1290      31    1278    1281      36
    1278    1284      36    1461    1464      30    1455    1458      31    1449
    1452      31    1434    1437      32    1434    1440      32    1425    1428
      33    1407    1410      34    1398    1401      35    1389    1392      31
    1380    1383      36    1380    1386      36    1551    1554      30    1545
    1548      31    1539    1542      31    1527    1530      33    1515    1518
      37    1509    1512      38    1500    1503      35    1491    1494      31
    1482    1485      36    1482    1488      36    1641    1644      30    1635
    1638      31    1629    1632      31    1617    1620      33    1605    1608
      37    1599    1602      38    1590    1593      35    1581    1584      31
    1572    1575      36    1572    1578      36    1740    1743      30    1734
    1737      31    1728    1731      31    1716    1719      39    1704    1707
      32    1704    1710      32    1689    1692      40    1680    1683      35
    1671    1674      31    1662    1665      36    1662    1668      36    1842
    1845      30    1836    1839      31    1830    1833      31    1815    1818
      32    1815    1821      32    1806    1809      33    1788    1791      34
    1779    1782      35    1770    1773      31    1761    1764      36    1761
    1767      36    1944    1947      30    1938    1941      31    1932    1935
      31    1917    1920      32    1917    1923      32    1908    1911      33
    1890    1893      34    1881    1884      35    1872    1875      31    1863
    1866      36    1863    1869      36    2052    2055      30    2046    2049
      30    2040    2043      31    2034    2037      31    2019    2022      32
    2019    2025      32    2010    2013      33    1992    1995      34    1983
    1986      35    1974    1977      31    1965    1968      36    1965    1971
      36
%FLAG BONDS_WITHOUT_HYDROGEN                                                    
%FORMAT(10I8)                                                                   
      93      96       1      81      87       2      75      81       3      75
      93       4      69      72       5      57      60       6      57      69
       7      51      57       8      45      48       9      45      51      10
      42      45      11      42      72      12      39      42      13      33
      39      14      30      33      15      30      72      16      24      30
      17      24      81       3      21      24       4      15      21       4
      15      75       3       6      15      18       3       6      19     195
     198       1     183     189       2     177     183       3     177     195
       4     171     174       5     159     162       6     159     171       7
     153     159       8     147     150       9     147     153      10     144
     147      11     144     174      12     141     144      13     135     141
      14     132     135      15     132     174      16     126     132      17
     126     183       3     123     126       4     117     123       4     117
     177       3     108     117      18     105     108      20      96      99
      21      96     102      21      96     105       1     297     300       1
     285     291       2     279     285       3     279     297       4     273
     276       5     261     264       6     261     273       7     255     261
       8     249     252       9     249     255      10     246     249      11
     246     276      12     243     246      13     237     243      14     234
     237      15     234     276      16     228     234      17     228     285
       3     225     228       4     219     225       4     219     279       3
     210     219      18     207     210      20     198     201      21     198
     204      21     198     207       1     387     390       1     375     381
       2     369     375       3     369     387       4     363     366       9
     357     363      10     351     354       9     351     357      10     345
     351      22     339     345      23     336     339      24     336     363
      25     330     336      17     330     375       3     327     330       4
     321     327       4     321     369       3     312     321      18     309
     312      20     300     303      21     300     306      21     300     309
       1     477     480       1     465     471       2     459     465       3
     459     477       4     453     456       9     447     453      10     441
     444       9     441     447      10     435     441      22     429     435
      23     426     429      24     426     453      25     420     426      17
     420     465       3     417     420       4     411     417       4     411
     459       3     402     411      18     399     402      20     390     393
      21     390     396      21     390     399       1     576     579       1
     564     570       2     558     564       3     558     576       4     552
     555       5     546     552      26     543     546      26     531     534
       6     531     543       7     528     531      27     528     555      12
     525     528      13     519     525      28     516     519      29     516
     555      16     510     516      17     510     564       3     507     510
       4     501     507       4     501     558       3     492     501      18
     489     492      20     480     483      21     480     486      21     480
     489       1     678     681       1     666     672       2     660     666
       3     660     678       4     654     657       5     642     645       6
     642     654       7     636     642       8     630     633       9     630
     636      10     627     630      11     627     657      12     624     627
      13     618     624      14     615     618      15     615     657      16
     609     615      17     609     666       3     606     609       4     600
     606       4     600     660       3     591     600      18     588     591
      20     579     582      21     579     585      21     579     588       1
     780     783       1     768     774       2     762     768       3     762
     780       4     756     759       5     744     747       6     744     756
       7     738     744       8     732     735       9     732     738      10
     729     732      11     729     759      12     726     729      13     720
     726      14     717     720      15     717     759      16     711     717
      17     711     768       3     708     711       4     702     708       4
     702     762       3     693     702      18     690     693      20     681
     684      21     681     687      21     681     690       1     882     885
       1     870     876       2     864     870       3     864     882       4
     858     861       5     846     849       6     846     858       7     840
     846       8     834     837       9     834     840      10     831     834
      11     831     861      12     828     831      13     822     828      14
     819     822      15     819     861      16     813     819      17     813
     870       3     810     813       4     804     810       4     804     864
       3     795     804      18     792     795      20     783     786      21
     783     789      21     783     792       1     972     975       1     960
     966       2     954     960       3     954     972       4     948     951
       9     942     948      10     936     939       9     936     942      10
     930     936      22     924     930      23     921     924      24     921
     948      25     915     921      17     915     960       3     912     915
       4     906     912       4     906     954       3     897     906      18
     894     897      20     885     888      21     885     891      21     885
     894       1    1062    1065       1    1050    1056       2    1044    1050
       3    1044    1062       4    1038    1041       9    1032    1038      10
    1026    1029       9    1026    1032      10    1020    1026      22    1014
    1020      23    1011    1014      24    1011    1038      25    1005    1011
      17    1005    1050       3    1002    1005       4     996    1002       4
     996    1044       3     987     996      18     984     987      20     975
     978      21     975     981      21     975     984       1    1161    1164
       1    1149    1155       2    1143    1149       3    1143    1161       4
    1137    1140       5    1131    1137      26    1128    1131      26    1116
    1119       6    1116    1128       7    1113    1116      27    1113    1140
      12    1110    1113      13    1104    1110      28    1101    1104      29
    1101    1140      16    1095    1101      17    1095    1149       3    1092
    1095       4    1086    1092       4    1086    1143       3    1077    1086
      18    1074    1077      20    1065    1068      21    1065    1071      21
    1065    1074       1    1263    1266       1    1251    1257       2    1245
    1251       3    1245    1263       4    1239    1242       5    1227    1230
       6    1227    1239       7    1221    1227       8    1215    1218       9
    1215    1221      10    1212    1215      11    1212    1242      12    1209
    1212      13    1203    1209      14    1200    1203      15    1200    1242
      16    1194    1200      17    1194    1251       3    1191    1194       4
    1185    1191       4    1185    1245       3    1176    1185      18    1173
    1176      20    1164    1167      21    1164    1170      21    1164    1173
       1    1365    1368       1    1353    1359       2    1347    1353       3
    1347    1365       4    1341    1344       5    1329    1332       6    1329
    1341       7    1323    1329       8    1317    1320       9    1317    1323
      10    1314    1317      11    1314    1344      12    1311    1314      13
    1305    1311      14    1302    1305      15    1302    1344      16    1296
    1302      17    1296    1353       3    1293    1296       4    1287    1293
       4    1287    1347       3    1278    1287      18    1275    1278      20
    1266    1269      21    1266    1272      21    1266    1275       1    1467
    1470       1    1455    1461       2    1449    1455       3    1449    1467
       4    1443    1446       5    1431    1434       6    1431    1443       7
    1425    1431       8    1419    1422       9    1419    1425      10    1416
    1419      11    1416    1446      12    1413    1416      13    1407    1413
      14    1404    1407      15    1404    1446      16    1398    1404      17
    1398    1455       3    1395    1398       4    1389    1395       4    1389
    1449       3    1380    1389      18    1377    1380      20    1368    1371
      21    1368    1374      21    1368    1377       1    1557    1560       1
    1545    1551       2    1539    1545       3    1539    1557       4    1533
    1536       9    1527    1533      10    1521    1524       9    1521    1527
      10    1515    1521      22    1509    1515      23    1506    1509      24
    1506    1533      25    1500    1506      17    1500    1545       3    1497
    1500       4    1491    1497       4    1491    1539       3    1482    1491
      18    1479    1482      20    1470    1473      21    1470    1476      21
    1470    1479       1    1647    1650       1    1635    1641       2    1629
    1635       3    1629    1647       4    1623    1626       9    1617    1623
      10    1611    1614       9    1611    1617      10    1605    1611      22
    1599    1605      23    1596    1599      24    1596    1623      25    1590
    1596      17    1590    1635       3    1587    1590       4    1581    1587
       4    1581    1629       3    1572    1581      18    1569    1572      20
    1560    1563      21    1560    1566      21    1560    1569       1    1746
    1749       1    1734    1740       2    1728    1734       3    1728    1746
       4    1722    1725       5    1716    1722      26    1713    1716      26
    1701    1704       6    1701    1713       7    1698    1701      27    1698
    1725      12    1695    1698      13    1689    1695      28    1686    1689
      29    1686    1725      16    1680    1686      17    1680    1734       3
    1677    1680       4    1671    1677       4    1671    1728       3    1662
    1671      18    1659    1662      20    1650    1653      21    1650    1656
      21    1650    1659       1    1848    1851       1    1836    1842       2
    1830    1836       3    1830    1848       4    1824    1827       5    1812
    1815       6    1812    1824       7    1806    1812       8    1800    1803
       9    1800    1806      10    1797    1800      11    1797    1827      12
    1794    1797      13    1788    1794      14    1785    1788      15    1785
    1827      16    1779    1785      17    1779    1836       3    1776    1779
       4    1770    1776       4    1770    1830       3    1761    1770      18
    1758    1761      20    1749    1752      21    1749    1755      21    1749
    1758       1    1950    1953       1    1938    1944       2    1932    1938
       3    1932    1950       4    1926    1929       5    1914    1917       6
    1914    1926       7    1908    1914       8    1902    1905       9    1902
    1908      10    1899    1902      11    1899    1929      12    1896    1899
      13    1890    1896      14    1887    1890      15    1887    1929      16
    1881    1887      17    1881    1938       3    1878    1881       4    1872
    1878       4    1872    1932       3    1863    1872      18    1860    1863
      20    1851    1854      21    1851    1857      21    1851    1860       1
    2040    2046       2    2034    2040       3    2034    2052       2    2028
    2031       5    2016    2019       6    2016    2028       7    2010    2016
       8    2004    2007       9    2004    2010      10    2001    2004      11
    2001    2031      12    1998    2001      13    1992    1998      14    1989
    1992      15    1989    2031      16    1983    1989      17    1983    2040
       3    1980    1983       4    1974    1980       4    1974    2034       3
    1965    1974      18    1962    1965      20    1953    1956      21    1953
    1959      21    1953    1962       1
%FLAG ANGLES_INC_HYDROGEN                                                       
%FORMAT(10I8)                                                                   
      84      81      87      56      81      87      90      57      78      75
      81      58      78      75      93      59      75      81      84      58
      63      60      66      60      57      60      63      61      57      60
      66      61      54      51      57      62      45      51      54      63
      36      33      39      64      30      33      36      65      27      24
      30      66      27      24      81      67      24      81      84      58
      21      24      27      68      18      15      21      59      18      15
      75      58      15      75      78      58      12       6      15      69
       9       6      12      70       9       6      15      69       6      15
      18      71       3       6       9      72       3       6      12      72
       0       3       6      73     186     183     189      56     183     189
     192      57     180     177     183      58     180     177     195      59
     177     183     186      58     165     162     168      60     159     162
     165      61     159     162     168      61     156     153     159      62
     147     153     156      63     138     135     141      64     132     135
     138      65     129     126     132      66     129     126     183      67
     126     183     186      58     123     126     129      68     120     117
     123      59     120     117     177      58     117     177     180      58
     114     108     117      69     111     108     114      70     111     108
     117      69     108     117     120      71     105     108     111      74
     105     108     114      74     288     285     291      56     285     291
     294      57     282     279     285      58     282     279     297      59
     279     285     288      58     267     264     270      60     261     264
     267      61     261     264     270      61     258     255     261      62
     249     255     258      63     240     237     243      64     234     237
     240      65     231     228     234      66     231     228     285      67
     228     285     288      58     225     228     231      68     222     219
     225      59     222     219     279      58     219     279     282      58
     216     210     219      69     213     210     216      70     213     210
     219      69     210     219     222      71     207     210     213      74
     207     210     216      74     378     375     381      56     375     381
     384      57     372     369     375      58     372     369     387      59
     369     375     378      58     360     357     363      63     351     357
     360      63     348     345     351      75     342     339     345      76
     339     345     348      77     336     339     342      78     333     330
     336      66     333     330     375      67     330     375     378      58
     327     330     333      68     324     321     327      59     324     321
     369      58     321     369     372      58     318     312     321      69
     315     312     318      70     315     312     321      69     312     321
     324      71     309     312     315      74     309     312     318      74
     468     465     471      56     465     471     474      57     462     459
     465      58     462     459     477      59     459     465     468      58
     450     447     453      63     441     447     450      63     438     435
     441      75     432     429     435      76     429     435     438      77
     426     429     432      78     423     420     426      66     423     420
     465      67     420     465     468      58     417     420     423      68
     414     411     417      59     414     411     459      58     411     459
     462      58     408     402     411      69     405     402     408      70
     405     402     411      69     402     411     414      71     399     402
     405      74     399     402     408      74     567     564     570      56
     564     570     573      57     561     558     564      58     561     558
     576      59     558     564     567      58     549     546     552      79
     543     546     549      79     537     534     540      60     531     534
     537      61     531     534     540      61     522     519     525      80
     516     519     522      81     513     510     516      66     513     510
     564      67     510     564     567      58     507     510     513      68
     504     501     507      59     504     501     558      58     501     558
     561      58     498     492     501      69     495     492     498      70
     495     492     501      69     492     501     504      71     489     492
     495      74     489     492     498      74     669     666     672      56
     666     672     675      57     663     660     666      58     663     660
     678      59     660     666     669      58     648     645     651      60
     642     645     648      61     642     645     651      61     639     636
     642      62     630     636     639      63     621     618     624      64
     615     618     621      65     612     609     615      66     612     609
     666      67     609     666     669      58     606     609     612      68
     603     600     606      59     603     600     660      58     600     660
     663      58     597     591     600      69     594     591     597      70
     594     591     600      69     591     600     603      71     588     591
     594      74     588     591     597      74     771     768     774      56
     768     774     777      57     765     762     768      58     765     762
     780      59     762     768     771      58     750     747     753      60
     744     747     750      61     744     747     753      61     741     738
     744      62     732     738     741      63     723     720     726      64
     717     720     723      65     714     711     717      66     714     711
     768      67     711     768     771      58     708     711     714      68
     705     702     708      59     705     702     762      58     702     762
     765      58     699     693     702      69     696     693     699      70
     696     693     702      69     693     702     705      71     690     693
     696      74     690     693     699      74     873     870     876      56
     870     876     879      57     867     864     870      58     867     864
     882      59     864     870     873      58     852     849     855      60
     846     849     852      61     846     849     855      61     843     840
     846      62     834     840     843      63     825     822     828      64
     819     822     825      65     816     813     819      66     816     813
     870      67     813     870     873      58     810     813     816      68
     807     804     810      59     807     804     864      58     804     864
     867      58     801     795     804      69     798     795     801      70
     798     795     804      69     795     804     807      71     792     795
     798      74     792     795     801      74     963     960     966      56
     960     966     969      57     957     954     960      58     957     954
     972      59     954     960     963      58     945     942     948      63
     936     942     945      63     933     930     936      75     927     924
     930      76     924     930     933      77     921     924     927      78
     918     915     921      66     918     915     960      67     915     960
     963      58     912     915     918      68     909     906     912      59
     909     906     954      58     906     954     957      58     903     897
     906      69     900     897     903      70     900     897     906      69
     897     906     909      71     894     897     900      74     894     897
     903      74    1053    1050    1056      56    1050    1056    1059      57
    1047    1044    1050      58    1047    1044    1062      59    1044    1050
    1053      58    1035    1032    1038      63    1026    1032    1035      63
    1023    1020    1026      75    1017    1014    1020      76    1014    1020
    1023      77    1011    1014    1017      78    1008    1005    1011      66
    1008    1005    1050      67    1005    1050    1053      58    1002    1005
    1008      68     999     996    1002      59     999     996    1044      58
     996    1044    1047      58     993     987     996      69     990     987
     993      70     990     987     996      69     987     996     999      71
     984     987     990      74     984     987     993      74    1152    1149
    1155      56    1149    1155    1158      57    1146    1143    1149      58
    1146    1143    1161      59    1143    1149    1152      58    1134    1131
    1137      79    1128    1131    1134      79    1122    1119    1125      60
    1116    1119    1122      61    1116    1119    1125      61    1107    1104
    1110      80    1101    1104    1107      81    1098    1095    1101      66
    1098    1095    1149      67    1095    1149    1152      58    1092    1095
    1098      68    1089    1086    1092      59    1089    1086    1143      58
    1086    1143    1146      58    1083    1077    1086      69    1080    1077
    1083      70    1080    1077    1086      69    1077    1086    1089      71
    1074    1077    1080      74    1074    1077    1083      74    1254    1251
    1257      56    1251    1257    1260      57    1248    1245    1251      58
    1248    1245    1263      59    1245    1251    1254      58    1233    1230
    1236      60    1227    1230    1233      61    1227    1230    1236      61
    1224    1221    1227      62    1215    1221    1224      63    1206    1203
    1209      64    1200    1203    1206      65    1197    1194    1200      66
    1197    1194    1251      67    1194    1251    1254      58    1191    1194
    1197      68    1188    1185    1191      59    1188    1185    1245      58
    1185    1245    1248      58    1182    1176    1185      69    1179    1176
    1182      70    1179    1176    1185      69    1176    1185    1188      71
    1173    1176    1179      74    1173    1176    1182      74    1356    1353
    1359      56    1353    1359    1362      57    1350    1347    1353      58
    1350    1347    1365      59    1347    1353    1356      58    1335    1332
    1338      60    1329    1332    1335      61    1329    1332    1338      61
    1326    1323    1329      62    1317    1323    1326      63    1308    1305
    1311      64    1302    1305    1308      65    1299    1296    1302      66
    1299    1296    1353      67    1296    1353    1356      58    1293    1296
    1299      68    1290    1287    1293      59    1290    1287    1347      58
    1287    1347    1350      58    1284    1278    1287      69    1281    1278
    1284      70    1281    1278    1287      69    1278    1287    1290      71
    1275    1278    1281      74    1275    1278    1284      74    1458    1455
    1461      56    1455    1461    1464      57    1452    1449    1455      58
    1452    1449    1467      59    1449    1455    1458      58    1437    1434
    1440      60    1431    1434    1437      61    1431    1434    1440      61
    1428    1425    1431      62    1419    1425    1428      63    1410    1407
    1413      64    1404    1407    1410      65    1401    1398    1404      66
    1401    1398    1455      67    1398    1455    1458      58    1395    1398
    1401      68    1392    1389    1395      59    1392    1389    1449      58
    1389    1449    1452      58    1386    1380    1389      69    1383    1380
    1386      70    1383    1380    1389      69    1380    1389    1392      71
    1377    1380    1383      74    1377    1380    1386      74    1548    1545
    1551      56    1545    1551    1554      57    1542    1539    1545      58
    1542    1539    1557      59    1539    1545    1548      58    1530    1527
    1533      63    1521    1527    1530      63    1518    1515    1521      75
    1512    1509    1515      76    1509    1515    1518      77    1506    1509
    1512      78    1503    1500    1506      66    1503    1500    1545      67
    1500    1545    1548      58    1497    1500    1503      68    1494    1491
    1497      59    1494    1491    1539      58    1491    1539    1542      58
    1488    1482    1491      69    1485    1482    1488      70    1485    1482
    1491      69    1482    1491    1494      71    1479    1482    1485      74
    1479    1482    1488      74    1638    1635    1641      56    1635    1641
    1644      57    1632    1629    1635      58    1632    1629    1647      59
    1629    1635    1638      58    1620    1617    1623      63    1611    1617
    1620      63    1608    1605    1611      75    1602    1599    1605      76
    1599    1605    1608      77    1596    1599    1602      78    1593    1590
    1596      66    1593    1590    1635      67    1590    1635    1638      58
    1587    1590    1593      68    1584    1581    1587      59    1584    1581
    1629      58    1581    1629    1632      58    1578    1572    1581      69
    1575    1572    1578      70    1575    1572    1581      69    1572    1581
    1584      71    1569    1572    1575      74    1569    1572    1578      74
    1737    1734    1740      56    1734    1740    1743      57    1731    1728
    1734      58    1731    1728    1746      59    1728    1734    1737      58
    1719    1716    1722      79    1713    1716    1719      79    1707    1704
    1710      60    1701    1704    1707      61    1701    1704    1710      61
    1692    1689    1695      80    1686    1689    1692      81    1683    1680
    1686      66    1683    1680    1734      67    1680    1734    1737      58
    1677    1680    1683      68    1674    1671    1677      59    1674    1671
    1728      58    1671    1728    1731      58    1668    1662    1671      69
    1665    1662    1668      70    1665    1662    1671      69    1662    1671
    1674      71    1659    1662    1665      74    1659    1662    1668      74
    1839    1836    1842      56    1836    1842    1845      57    1833    1830
    1836      58    1833    1830    1848      59    1830    1836    1839      58
    1818    1815    1821      60    1812    1815    1818      61    1812    1815
    1821      61    1809    1806    1812      62    1800    1806    1809      63
    1791    1788    1794      64    1785    1788    1791      65    1782    1779
    1785      66    1782    1779    1836      67    1779    1836    1839      58
    1776    1779    1782      68    1773    1770    1776      59    1773    1770
    1830      58    1770    1830    1833      58    1767    1761    1770      69
    1764    1761    1767      70    1764    1761    1770      69    1761    1770
    1773      71    1758    1761    1764      74    1758    1761    1767      74
    1941    1938    1944      56    1938    1944    1947      57    1935    1932
    1938      58    1935    1932    1950      59    1932    1938    1941      58
    1920    1917    1923      60    1914    1917    1920      61    1914    1917
    1923      61    1911    1908    1914      62    1902    1908    1911      63
    1893    1890    1896      64    1887    1890    1893      65    1884    1881
    1887      66    1884    1881    1938      67    1881    1938    1941      58
    1878    1881    1884      68    1875    1872    1878      59    1875    1872
    1932      58    1872    1932    1935      58    1869    1863    1872      69
    1866    1863    1869      70    1866    1863    1872      69    1863    1872
    1875      71    1860    1863    1866      74    1860    1863    1869      74
    2043    2040    2046      56    2040    2046    2049      57    2037    2034
    2040      58    2037    2034    2052      56    2034    2040    2043      58
    2034    2052    2055      57    2022    2019    2025      60    2016    2019
    2022      61    2016    2019    2025      61    2013    2010    2016      62
    2004    2010    2013      63    1995    1992    1998      64    1989    1992
    1995      65    1986    1983    1989      66    1986    1983    2040      67
    1983    2040    2043      58    1980    1983    1986      68    1977    1974
    1980      59    1977    1974    2034      58    1974    2034    2037      58
    1971    1965    1974      69    1968    1965    1971      70    1968    1965
    1974      69    1965    1974    1977      71    1962    1965    1968      74
    1962    1965    1971      74
%FLAG ANGLES_WITHOUT_HYDROGEN                                                   
%FORMAT(10I8)                                                                   
      93      96      99       1      93      96     102       1      93      96
     105       2      81      75      93       3      75      81      87       4
      75      93      96       5      60      57      69       6      57      69
      72       7      51      57      60       8      51      57      69       9
      48      45      51      10      45      42      72      11      45      51
      57      12      42      45      48      13      42      45      51      14
      42      72      69      15      39      42      45      16      39      42
      72      17      33      30      72      18      33      39      42      19
      30      24      81      20      30      33      39      21      30      72
      42      22      30      72      69      23      24      30      33      24
      24      30      72      25      24      81      75      26      24      81
      87       4      21      15      75       3      21      24      30      27
      21      24      81       3      15      21      24      28      15      75
      81      26      15      75      93       3       6      15      21      29
       6      15      75      30       3       6      15      31     195     198
     201       1     195     198     204       1     195     198     207       2
     183     177     195       3     177     183     189       4     177     195
     198       5     162     159     171       6     159     171     174       7
     153     159     162       8     153     159     171       9     150     147
     153      10     147     144     174      11     147     153     159      12
     144     147     150      13     144     147     153      14     144     174
     171      15     141     144     147      16     141     144     174      17
     135     132     174      18     135     141     144      19     132     126
     183      20     132     135     141      21     132     174     144      22
     132     174     171      23     126     132     135      24     126     132
     174      25     126     183     177      26     126     183     189       4
     123     117     177       3     123     126     132      27     123     126
     183       3     117     123     126      28     117     177     183      26
     117     177     195       3     108     117     123      29     108     117
     177      30     105     108     117      32     102      96     105       1
      99      96     102      33      99      96     105       1      96     105
     108      34     297     300     303       1     297     300     306       1
     297     300     309       2     285     279     297       3     279     285
     291       4     279     297     300       5     264     261     273       6
     261     273     276       7     255     261     264       8     255     261
     273       9     252     249     255      10     249     246     276      11
     249     255     261      12     246     249     252      13     246     249
     255      14     246     276     273      15     243     246     249      16
     243     246     276      17     237     234     276      18     237     243
     246      19     234     228     285      20     234     237     243      21
     234     276     246      22     234     276     273      23     228     234
     237      24     228     234     276      25     228     285     279      26
     228     285     291       4     225     219     279       3     225     228
     234      27     225     228     285       3     219     225     228      28
     219     279     285      26     219     279     297       3     210     219
     225      29     210     219     279      30     207     210     219      32
     204     198     207       1     201     198     204      33     201     198
     207       1     198     207     210      34     387     390     393       1
     387     390     396       1     387     390     399       2     375     369
     387       3     369     375     381       4     369     387     390       5
     357     363     366      10     354     351     357      10     351     357
     363      35     345     351     354      36     345     351     357      37
     339     336     363      38     339     345     351      39     336     330
     375      20     336     339     345      40     336     363     357      41
     336     363     366      42     330     336     339      43     330     336
     363      44     330     375     369      26     330     375     381       4
     327     321     369       3     327     330     336      27     327     330
     375       3     321     327     330      28     321     369     375      26
     321     369     387       3     312     321     327      29     312     321
     369      30     309     312     321      32     306     300     309       1
     303     300     306      33     303     300     309       1     300     309
     312      34     477     480     483       1     477     480     486       1
     477     480     489       2     465     459     477       3     459     465
     471       4     459     477     480       5     447     453     456      10
     444     441     447      10     441     447     453      35     435     441
     444      36     435     441     447      37     429     426     453      38
     429     435     441      39     426     420     465      20     426     429
     435      40     426     453     447      41     426     453     456      42
     420     426     429      43     420     426     453      44     420     465
     459      26     420     465     471       4     417     411     459       3
     417     420     426      27     417     420     465       3     411     417
     420      28     411     459     465      26     411     459     477       3
     402     411     417      29     402     411     459      30     399     402
     411      32     396     390     399       1     393     390     396      33
     393     390     399       1     390     399     402      34     576     579
     582       1     576     579     585       1     576     579     588       2
     564     558     576       3     558     564     570       4     558     576
     579       5     546     552     555      45     543     546     552      46
     534     531     543       6     531     528     555      47     531     543
     546      48     528     531     534      49     528     531     543      50
     528     555     552      15     525     528     531      51     525     528
     555      17     519     516     555      52     519     525     528      53
     516     510     564      20     516     519     525      54     516     555
     528      22     516     555     552      23     510     516     519      55
     510     516     555      25     510     564     558      26     510     564
     570       4     507     501     558       3     507     510     516      27
     507     510     564       3     501     507     510      28     501     558
     564      26     501     558     576       3     492     501     507      29
     492     501     558      30     489     492     501      32     486     480
     489       1     483     480     486      33     483     480     489       1
     480     489     492      34     678     681     684       1     678     681
     687       1     678     681     690       2     666     660     678       3
     660     666     672       4     660     678     681       5     645     642
     654       6     642     654     657       7     636     642     645       8
     636     642     654       9     633     630     636      10     630     627
     657      11     630     636     642      12     627     630     633      13
     627     630     636      14     627     657     654      15     624     627
     630      16     624     627     657      17     618     615     657      18
     618     624     627      19     615     609     666      20     615     618
     624      21     615     657     627      22     615     657     654      23
     609     615     618      24     609     615     657      25     609     666
     660      26     609     666     672       4     606     600     660       3
     606     609     615      27     606     609     666       3     600     606
     609      28     600     660     666      26     600     660     678       3
     591     600     606      29     591     600     660      30     588     591
     600      32     585     579     588       1     582     579     585      33
     582     579     588       1     579     588     591      34     780     783
     786       1     780     783     789       1     780     783     792       2
     768     762     780       3     762     768     774       4     762     780
     783       5     747     744     756       6     744     756     759       7
     738     744     747       8     738     744     756       9     735     732
     738      10     732     729     759      11     732     738     744      12
     729     732     735      13     729     732     738      14     729     759
     756      15     726     729     732      16     726     729     759      17
     720     717     759      18     720     726     729      19     717     711
     768      20     717     720     726      21     717     759     729      22
     717     759     756      23     711     717     720      24     711     717
     759      25     711     768     762      26     711     768     774       4
     708     702     762       3     708     711     717      27     708     711
     768       3     702     708     711      28     702     762     768      26
     702     762     780       3     693     702     708      29     693     702
     762      30     690     693     702      32     687     681     690       1
     684     681     687      33     684     681     690       1     681     690
     693      34     882     885     888       1     882     885     891       1
     882     885     894       2     870     864     882       3     864     870
     876       4     864     882     885       5     849     846     858       6
     846     858     861       7     840     846     849       8     840     846
     858       9     837     834     840      10     834     831     861      11
     834     840     846      12     831     834     837      13     831     834
     840      14     831     861     858      15     828     831     834      16
     828     831     861      17     822     819     861      18     822     828
     831      19     819     813     870      20     819     822     828      21
     819     861     831      22     819     861     858      23     813     819
     822      24     813     819     861      25     813     870     864      26
     813     870     876       4     810     804     864       3     810     813
     819      27     810     813     870       3     804     810     813      28
     804     864     870      26     804     864     882       3     795     804
     810      29     795     804     864      30     792     795     804      32
     789     783     792       1     786     783     789      33     786     783
     792       1     783     792     795      34     972     975     978       1
     972     975     981       1     972     975     984       2     960     954
     972       3     954     960     966       4     954     972     975       5
     942     948     951      10     939     936     942      10     936     942
     948      35     930     936     939      36     930     936     942      37
     924     921     948      38     924     930     936      39     921     915
     960      20     921     924     930      40     921     948     942      41
     921     948     951      42     915     921     924      43     915     921
     948      44     915     960     954      26     915     960     966       4
     912     906     954       3     912     915     921      27     912     915
     960       3     906     912     915      28     906     954     960      26
     906     954     972       3     897     906     912      29     897     906
     954      30     894     897     906      32     891     885     894       1
     888     885     891      33     888     885     894       1     885     894
     897      34    1062    1065    1068       1    1062    1065    1071       1
    1062    1065    1074       2    1050    1044    1062       3    1044    1050
    1056       4    1044    1062    1065       5    1032    1038    1041      10
    1029    1026    1032      10    1026    1032    1038      35    1020    1026
    1029      36    1020    1026    1032      37    1014    1011    1038      38
    1014    1020    1026      39    1011    1005    1050      20    1011    1014
    1020      40    1011    1038    1032      41    1011    1038    1041      42
    1005    1011    1014      43    1005    1011    1038      44    1005    1050
    1044      26    1005    1050    1056       4    1002     996    1044       3
    1002    1005    1011      27    1002    1005    1050       3     996    1002
    1005      28     996    1044    1050      26     996    1044    1062       3
     987     996    1002      29     987     996    1044      30     984     987
     996      32     981     975     984       1     978     975     981      33
     978     975     984       1     975     984     987      34    1161    1164
    1167       1    1161    1164    1170       1    1161    1164    1173       2
    1149    1143    1161       3    1143    1149    1155       4    1143    1161
    1164       5    1131    1137    1140      45    1128    1131    1137      46
    1119    1116    1128       6    1116    1113    1140      47    1116    1128
    1131      48    1113    1116    1119      49    1113    1116    1128      50
    1113    1140    1137      15    1110    1113    1116      51    1110    1113
    1140      17    1104    1101    1140      52    1104    1110    1113      53
    1101    1095    1149      20    1101    1104    1110      54    1101    1140
    1113      22    1101    1140    1137      23    1095    1101    1104      55
    1095    1101    1140      25    1095    1149    1143      26    1095    1149
    1155       4    1092    1086    1143       3    1092    1095    1101      27
    1092    1095    1149       3    1086    1092    1095      28    1086    1143
    1149      26    1086    1143    1161       3    1077    1086    1092      29
    1077    1086    1143      30    1074    1077    1086      32    1071    1065
    1074       1    1068    1065    1071      33    1068    1065    1074       1
    1065    1074    1077      34    1263    1266    1269       1    1263    1266
    1272       1    1263    1266    1275       2    1251    1245    1263       3
    1245    1251    1257       4    1245    1263    1266       5    1230    1227
    1239       6    1227    1239    1242       7    1221    1227    1230       8
    1221    1227    1239       9    1218    1215    1221      10    1215    1212
    1242      11    1215    1221    1227      12    1212    1215    1218      13
    1212    1215    1221      14    1212    1242    1239      15    1209    1212
    1215      16    1209    1212    1242      17    1203    1200    1242      18
    1203    1209    1212      19    1200    1194    1251      20    1200    1203
    1209      21    1200    1242    1212      22    1200    1242    1239      23
    1194    1200    1203      24    1194    1200    1242      25    1194    1251
    1245      26    1194    1251    1257       4    1191    1185    1245       3
    1191    1194    1200      27    1191    1194    1251       3    1185    1191
    1194      28    1185    1245    1251      26    1185    1245    1263       3
    1176    1185    1191      29    1176    1185    1245      30    1173    1176
    1185      32    1170    1164    1173       1    1167    1164    1170      33
    1167    1164    1173       1    1164    1173    1176      34    1365    1368
    1371       1    1365    1368    1374       1    1365    1368    1377       2
    1353    1347    1365       3    1347    1353    1359       4    1347    1365
    1368       5    1332    1329    1341       6    1329    1341    1344       7
    1323    1329    1332       8    1323    1329    1341       9    1320    1317
    1323      10    1317    1314    1344      11    1317    1323    1329      12
    1314    1317    1320      13    1314    1317    1323      14    1314    1344
    1341      15    1311    1314    1317      16    1311    1314    1344      17
    1305    1302    1344      18    1305    1311    1314      19    1302    1296
    1353      20    1302    1305    1311      21    1302    1344    1314      22
    1302    1344    1341      23    1296    1302    1305      24    1296    1302
    1344      25    1296    1353    1347      26    1296    1353    1359       4
    1293    1287    1347       3    1293    1296    1302      27    1293    1296
    1353       3    1287    1293    1296      28    1287    1347    1353      26
    1287    1347    1365       3    1278    1287    1293      29    1278    1287
    1347      30    1275    1278    1287      32    1272    1266    1275       1
    1269    1266    1272      33    1269    1266    1275       1    1266    1275
    1278      34    1467    1470    1473       1    1467    1470    1476       1
    1467    1470    1479       2    1455    1449    1467       3    1449    1455
    1461       4    1449    1467    1470       5    1434    1431    1443       6
    1431    1443    1446       7    1425    1431    1434       8    1425    1431
    1443       9    1422    1419    1425      10    1419    1416    1446      11
    1419    1425    1431      12    1416    1419    1422      13    1416    1419
    1425      14    1416    1446    1443      15    1413    1416    1419      16
    1413    1416    1446      17    1407    1404    1446      18    1407    1413
    1416      19    1404    1398    1455      20    1404    1407    1413      21
    1404    1446    1416      22    1404    1446    1443      23    1398    1404
    1407      24    1398    1404    1446      25    1398    1455    1449      26
    1398    1455    1461       4    1395    1389    1449       3    1395    1398
    1404      27    1395    1398    1455       3    1389    1395    1398      28
    1389    1449    1455      26    1389    1449    1467       3    1380    1389
    1395      29    1380    1389    1449      30    1377    1380    1389      32
    1374    1368    1377       1    1371    1368    1374      33    1371    1368
    1377       1    1368    1377    1380      34    1557    1560    1563       1
    1557    1560    1566       1    1557    1560    1569       2    1545    1539
    1557       3    1539    1545    1551       4    1539    1557    1560       5
    1527    1533    1536      10    1524    1521    1527      10    1521    1527
    1533      35    1515    1521    1524      36    1515    1521    1527      37
    1509    1506    1533      38    1509    1515    1521      39    1506    1500
    1545      20    1506    1509    1515      40    1506    1533    1527      41
    1506    1533    1536      42    1500    1506    1509      43    1500    1506
    1533      44    1500    1545    1539      26    1500    1545    1551       4
    1497    1491    1539       3    1497    1500    1506      27    1497    1500
    1545       3    1491    1497    1500      28    1491    1539    1545      26
    1491    1539    1557       3    1482    1491    1497      29    1482    1491
    1539      30    1479    1482    1491      32    1476    1470    1479       1
    1473    1470    1476      33    1473    1470    1479       1    1470    1479
    1482      34    1647    1650    1653       1    1647    1650    1656       1
    1647    1650    1659       2    1635    1629    1647       3    1629    1635
    1641       4    1629    1647    1650       5    1617    1623    1626      10
    1614    1611    1617      10    1611    1617    1623      35    1605    1611
    1614      36    1605    1611    1617      37    1599    1596    1623      38
    1599    1605    1611      39    1596    1590    1635      20    1596    1599
    1605      40    1596    1623    1617      41    1596    1623    1626      42
    1590    1596    1599      43    1590    1596    1623      44    1590    1635
    1629      26    1590    1635    1641       4    1587    1581    1629       3
    1587    1590    1596      27    1587    1590    1635       3    1581    1587
    1590      28    1581    1629    1635      26    1581    1629    1647       3
    1572    1581    1587      29    1572    1581    1629      30    1569    1572
    1581      32    1566    1560    1569       1    1563    1560    1566      33
    1563    1560    1569       1    1560    1569    1572      34    1746    1749
    1752       1    1746    1749    1755       1    1746    1749    1758       2
    1734    1728    1746       3    1728    1734    1740       4    1728    1746
    1749       5    1716    1722    1725      45    1713    1716    1722      46
    1704    1701    1713       6    1701    1698    1725      47    1701    1713
    1716      48    1698    1701    1704      49    1698    1701    1713      50
    1698    1725    1722      15    1695    1698    1701      51    1695    1698
    1725      17    1689    1686    1725      52    1689    1695    1698      53
    1686    1680    1734      20    1686    1689    1695      54    1686    1725
    1698      22    1686    1725    1722      23    1680    1686    1689      55
    1680    1686    1725      25    1680    1734    1728      26    1680    1734
    1740       4    1677    1671    1728       3    1677    1680    1686      27
    1677    1680    1734       3    1671    1677    1680      28    1671    1728
    1734      26    1671    1728    1746       3    1662    1671    1677      29
    1662    1671    1728      30    1659    1662    1671      32    1656    1650
    1659       1    1653    1650    1656      33    1653    1650    1659       1
    1650    1659    1662      34    1848    1851    1854       1    1848    1851
    1857       1    1848    1851    1860       2    1836    1830    1848       3
    1830    1836    1842       4    1830    1848    1851       5    1815    1812
    1824       6    1812    1824    1827       7    1806    1812    1815       8
    1806    1812    1824       9    1803    1800    1806      10    1800    1797
    1827      11    1800    1806    1812      12    1797    1800    1803      13
    1797    1800    1806      14    1797    1827    1824      15    1794    1797
    1800      16    1794    1797    1827      17    1788    1785    1827      18
    1788    1794    1797      19    1785    1779    1836      20    1785    1788
    1794      21    1785    1827    1797      22    1785    1827    1824      23
    1779    1785    1788      24    1779    1785    1827      25    1779    1836
    1830      26    1779    1836    1842       4    1776    1770    1830       3
    1776    1779    1785      27    1776    1779    1836       3    1770    1776
    1779      28    1770    1830    1836      26    1770    1830    1848       3
    1761    1770    1776      29    1761    1770    1830      30    1758    1761
    1770      32    1755    1749    1758       1    1752    1749    1755      33
    1752    1749    1758       1    1749    1758    1761      34    1950    1953
    1956       1    1950    1953    1959       1    1950    1953    1962       2
    1938    1932    1950       3    1932    1938    1944       4    1932    1950
    1953       5    1917    1914    1926       6    1914    1926    1929       7
    1908    1914    1917       8    1908    1914    1926       9    1905    1902
    1908      10    1902    1899    1929      11    1902    1908    1914      12
    1899    1902    1905      13    1899    1902    1908      14    1899    1929
    1926      15    1896    1899    1902      16    1896    1899    1929      17
    1890    1887    1929      18    1890    1896    1899      19    1887    1881
    1938      20    1887    1890    1896      21    1887    1929    1899      22
    1887    1929    1926      23    1881    1887    1890      24    1881    1887
    1929      25    1881    1938    1932      26    1881    1938    1944       4
    1878    1872    1932       3    1878    1881    1887      27    1878    1881
    1938       3    1872    1878    1881      28    1872    1932    1938      26
    1872    1932    1950       3    1863    1872    1878      29    1863    1872
    1932      30    1860    1863    1872      32    1857    1851    1860       1
    1854    1851    1857      33    1854    1851    1860       1    1851    1860
    1863      34    2040    2034    2052       4    2034    2040    2046       4
    2019    2016    2028       6    2016    2028    2031       7    2010    2016
    2019       8    2010    2016    2028       9    2007    2004    2010      10
    2004    2001    2031      11    2004    2010    2016      12    2001    2004
    2007      13    2001    2004    2010      14    2001    2031    2028      15
    1998    2001    2004      16    1998    2001    2031      17    1992    1989
    2031      18    1992    1998    2001      19    1989    1983    2040      20
    1989    1992    1998      21    1989    2031    2001      22    1989    2031
    2028      23    1983    1989    1992      24    1983    1989    2031      25
    1983    2040    2034      26    1983    2040    2046       4    1980    1974
    2034       3    1980    1983    1989      27    1980    1983    2040       3
    1974    1980    1983      28    1974    2034    2040      26    1974    2034
    2052       4    1965    1974    1980      29    1965    1974    2034      30
    1962    1965    1974      32    1959    1953    1962       1    1956    1953
    1959      33    1956    1953    1962       1    1953    1962    1965      34
%FLAG DIHEDRALS_INC_HYDROGEN                                                    
%FORMAT(10I8)                                                                   
      84      81      75      93      53      84      81     -75      93      54
      84      81      87      90      55      78      75      81      84      19
      78      75      81      87      53      78      75     -81      87      54
      78      75      93      96       6      75      81      87      90      53
      75      81     -87      90      56      66      60      57      69      57
      63      60      57      69      57      54      51      57      60      14
      54      51      57      69      14      51      57      60      63      57
      51      57      60      66      57      48      45      51      54      12
      42      45      51      54      12      36      33      30      72      16
      36      33      39      42      20      30      24      81      84      19
      27      24      30      33       9      27      24      30      72       9
      27      24      81      75      19      27      24      81      84      19
      27      24      81      87      19      24      30      33      36      16
      24      81      75      78      19      24      81      87      90      53
      24      81     -87      90      56      21      15      75      78      53
      21      15     -75      78      54      21      24      81      84      53
      21      24     -81      84      54      18      15      21      24       6
      18      15      75      78      19      18      15      75      81      19
      18      15      75      93      53      18      15     -75      93      54
      15      21      24      27       6      15      75      81      84      19
      12       6      15      18      19      12       6      15      21      53
      12       6     -15      21      54      12       6      15      75      19
       9       6      15      18      19       9       6      15      21      53
       9       6     -15      21      54       9       6      15      75      19
       6      15      75      78      19       3       6      15      18      53
       3       6     -15      18      54       0       3       6       9      55
       0       3       6      12      55       0       3       6      15      55
     186     183     177     195      53     186     183    -177     195      54
     186     183     189     192      55     180     177     183     186      19
     180     177     183     189      53     180     177    -183     189      54
     180     177     195     198       6     177     183     189     192      53
     177     183    -189     192      56     168     162     159     171      57
     165     162     159     171      57     156     153     159     162      14
     156     153     159     171      14     153     159     162     165      57
     153     159     162     168      57     150     147     153     156      12
     144     147     153     156      12     138     135     132     174      16
     138     135     141     144      20     132     126     183     186      19
     129     126     132     135       9     129     126     132     174       9
     129     126     183     177      19     129     126     183     186      19
     129     126     183     189      19     126     132     135     138      16
     126     183     177     180      19     126     183     189     192      53
     126     183    -189     192      56     123     117     177     180      53
     123     117    -177     180      54     123     126     183     186      53
     123     126    -183     186      54     120     117     123     126       6
     120     117     177     180      19     120     117     177     183      19
     120     117     177     195      53     120     117    -177     195      54
     117     123     126     129       6     117     177     183     186      19
     114     108     117     120      19     114     108     117     123      53
     114     108    -117     123      54     114     108     117     177      19
     111     108     117     120      19     111     108     117     123      53
     111     108    -117     123      54     111     108     117     177      19
     108     117     177     180      19     105     108     117     120      53
     105     108    -117     120      54      96     105     108     111       6
      96     105     108     114       6     288     285     279     297      53
     288     285    -279     297      54     288     285     291     294      55
     282     279     285     288      19     282     279     285     291      53
     282     279    -285     291      54     282     279     297     300       6
     279     285     291     294      53     279     285    -291     294      56
     270     264     261     273      57     267     264     261     273      57
     258     255     261     264      14     258     255     261     273      14
     255     261     264     267      57     255     261     264     270      57
     252     249     255     258      12     246     249     255     258      12
     240     237     234     276      16     240     237     243     246      20
     234     228     285     288      19     231     228     234     237       9
     231     228     234     276       9     231     228     285     279      19
     231     228     285     288      19     231     228     285     291      19
     228     234     237     240      16     228     285     279     282      19
     228     285     291     294      53     228     285    -291     294      56
     225     219     279     282      53     225     219    -279     282      54
     225     228     285     288      53     225     228    -285     288      54
     222     219     225     228       6     222     219     279     282      19
     222     219     279     285      19     222     219     279     297      53
     222     219    -279     297      54     219     225     228     231       6
     219     279     285     288      19     216     210     219     222      19
     216     210     219     225      53     216     210    -219     225      54
     216     210     219     279      19     213     210     219     222      19
     213     210     219     225      53     213     210    -219     225      54
     213     210     219     279      19     210     219     279     282      19
     207     210     219     222      53     207     210    -219     222      54
     198     207     210     213       6     198     207     210     216       6
     378     375     369     387      53     378     375    -369     387      54
     378     375     381     384      55     372     369     375     378      19
     372     369     375     381      53     372     369    -375     381      54
     372     369     387     390       6     369     375     381     384      53
     369     375    -381     384      56     360     357     363     366      12
     354     351     357     360      12     348     345     351     354      36
     348     345     351     357      36     345     351     357     360      12
     342     339     336     363      34     342     339     345     348      38
     342     339     345     351      38     336     330     375     378      19
     336     339     345     348      38     336     363     357     360      12
     333     330     336     339       9     333     330     336     363       9
     333     330     375     369      19     333     330     375     378      19
     333     330     375     381      19     330     336     339     342      34
     330     375     369     372      19     330     375     381     384      53
     330     375    -381     384      56     327     321     369     372      53
     327     321    -369     372      54     327     330     375     378      53
     327     330    -375     378      54     324     321     327     330       6
     324     321     369     372      19     324     321     369     375      19
     324     321     369     387      53     324     321    -369     387      54
     321     327     330     333       6     321     369     375     378      19
     318     312     321     324      19     318     312     321     327      53
     318     312    -321     327      54     318     312     321     369      19
     315     312     321     324      19     315     312     321     327      53
     315     312    -321     327      54     315     312     321     369      19
     312     321     369     372      19     309     312     321     324      53
     309     312    -321     324      54     300     309     312     315       6
     300     309     312     318       6     468     465     459     477      53
     468     465    -459     477      54     468     465     471     474      55
     462     459     465     468      19     462     459     465     471      53
     462     459    -465     471      54     462     459     477     480       6
     459     465     471     474      53     459     465    -471     474      56
     450     447     453     456      12     444     441     447     450      12
     438     435     441     444      36     438     435     441     447      36
     435     441     447     450      12     432     429     426     453      34
     432     429     435     438      38     432     429     435     441      38
     426     420     465     468      19     426     429     435     438      38
     426     453     447     450      12     423     420     426     429       9
     423     420     426     453       9     423     420     465     459      19
     423     420     465     468      19     423     420     465     471      19
     420     426     429     432      34     420     465     459     462      19
     420     465     471     474      53     420     465    -471     474      56
     417     411     459     462      53     417     411    -459     462      54
     417     420     465     468      53     417     420    -465     468      54
     414     411     417     420       6     414     411     459     462      19
     414     411     459     465      19     414     411     459     477      53
     414     411    -459     477      54     411     417     420     423       6
     411     459     465     468      19     408     402     411     414      19
     408     402     411     417      53     408     402    -411     417      54
     408     402     411     459      19     405     402     411     414      19
     405     402     411     417      53     405     402    -411     417      54
     405     402     411     459      19     402     411     459     462      19
     399     402     411     414      53     399     402    -411     414      54
     390     399     402     405       6     390     399     402     408       6
     567     564     558     576      53     567     564    -558     576      54
     567     564     570     573      55     561     558     564     567      19
     561     558     564     570      53     561     558    -564     570      54
     561     558     576     579       6     558     564     570     573      53
     558     564    -570     573      56     549     546     552     555      44
     540     534     531     543      57     537     534     531     543      57
     531     543     546     549      44     528     531     534     537      57
     528     531     534     540      57     522     519     516     555      16
     522     519     525     528      20     516     510     564     567      19
     513     510     516     519       9     513     510     516     555       9
     513     510     564     558      19     513     510     564     567      19
     513     510     564     570      19     510     516     519     522      16
     510     564     558     561      19     510     564     570     573      53
     510     564    -570     573      56     507     501     558     561      53
     507     501    -558     561      54     507     510     564     567      53
     507     510    -564     567      54     504     501     507     510       6
     504     501     558     561      19     504     501     558     564      19
     504     501     558     576      53     504     501    -558     576      54
     501     507     510     513       6     501     558     564     567      19
     498     492     501     504      19     498     492     501     507      53
     498     492    -501     507      54     498     492     501     558      19
     495     492     501     504      19     495     492     501     507      53
     495     492    -501     507      54     495     492     501     558      19
     492     501     558     561      19     489     492     501     504      53
     489     492    -501     504      54     480     489     492     495       6
     480     489     492     498       6     669     666     660     678      53
     669     666    -660     678      54     669     666     672     675      55
     663     660     666     669      19     663     660     666     672      53
     663     660    -666     672      54     663     660     678     681       6
     660     666     672     675      53     660     666    -672     675      56
     651     645     642     654      57     648     645     642     654      57
     639     636     642     645      14     639     636     642     654      14
     636     642     645     648      57     636     642     645     651      57
     633     630     636     639      12     627     630     636     639      12
     621     618     615     657      16     621     618     624     627      20
     615     609     666     669      19     612     609     615     618       9
     612     609     615     657       9     612     609     666     660      19
     612     609     666     669      19     612     609     666     672      19
     609     615     618     621      16     609     666     660     663      19
     609     666     672     675      53     609     666    -672     675      56
     606     600     660     663      53     606     600    -660     663      54
     606     609     666     669      53     606     609    -666     669      54
     603     600     606     609       6     603     600     660     663      19
     603     600     660     666      19     603     600     660     678      53
     603     600    -660     678      54     600     606     609     612       6
     600     660     666     669      19     597     591     600     603      19
     597     591     600     606      53     597     591    -600     606      54
     597     591     600     660      19     594     591     600     603      19
     594     591     600     606      53     594     591    -600     606      54
     594     591     600     660      19     591     600     660     663      19
     588     591     600     603      53     588     591    -600     603      54
     579     588     591     594       6     579     588     591     597       6
     771     768     762     780      53     771     768    -762     780      54
     771     768     774     777      55     765     762     768     771      19
     765     762     768     774      53     765     762    -768     774      54
     765     762     780     783       6     762     768     774     777      53
     762     768    -774     777      56     753     747     744     756      57
     750     747     744     756      57     741     738     744     747      14
     741     738     744     756      14     738     744     747     750      57
     738     744     747     753      57     735     732     738     741      12
     729     732     738     741      12     723     720     717     759      16
     723     720     726     729      20     717     711     768     771      19
     714     711     717     720       9     714     711     717     759       9
     714     711     768     762      19     714     711     768     771      19
     714     711     768     774      19     711     717     720     723      16
     711     768     762     765      19     711     768     774     777      53
     711     768    -774     777      56     708     702     762     765      53
     708     702    -762     765      54     708     711     768     771      53
     708     711    -768     771      54     705     702     708     711       6
     705     702     762     765      19     705     702     762     768      19
     705     702     762     780      53     705     702    -762     780      54
     702     708     711     714       6     702     762     768     771      19
     699     693     702     705      19     699     693     702     708      53
     699     693    -702     708      54     699     693     702     762      19
     696     693     702     705      19     696     693     702     708      53
     696     693    -702     708      54     696     693     702     762      19
     693     702     762     765      19     690     693     702     705      53
     690     693    -702     705      54     681     690     693     696       6
     681     690     693     699       6     873     870     864     882      53
     873     870    -864     882      54     873     870     876     879      55
     867     864     870     873      19     867     864     870     876      53
     867     864    -870     876      54     867     864     882     885       6
     864     870     876     879      53     864     870    -876     879      56
     855     849     846     858      57     852     849     846     858      57
     843     840     846     849      14     843     840     846     858      14
     840     846     849     852      57     840     846     849     855      57
     837     834     840     843      12     831     834     840     843      12
     825     822     819     861      16     825     822     828     831      20
     819     813     870     873      19     816     813     819     822       9
     816     813     819     861       9     816     813     870     864      19
     816     813     870     873      19     816     813     870     876      19
     813     819     822     825      16     813     870     864     867      19
     813     870     876     879      53     813     870    -876     879      56
     810     804     864     867      53     810     804    -864     867      54
     810     813     870     873      53     810     813    -870     873      54
     807     804     810     813       6     807     804     864     867      19
     807     804     864     870      19     807     804     864     882      53
     807     804    -864     882      54     804     810     813     816       6
     804     864     870     873      19     801     795     804     807      19
     801     795     804     810      53     801     795    -804     810      54
     801     795     804     864      19     798     795     804     807      19
     798     795     804     810      53     798     795    -804     810      54
     798     795     804     864      19     795     804     864     867      19
     792     795     804     807      53     792     795    -804     807      54
     783     792     795     798       6     783     792     795     801       6
     963     960     954     972      53     963     960    -954     972      54
     963     960     966     969      55     957     954     960     963      19
     957     954     960     966      53     957     954    -960     966      54
     957     954     972     975       6     954     960     966     969      53
     954     960    -966     969      56     945     942     948     951      12
     939     936     942     945      12     933     930     936     939      36
     933     930     936     942      36     930     936     942     945      12
     927     924     921     948      34     927     924     930     933      38
     927     924     930     936      38     921     915     960     963      19
     921     924     930     933      38     921     948     942     945      12
     918     915     921     924       9     918     915     921     948       9
     918     915     960     954      19     918     915     960     963      19
     918     915     960     966      19     915     921     924     927      34
     915     960     954     957      19     915     960     966     969      53
     915     960    -966     969      56     912     906     954     957      53
     912     906    -954     957      54     912     915     960     963      53
     912     915    -960     963      54     909     906     912     915       6
     909     906     954     957      19     909     906     954     960      19
     909     906     954     972      53     909     906    -954     972      54
     906     912     915     918       6     906     954     960     963      19
     903     897     906     909      19     903     897     906     912      53
     903     897    -906     912      54     903     897     906     954      19
     900     897     906     909      19     900     897     906     912      53
     900     897    -906     912      54     900     897     906     954      19
     897     906     954     957      19     894     897     906     909      53
     894     897    -906     909      54     885     894     897     900       6
     885     894     897     903       6    1053    1050    1044    1062      53
    1053    1050   -1044    1062      54    1053    1050    1056    1059      55
    1047    1044    1050    1053      19    1047    1044    1050    1056      53
    1047    1044   -1050    1056      54    1047    1044    1062    1065       6
    1044    1050    1056    1059      53    1044    1050   -1056    1059      56
    1035    1032    1038    1041      12    1029    1026    1032    1035      12
    1023    1020    1026    1029      36    1023    1020    1026    1032      36
    1020    1026    1032    1035      12    1017    1014    1011    1038      34
    1017    1014    1020    1023      38    1017    1014    1020    1026      38
    1011    1005    1050    1053      19    1011    1014    1020    1023      38
    1011    1038    1032    1035      12    1008    1005    1011    1014       9
    1008    1005    1011    1038       9    1008    1005    1050    1044      19
    1008    1005    1050    1053      19    1008    1005    1050    1056      19
    1005    1011    1014    1017      34    1005    1050    1044    1047      19
    1005    1050    1056    1059      53    1005    1050   -1056    1059      56
    1002     996    1044    1047      53    1002     996   -1044    1047      54
    1002    1005    1050    1053      53    1002    1005   -1050    1053      54
     999     996    1002    1005       6     999     996    1044    1047      19
     999     996    1044    1050      19     999     996    1044    1062      53
     999     996   -1044    1062      54     996    1002    1005    1008       6
     996    1044    1050    1053      19     993     987     996     999      19
     993     987     996    1002      53     993     987    -996    1002      54
     993     987     996    1044      19     990     987     996     999      19
     990     987     996    1002      53     990     987    -996    1002      54
     990     987     996    1044      19     987     996    1044    1047      19
     984     987     996     999      53     984     987    -996     999      54
     975     984     987     990       6     975     984     987     993       6
    1152    1149    1143    1161      53    1152    1149   -1143    1161      54
    1152    1149    1155    1158      55    1146    1143    1149    1152      19
    1146    1143    1149    1155      53    1146    1143   -1149    1155      54
    1146    1143    1161    1164       6    1143    1149    1155    1158      53
    1143    1149   -1155    1158      56    1134    1131    1137    1140      44
    1125    1119    1116    1128      57    1122    1119    1116    1128      57
    1116    1128    1131    1134      44    1113    1116    1119    1122      57
    1113    1116    1119    1125      57    1107    1104    1101    1140      16
    1107    1104    1110    1113      20    1101    1095    1149    1152      19
    1098    1095    1101    1104       9    1098    1095    1101    1140       9
    1098    1095    1149    1143      19    1098    1095    1149    1152      19
    1098    1095    1149    1155      19    1095    1101    1104    1107      16
    1095    1149    1143    1146      19    1095    1149    1155    1158      53
    1095    1149   -1155    1158      56    1092    1086    1143    1146      53
    1092    1086   -1143    1146      54    1092    1095    1149    1152      53
    1092    1095   -1149    1152      54    1089    1086    1092    1095       6
    1089    1086    1143    1146      19    1089    1086    1143    1149      19
    1089    1086    1143    1161      53    1089    1086   -1143    1161      54
    1086    1092    1095    1098       6    1086    1143    1149    1152      19
    1083    1077    1086    1089      19    1083    1077    1086    1092      53
    1083    1077   -1086    1092      54    1083    1077    1086    1143      19
    1080    1077    1086    1089      19    1080    1077    1086    1092      53
    1080    1077   -1086    1092      54    1080    1077    1086    1143      19
    1077    1086    1143    1146      19    1074    1077    1086    1089      53
    1074    1077   -1086    1089      54    1065    1074    1077    1080       6
    1065    1074    1077    1083       6    1254    1251    1245    1263      53
    1254    1251   -1245    1263      54    1254    1251    1257    1260      55
    1248    1245    1251    1254      19    1248    1245    1251    1257      53
    1248    1245   -1251    1257      54    1248    1245    1263    1266       6
    1245    1251    1257    1260      53    1245    1251   -1257    1260      56
    1236    1230    1227    1239      57    1233    1230    1227    1239      57
    1224    1221    1227    1230      14    1224    1221    1227    1239      14
    1221    1227    1230    1233      57    1221    1227    1230    1236      57
    1218    1215    1221    1224      12    1212    1215    1221    1224      12
    1206    1203    1200    1242      16    1206    1203    1209    1212      20
    1200    1194    1251    1254      19    1197    1194    1200    1203       9
    1197    1194    1200    1242       9    1197    1194    1251    1245      19
    1197    1194    1251    1254      19    1197    1194    1251    1257      19
    1194    1200    1203    1206      16    1194    1251    1245    1248      19
    1194    1251    1257    1260      53    1194    1251   -1257    1260      56
    1191    1185    1245    1248      53    1191    1185   -1245    1248      54
    1191    1194    1251    1254      53    1191    1194   -1251    1254      54
    1188    1185    1191    1194       6    1188    1185    1245    1248      19
    1188    1185    1245    1251      19    1188    1185    1245    1263      53
    1188    1185   -1245    1263      54    1185    1191    1194    1197       6
    1185    1245    1251    1254      19    1182    1176    1185    1188      19
    1182    1176    1185    1191      53    1182    1176   -1185    1191      54
    1182    1176    1185    1245      19    1179    1176    1185    1188      19
    1179    1176    1185    1191      53    1179    1176   -1185    1191      54
    1179    1176    1185    1245      19    1176    1185    1245    1248      19
    1173    1176    1185    1188      53    1173    1176   -1185    1188      54
    1164    1173    1176    1179       6    1164    1173    1176    1182       6
    1356    1353    1347    1365      53    1356    1353   -1347    1365      54
    1356    1353    1359    1362      55    1350    1347    1353    1356      19
    1350    1347    1353    1359      53    1350    1347   -1353    1359      54
    1350    1347    1365    1368       6    1347    1353    1359    1362      53
    1347    1353   -1359    1362      56    1338    1332    1329    1341      57
    1335    1332    1329    1341      57    1326    1323    1329    1332      14
    1326    1323    1329    1341      14    1323    1329    1332    1335      57
    1323    1329    1332    1338      57    1320    1317    1323    1326      12
    1314    1317    1323    1326      12    1308    1305    1302    1344      16
    1308    1305    1311    1314      20    1302    1296    1353    1356      19
    1299    1296    1302    1305       9    1299    1296    1302    1344       9
    1299    1296    1353    1347      19    1299    1296    1353    1356      19
    1299    1296    1353    1359      19    1296    1302    1305    1308      16
    1296    1353    1347    1350      19    1296    1353    1359    1362      53
    1296    1353   -1359    1362      56    1293    1287    1347    1350      53
    1293    1287   -1347    1350      54    1293    1296    1353    1356      53
    1293    1296   -1353    1356      54    1290    1287    1293    1296       6
    1290    1287    1347    1350      19    1290    1287    1347    1353      19
    1290    1287    1347    1365      53    1290    1287   -1347    1365      54
    1287    1293    1296    1299       6    1287    1347    1353    1356      19
    1284    1278    1287    1290      19    1284    1278    1287    1293      53
    1284    1278   -1287    1293      54    1284    1278    1287    1347      19
    1281    1278    1287    1290      19    1281    1278    1287    1293      53
    1281    1278   -1287    1293      54    1281    1278    1287    1347      19
    1278    1287    1347    1350      19    1275    1278    1287    1290      53
    1275    1278   -1287    1290      54    1266    1275    1278    1281       6
    1266    1275    1278    1284       6    1458    1455    1449    1467      53
    1458    1455   -1449    1467      54    1458    1455    1461    1464      55
    1452    1449    1455    1458      19    1452    1449    1455    1461      53
    1452    1449   -1455    1461      54    1452    1449    1467    1470       6
    1449    1455    1461    1464      53    1449    1455   -1461    1464      56
    1440    1434    1431    1443      57    1437    1434    1431    1443      57
    1428    1425    1431    1434      14    1428    1425    1431    1443      14
    1425    1431    1434    1437      57    1425    1431    1434    1440      57
    1422    1419    1425    1428      12    1416    1419    1425    1428      12
    1410    1407    1404    1446      16    1410    1407    1413    1416      20
    1404    1398    1455    1458      19    1401    1398    1404    1407       9
    1401    1398    1404    1446       9    1401    1398    1455    1449      19
    1401    1398    1455    1458      19    1401    1398    1455    1461      19
    1398    1404    1407    1410      16    1398    1455    1449    1452      19
    1398    1455    1461    1464      53    1398    1455   -1461    1464      56
    1395    1389    1449    1452      53    1395    1389   -1449    1452      54
    1395    1398    1455    1458      53    1395    1398   -1455    1458      54
    1392    1389    1395    1398       6    1392    1389    1449    1452      19
    1392    1389    1449    1455      19    1392    1389    1449    1467      53
    1392    1389   -1449    1467      54    1389    1395    1398    1401       6
    1389    1449    1455    1458      19    1386    1380    1389    1392      19
    1386    1380    1389    1395      53    1386    1380   -1389    1395      54
    1386    1380    1389    1449      19    1383    1380    1389    1392      19
    1383    1380    1389    1395      53    1383    1380   -1389    1395      54
    1383    1380    1389    1449      19    1380    1389    1449    1452      19
    1377    1380    1389    1392      53    1377    1380   -1389    1392      54
    1368    1377    1380    1383       6    1368    1377    1380    1386       6
    1548    1545    1539    1557      53    1548    1545   -1539    1557      54
    1548    1545    1551    1554      55    1542    1539    1545    1548      19
    1542    1539    1545    1551      53    1542    1539   -1545    1551      54
    1542    1539    1557    1560       6    1539    1545    1551    1554      53
    1539    1545   -1551    1554      56    1530    1527    1533    1536      12
    1524    1521    1527    1530      12    1518    1515    1521    1524      36
    1518    1515    1521    1527      36    1515    1521    1527    1530      12
    1512    1509    1506    1533      34    1512    1509    1515    1518      38
    1512    1509    1515    1521      38    1506    1500    1545    1548      19
    1506    1509    1515    1518      38    1506    1533    1527    1530      12
    1503    1500    1506    1509       9    1503    1500    1506    1533       9
    1503    1500    1545    1539      19    1503    1500    1545    1548      19
    1503    1500    1545    1551      19    1500    1506    1509    1512      34
    1500    1545    1539    1542      19    1500    1545    1551    1554      53
    1500    1545   -1551    1554      56    1497    1491    1539    1542      53
    1497    1491   -1539    1542      54    1497    1500    1545    1548      53
    1497    1500   -1545    1548      54    1494    1491    1497    1500       6
    1494    1491    1539    1542      19    1494    1491    1539    1545      19
    1494    1491    1539    1557      53    1494    1491   -1539    1557      54
    1491    1497    1500    1503       6    1491    1539    1545    1548      19
    1488    1482    1491    1494      19    1488    1482    1491    1497      53
    1488    1482   -1491    1497      54    1488    1482    1491    1539      19
    1485    1482    1491    1494      19    1485    1482    1491    1497      53
    1485    1482   -1491    1497      54    1485    1482    1491    1539      19
    1482    1491    1539    1542      19    1479    1482    1491    1494      53
    1479    1482   -1491    1494      54    1470    1479    1482    1485       6
    1470    1479    1482    1488       6    1638    1635    1629    1647      53
    1638    1635   -1629    1647      54    1638    1635    1641    1644      55
    1632    1629    1635    1638      19    1632    1629    1635    1641      53
    1632    1629   -1635    1641      54    1632    1629    1647    1650       6
    1629    1635    1641    1644      53    1629    1635   -1641    1644      56
    1620    1617    1623    1626      12    1614    1611    1617    1620      12
    1608    1605    1611    1614      36    1608    1605    1611    1617      36
    1605    1611    1617    1620      12    1602    1599    1596    1623      34
    1602    1599    1605    1608      38    1602    1599    1605    1611      38
    1596    1590    1635    1638      19    1596    1599    1605    1608      38
    1596    1623    1617    1620      12    1593    1590    1596    1599       9
    1593    1590    1596    1623       9    1593    1590    1635    1629      19
    1593    1590    1635    1638      19    1593    1590    1635    1641      19
    1590    1596    1599    1602      34    1590    1635    1629    1632      19
    1590    1635    1641    1644      53    1590    1635   -1641    1644      56
    1587    1581    1629    1632      53    1587    1581   -1629    1632      54
    1587    1590    1635    1638      53    1587    1590   -1635    1638      54
    1584    1581    1587    1590       6    1584    1581    1629    1632      19
    1584    1581    1629    1635      19    1584    1581    1629    1647      53
    1584    1581   -1629    1647      54    1581    1587    1590    1593       6
    1581    1629    1635    1638      19    1578    1572    1581    1584      19
    1578    1572    1581    1587      53    1578    1572   -1581    1587      54
    1578    1572    1581    1629      19    1575    1572    1581    1584      19
    1575    1572    1581    1587      53    1575    1572   -1581    1587      54
    1575    1572    1581    1629      19    1572    1581    1629    1632      19
    1569    1572    1581    1584      53    1569    1572   -1581    1584      54
    1560    1569    1572    1575       6    1560    1569    1572    1578       6
    1737    1734    1728    1746      53    1737    1734   -1728    1746      54
    1737    1734    1740    1743      55    1731    1728    1734    1737      19
    1731    1728    1734    1740      53    1731    1728   -1734    1740      54
    1731    1728    1746    1749       6    1728    1734    1740    1743      53
    1728    1734   -1740    1743      56    1719    1716    1722    1725      44
    1710    1704    1701    1713      57    1707    1704    1701    1713      57
    1701    1713    1716    1719      44    1698    1701    1704    1707      57
    1698    1701    1704    1710      57    1692    1689    1686    1725      16
    1692    1689    1695    1698      20    1686    1680    1734    1737      19
    1683    1680    1686    1689       9    1683    1680    1686    1725       9
    1683    1680    1734    1728      19    1683    1680    1734    1737      19
    1683    1680    1734    1740      19    1680    1686    1689    1692      16
    1680    1734    1728    1731      19    1680    1734    1740    1743      53
    1680    1734   -1740    1743      56    1677    1671    1728    1731      53
    1677    1671   -1728    1731      54    1677    1680    1734    1737      53
    1677    1680   -1734    1737      54    1674    1671    1677    1680       6
    1674    1671    1728    1731      19    1674    1671    1728    1734      19
    1674    1671    1728    1746      53    1674    1671   -1728    1746      54
    1671    1677    1680    1683       6    1671    1728    1734    1737      19
    1668    1662    1671    1674      19    1668    1662    1671    1677      53
    1668    1662   -1671    1677      54    1668    1662    1671    1728      19
    1665    1662    1671    1674      19    1665    1662    1671    1677      53
    1665    1662   -1671    1677      54    1665    1662    1671    1728      19
    1662    1671    1728    1731      19    1659    1662    1671    1674      53
    1659    1662   -1671    1674      54    1650    1659    1662    1665       6
    1650    1659    1662    1668       6    1839    1836    1830    1848      53
    1839    1836   -1830    1848      54    1839    1836    1842    1845      55
    1833    1830    1836    1839      19    1833    1830    1836    1842      53
    1833    1830   -1836    1842      54    1833    1830    1848    1851       6
    1830    1836    1842    1845      53    1830    1836   -1842    1845      56
    1821    1815    1812    1824      57    1818    1815    1812    1824      57
    1809    1806    1812    1815      14    1809    1806    1812    1824      14
    1806    1812    1815    1818      57    1806    1812    1815    1821      57
    1803    1800    1806    1809      12    1797    1800    1806    1809      12
    1791    1788    1785    1827      16    1791    1788    1794    1797      20
    1785    1779    1836    1839      19    1782    1779    1785    1788       9
    1782    1779    1785    1827       9    1782    1779    1836    1830      19
    1782    1779    1836    1839      19    1782    1779    1836    1842      19
    1779    1785    1788    1791      16    1779    1836    1830    1833      19
    1779    1836    1842    1845      53    1779    1836   -1842    1845      56
    1776    1770    1830    1833      53    1776    1770   -1830    1833      54
    1776    1779    1836    1839      53    1776    1779   -1836    1839      54
    1773    1770    1776    1779       6    1773    1770    1830    1833      19
    1773    1770    1830    1836      19    1773    1770    1830    1848      53
    1773    1770   -1830    1848      54    1770    1776    1779    1782       6
    1770    1830    1836    1839      19    1767    1761    1770    1773      19
    1767    1761    1770    1776      53    1767    1761   -1770    1776      54
    1767    1761    1770    1830      19    1764    1761    1770    1773      19
    1764    1761    1770    1776      53    1764    1761   -1770    1776      54
    1764    1761    1770    1830      19    1761    1770    1830    1833      19
    1758    1761    1770    1773      53    1758    1761   -1770    1773      54
    1749    1758    1761    1764       6    1749    1758    1761    1767       6
    1941    1938    1932    1950      53    1941    1938   -1932    1950      54
    1941    1938    1944    1947      55    1935    1932    1938    1941      19
    1935    1932    1938    1944      53    1935    1932   -1938    1944      54
    1935    1932    1950    1953       6    1932    1938    1944    1947      53
    1932    1938   -1944    1947      56    1923    1917    1914    1926      57
    1920    1917    1914    1926      57    1911    1908    1914    1917      14
    1911    1908    1914    1926      14    1908    1914    1917    1920      57
    1908    1914    1917    1923      57    1905    1902    1908    1911      12
    1899    1902    1908    1911      12    1893    1890    1887    1929      16
    1893    1890    1896    1899      20    1887    1881    1938    1941      19
    1884    1881    1887    1890       9    1884    1881    1887    1929       9
    1884    1881    1938    1932      19    1884    1881    1938    1941      19
    1884    1881    1938    1944      19    1881    1887    1890    1893      16
    1881    1938    1932    1935      19    1881    1938    1944    1947      53
    1881    1938   -1944    1947      56    1878    1872    1932    1935      53
    1878    1872   -1932    1935      54    1878    1881    1938    1941      53
    1878    1881   -1938    1941      54    1875    1872    1878    1881       6
    1875    1872    1932    1935      19    1875    1872    1932    1938      19
    1875    1872    1932    1950      53    1875    1872   -1932    1950      54
    1872    1878    1881    1884       6    1872    1932    1938    1941      19
    1869    1863    1872    1875      19    1869    1863    1872    1878      53
    1869    1863   -1872    1878      54    1869    1863    1872    1932      19
    1866    1863    1872    1875      19    1866    1863    1872    1878      53
    1866    1863   -1872    1878      54    1866    1863    1872    1932      19
    1863    1872    1932    1935      19    1860    1863    1872    1875      53
    1860    1863   -1872    1875      54    1851    1860    1863    1866       6
    1851    1860    1863    1869       6    2043    2040    2034    2052      53
    2043    2040   -2034    2052      54    2043    2040    2046    2049      55
    2040    2034    2052    2055      53    2040    2034   -2052    2055      56
    2037    2034    2040    2043      19    2037    2034    2040    2046      53
    2037    2034   -2040    2046      54    2037    2034    2052    2055      55
    2034    2040    2046    2049      53    2034    2040   -2046    2049      56
    2025    2019    2016    2028      57    2022    2019    2016    2028      57
    2013    2010    2016    2019      14    2013    2010    2016    2028      14
    2010    2016    2019    2022      57    2010    2016    2019    2025      57
    2007    2004    2010    2013      12    2001    2004    2010    2013      12
    1995    1992    1989    2031      16    1995    1992    1998    2001      20
    1989    1983    2040    2043      19    1986    1983    1989    1992       9
    1986    1983    1989    2031       9    1986    1983    2040    2034      19
    1986    1983    2040    2043      19    1986    1983    2040    2046      19
    1983    1989    1992    1995      16    1983    2040    2034    2037      19
    1983    2040    2046    2049      53    1983    2040   -2046    2049      56
    1980    1974    2034    2037      53    1980    1974   -2034    2037      54
    1980    1983    2040    2043      53    1980    1983   -2040    2043      54
    1977    1974    1980    1983       6    1977    1974    2034    2037      19
    1977    1974    2034    2040      19    1977    1974    2034    2052      53
    1977    1974   -2034    2052      54    1974    1980    1983    1986       6
    1974    2034    2040    2043      19    1974    2034    2052    2055      53
    1974    2034   -2052    2055      56    1971    1965    1974    1977      19
    1971    1965    1974    1980      53    1971    1965   -1974    1980      54
    1971    1965    1974    2034      19    1968    1965    1974    1977      19
    1968    1965    1974    1980      53    1968    1965   -1974    1980      54
    1968    1965    1974    2034      19    1965    1974    2034    2037      19
    1962    1965    1974    1977      53    1962    1965   -1974    1977      54
    1953    1962    1965    1968       6    1953    1962    1965    1971       6
      57      63     -60     -66      52      45      57     -51     -54      52
      30      39     -33     -36      50     159     165    -162    -168      52
     147     159    -153    -156      52     132     141    -135    -138      50
     261     267    -264    -270      52     249     261    -255    -258      52
     234     243    -237    -240      50     351     363    -357    -360      52
     339     351    -345    -348      50     336     345    -339    -342      50
     441     453    -447    -450      52     429     441    -435    -438      50
     426     435    -429    -432      50     543     552    -546    -549      50
     531     537    -534    -540      52     516     525    -519    -522      50
     642     648    -645    -651      52     630     642    -636    -639      52
     615     624    -618    -621      50     744     750    -747    -753      52
     732     744    -738    -741      52     717     726    -720    -723      50
     846     852    -849    -855      52     834     846    -840    -843      52
     819     828    -822    -825      50     936     948    -942    -945      52
     924     936    -930    -933      50     921     930    -924    -927      50
    1026    1038   -1032   -1035      52    1014    1026   -1020   -1023      50
    1011    1020   -1014   -1017      50    1128    1137   -1131   -1134      50
    1116    1122   -1119   -1125      52    1101    1110   -1104   -1107      50
    1227    1233   -1230   -1236      52    1215    1227   -1221   -1224      52
    1200    1209   -1203   -1206      50    1329    1335   -1332   -1338      52
    1317    1329   -1323   -1326      52    1302    1311   -1305   -1308      50
    1431    1437   -1434   -1440      52    1419    1431   -1425   -1428      52
    1404    1413   -1407   -1410      50    1521    1533   -1527   -1530      52
    1509    1521   -1515   -1518      50    1506    1515   -1509   -1512      50
    1611    1623   -1617   -1620      52    1599    1611   -1605   -1608      50
    1596    1605   -1599   -1602      50    1713    1722   -1716   -1719      50
    1701    1707   -1704   -1710      52    1686    1695   -1689   -1692      50
    1812    1818   -1815   -1821      52    1800    1812   -1806   -1809      52
    1785    1794   -1788   -1791      50    1914    1920   -1917   -1923      52
    1902    1914   -1908   -1911      52    1887    1896   -1890   -1893      50
    2016    2022   -2019   -2025      52    2004    2016   -2010   -2013      52
    1989    1998   -1992   -1995      50
%FLAG DIHEDRALS_WITHOUT_HYDROGEN                                                
%FORMAT(10I8)                                                                   
      93      96     105     108       1      93      96    -105     108       2
      93      96    -105     108       3      87      81      75      93       4
      87      81     -75      93       5      81      75      93      96       6
      75      93      96      99       7      75      93      96     102       7
      75      93      96     105       8      75      93     -96     105       7
      72      30      24      81       9      60      57      69      72      10
      51      45      42      72      11      51      57     -69      72      10
      48      45      42      72      11      48      45      51      57      12
      45      42      72      69      13      45      51      57      60      14
      45      51     -57      69      14      42      45      51      57      12
      42      72     -69      57      15      39      33     -30      72      16
      39      42      45      48      11      39      42      45      51      11
      39      42      72      69      13      33      30      24      81       9
      33      30     -72      42      17      33      30      72      69      17
      33      39      42      45      18      33      39     -42      72      18
      30      24      81      75      19      30      24      81      87      19
      30      33     -39      42      20      30      72     -42      39      13
      30      72      42      45      13      30      72      69      57      15
      24      21     -15      75      21      24      21     -15      75      22
      24      30      33      39      16      24      30      72      42      17
      24      30      72      69      17      24      81      75      93      19
      21      15     -75      81      19      21      15      75      93       4
      21      15     -75      93       5      21      24      30      33      23
      21      24     -30      33      24      21      24     -30      33      25
      21      24     -30      33      26      21      24      30      72       9
      21      24     -81      75      19      21      24      81      87       4
      21      24     -81      87       5      15      21      24      30      27
      15      21     -24      30      22      15      21     -24      81      21
      15      21     -24      81      22      15      75     -81      24      28
      15      75     -81      24      29      15      75     -81      24      30
      15      75      81      87      19      15      75      93      96       6
       6      15      21      24      21       6      15     -21      24      22
       6      15      75      81      28       6      15     -75      81      29
       6      15     -75      81      30       6      15      75      93      19
       3       6      15      21      19       3       6      15      75      31
       3       6     -15      75      32       3       6     -15      75      33
     195     198     207     210       1     195     198    -207     210       2
     195     198    -207     210       3     189     183     177     195       4
     189     183    -177     195       5     183     177     195     198       6
     177     195     198     201       7     177     195     198     204       7
     177     195     198     207       8     177     195    -198     207       7
     174     132     126     183       9     162     159     171     174      10
     153     147     144     174      11     153     159    -171     174      10
     150     147     144     174      11     150     147     153     159      12
     147     144     174     171      13     147     153     159     162      14
     147     153    -159     171      14     144     147     153     159      12
     144     174    -171     159      15     141     135    -132     174      16
     141     144     147     150      11     141     144     147     153      11
     141     144     174     171      13     135     132     126     183       9
     135     132    -174     144      17     135     132     174     171      17
     135     141     144     147      18     135     141    -144     174      18
     132     126     183     177      19     132     126     183     189      19
     132     135    -141     144      20     132     174    -144     141      13
     132     174     144     147      13     132     174     171     159      15
     126     123    -117     177      21     126     123    -117     177      22
     126     132     135     141      16     126     132     174     144      17
     126     132     174     171      17     126     183     177     195      19
     123     117    -177     183      19     123     117     177     195       4
     123     117    -177     195       5     123     126     132     135      23
     123     126    -132     135      24     123     126    -132     135      25
     123     126    -132     135      26     123     126     132     174       9
     123     126    -183     177      19     123     126     183     189       4
     123     126    -183     189       5     117     123     126     132      27
     117     123    -126     132      22     117     123    -126     183      21
     117     123    -126     183      22     117     177    -183     126      28
     117     177    -183     126      29     117     177    -183     126      30
     117     177     183     189      19     117     177     195     198       6
     108     117     123     126      21     108     117    -123     126      22
     108     117     177     183      28     108     117    -177     183      29
     108     117    -177     183      30     108     117     177     195      19
     105     108     117     123      19     105     108     117     177      31
     105     108    -117     177      32     105     108    -117     177      33
     102      96     105     108       7      99      96     105     108       7
      96     105     108     117       6     297     300     309     312       1
     297     300    -309     312       2     297     300    -309     312       3
     291     285     279     297       4     291     285    -279     297       5
     285     279     297     300       6     279     297     300     303       7
     279     297     300     306       7     279     297     300     309       8
     279     297    -300     309       7     276     234     228     285       9
     264     261     273     276      10     255     249     246     276      11
     255     261    -273     276      10     252     249     246     276      11
     252     249     255     261      12     249     246     276     273      13
     249     255     261     264      14     249     255    -261     273      14
     246     249     255     261      12     246     276    -273     261      15
     243     237    -234     276      16     243     246     249     252      11
     243     246     249     255      11     243     246     276     273      13
     237     234     228     285       9     237     234    -276     246      17
     237     234     276     273      17     237     243     246     249      18
     237     243    -246     276      18     234     228     285     279      19
     234     228     285     291      19     234     237    -243     246      20
     234     276    -246     243      13     234     276     246     249      13
     234     276     273     261      15     228     225    -219     279      21
     228     225    -219     279      22     228     234     237     243      16
     228     234     276     246      17     228     234     276     273      17
     228     285     279     297      19     225     219    -279     285      19
     225     219     279     297       4     225     219    -279     297       5
     225     228     234     237      23     225     228    -234     237      24
     225     228    -234     237      25     225     228    -234     237      26
     225     228     234     276       9     225     228    -285     279      19
     225     228     285     291       4     225     228    -285     291       5
     219     225     228     234      27     219     225    -228     234      22
     219     225    -228     285      21     219     225    -228     285      22
     219     279    -285     228      28     219     279    -285     228      29
     219     279    -285     228      30     219     279     285     291      19
     219     279     297     300       6     210     219     225     228      21
     210     219    -225     228      22     210     219     279     285      28
     210     219    -279     285      29     210     219    -279     285      30
     210     219     279     297      19     207     210     219     225      19
     207     210     219     279      31     207     210    -219     279      32
     207     210    -219     279      33     204     198     207     210       7
     201     198     207     210       7     198     207     210     219       6
     387     390     399     402       1     387     390    -399     402       2
     387     390    -399     402       3     381     375     369     387       4
     381     375    -369     387       5     375     369     387     390       6
     369     387     390     393       7     369     387     390     396       7
     369     387     390     399       8     369     387    -390     399       7
     363     336     330     375       9     354     351     357     363      12
     351     357     363     366      12     345     339     336     363      34
     345     351    -357     363      12     339     336     330     375       9
     339     336     363     357      35     339     336     363     366      35
     339     345     351     354      36     339     345    -351     354      37
     339     345    -351     357      36     336     330     375     369      19
     336     330     375     381      19     336     339     345     351      38
     336     363    -357     351      12     330     327    -321     369      21
     330     327    -321     369      22     330     336     339     345      34
     330     336     363     357      35     330     336     363     366      35
     330     375     369     387      19     327     321    -369     375      19
     327     321     369     387       4     327     321    -369     387       5
     327     330     336     339      39     327     330    -336     339      40
     327     330    -336     339      41     327     330    -336     339      42
     327     330     336     363       9     327     330    -375     369      19
     327     330     375     381       4     327     330    -375     381       5
     321     327     330     336      27     321     327    -330     336      22
     321     327    -330     375      21     321     327    -330     375      22
     321     369    -375     330      28     321     369    -375     330      29
     321     369    -375     330      30     321     369     375     381      19
     321     369     387     390       6     312     321     327     330      21
     312     321    -327     330      22     312     321     369     375      28
     312     321    -369     375      29     312     321    -369     375      30
     312     321     369     387      19     309     312     321     327      19
     309     312     321     369      31     309     312    -321     369      32
     309     312    -321     369      33     306     300     309     312       7
     303     300     309     312       7     300     309     312     321       6
     477     480     489     492       1     477     480    -489     492       2
     477     480    -489     492       3     471     465     459     477       4
     471     465    -459     477       5     465     459     477     480       6
     459     477     480     483       7     459     477     480     486       7
     459     477     480     489       8     459     477    -480     489       7
     453     426     420     465       9     444     441     447     453      12
     441     447     453     456      12     435     429     426     453      34
     435     441    -447     453      12     429     426     420     465       9
     429     426     453     447      35     429     426     453     456      35
     429     435     441     444      36     429     435    -441     444      37
     429     435    -441     447      36     426     420     465     459      19
     426     420     465     471      19     426     429     435     441      38
     426     453    -447     441      12     420     417    -411     459      21
     420     417    -411     459      22     420     426     429     435      34
     420     426     453     447      35     420     426     453     456      35
     420     465     459     477      19     417     411    -459     465      19
     417     411     459     477       4     417     411    -459     477       5
     417     420     426     429      39     417     420    -426     429      40
     417     420    -426     429      41     417     420    -426     429      42
     417     420     426     453       9     417     420    -465     459      19
     417     420     465     471       4     417     420    -465     471       5
     411     417     420     426      27     411     417    -420     426      22
     411     417    -420     465      21     411     417    -420     465      22
     411     459    -465     420      28     411     459    -465     420      29
     411     459    -465     420      30     411     459     465     471      19
     411     459     477     480       6     402     411     417     420      21
     402     411    -417     420      22     402     411     459     465      28
     402     411    -459     465      29     402     411    -459     465      30
     402     411     459     477      19     399     402     411     417      19
     399     402     411     459      31     399     402    -411     459      32
     399     402    -411     459      33     396     390     399     402       7
     393     390     399     402       7     390     399     402     411       6
     576     579     588     591       1     576     579    -588     591       2
     576     579    -588     591       3     570     564     558     576       4
     570     564    -558     576       5     564     558     576     579       6
     558     576     579     582       7     558     576     579     585       7
     558     576     579     588       8     558     576    -579     588       7
     555     516     510     564       9     543     531     528     555      43
     543     546    -552     555      44     534     531     528     555      43
     534     531     543     546      10     531     528     555     552      13
     531     543    -546     552      44     528     531     543     546      10
     528     555    -552     546      15     525     519    -516     555      16
     525     528     531     534      43     525     528     531     543      43
     525     528     555     552      13     519     516     510     564       9
     519     516    -555     528      17     519     516     555     552      17
     519     525     528     531      18     519     525    -528     555      18
     516     510     564     558      19     516     510     564     570      19
     516     519    -525     528      20     516     555    -528     525      13
     516     555     528     531      13     516     555     552     546      15
     510     507    -501     558      21     510     507    -501     558      22
     510     516     519     525      16     510     516     555     528      17
     510     516     555     552      17     510     564     558     576      19
     507     501    -558     564      19     507     501     558     576       4
     507     501    -558     576       5     507     510     516     519      45
     507     510    -516     519      46     507     510    -516     519      47
     507     510    -516     519      48     507     510     516     555       9
     507     510    -564     558      19     507     510     564     570       4
     507     510    -564     570       5     501     507     510     516      27
     501     507    -510     516      22     501     507    -510     564      21
     501     507    -510     564      22     501     558    -564     510      28
     501     558    -564     510      29     501     558    -564     510      30
     501     558     564     570      19     501     558     576     579       6
     492     501     507     510      21     492     501    -507     510      22
     492     501     558     564      28     492     501    -558     564      29
     492     501    -558     564      30     492     501     558     576      19
     489     492     501     507      19     489     492     501     558      31
     489     492    -501     558      32     489     492    -501     558      33
     486     480     489     492       7     483     480     489     492       7
     480     489     492     501       6     678     681     690     693       1
     678     681    -690     693       2     678     681    -690     693       3
     672     666     660     678       4     672     666    -660     678       5
     666     660     678     681       6     660     678     681     684       7
     660     678     681     687       7     660     678     681     690       8
     660     678    -681     690       7     657     615     609     666       9
     645     642     654     657      10     636     630     627     657      11
     636     642    -654     657      10     633     630     627     657      11
     633     630     636     642      12     630     627     657     654      13
     630     636     642     645      14     630     636    -642     654      14
     627     630     636     642      12     627     657    -654     642      15
     624     618    -615     657      16     624     627     630     633      11
     624     627     630     636      11     624     627     657     654      13
     618     615     609     666       9     618     615    -657     627      17
     618     615     657     654      17     618     624     627     630      18
     618     624    -627     657      18     615     609     666     660      19
     615     609     666     672      19     615     618    -624     627      20
     615     657    -627     624      13     615     657     627     630      13
     615     657     654     642      15     609     606    -600     660      21
     609     606    -600     660      22     609     615     618     624      16
     609     615     657     627      17     609     615     657     654      17
     609     666     660     678      19     606     600    -660     666      19
     606     600     660     678       4     606     600    -660     678       5
     606     609     615     618      23     606     609    -615     618      24
     606     609    -615     618      25     606     609    -615     618      26
     606     609     615     657       9     606     609    -666     660      19
     606     609     666     672       4     606     609    -666     672       5
     600     606     609     615      27     600     606    -609     615      22
     600     606    -609     666      21     600     606    -609     666      22
     600     660    -666     609      28     600     660    -666     609      29
     600     660    -666     609      30     600     660     666     672      19
     600     660     678     681       6     591     600     606     609      21
     591     600    -606     609      22     591     600     660     666      28
     591     600    -660     666      29     591     600    -660     666      30
     591     600     660     678      19     588     591     600     606      19
     588     591     600     660      31     588     591    -600     660      32
     588     591    -600     660      33     585     579     588     591       7
     582     579     588     591       7     579     588     591     600       6
     780     783     792     795       1     780     783    -792     795       2
     780     783    -792     795       3     774     768     762     780       4
     774     768    -762     780       5     768     762     780     783       6
     762     780     783     786       7     762     780     783     789       7
     762     780     783     792       8     762     780    -783     792       7
     759     717     711     768       9     747     744     756     759      10
     738     732     729     759      11     738     744    -756     759      10
     735     732     729     759      11     735     732     738     744      12
     732     729     759     756      13     732     738     744     747      14
     732     738    -744     756      14     729     732     738     744      12
     729     759    -756     744      15     726     720    -717     759      16
     726     729     732     735      11     726     729     732     738      11
     726     729     759     756      13     720     717     711     768       9
     720     717    -759     729      17     720     717     759     756      17
     720     726     729     732      18     720     726    -729     759      18
     717     711     768     762      19     717     711     768     774      19
     717     720    -726     729      20     717     759    -729     726      13
     717     759     729     732      13     717     759     756     744      15
     711     708    -702     762      21     711     708    -702     762      22
     711     717     720     726      16     711     717     759     729      17
     711     717     759     756      17     711     768     762     780      19
     708     702    -762     768      19     708     702     762     780       4
     708     702    -762     780       5     708     711     717     720      23
     708     711    -717     720      24     708     711    -717     720      25
     708     711    -717     720      26     708     711     717     759       9
     708     711    -768     762      19     708     711     768     774       4
     708     711    -768     774       5     702     708     711     717      27
     702     708    -711     717      22     702     708    -711     768      21
     702     708    -711     768      22     702     762    -768     711      28
     702     762    -768     711      29     702     762    -768     711      30
     702     762     768     774      19     702     762     780     783       6
     693     702     708     711      21     693     702    -708     711      22
     693     702     762     768      28     693     702    -762     768      29
     693     702    -762     768      30     693     702     762     780      19
     690     693     702     708      19     690     693     702     762      31
     690     693    -702     762      32     690     693    -702     762      33
     687     681     690     693       7     684     681     690     693       7
     681     690     693     702       6     882     885     894     897       1
     882     885    -894     897       2     882     885    -894     897       3
     876     870     864     882       4     876     870    -864     882       5
     870     864     882     885       6     864     882     885     888       7
     864     882     885     891       7     864     882     885     894       8
     864     882    -885     894       7     861     819     813     870       9
     849     846     858     861      10     840     834     831     861      11
     840     846    -858     861      10     837     834     831     861      11
     837     834     840     846      12     834     831     861     858      13
     834     840     846     849      14     834     840    -846     858      14
     831     834     840     846      12     831     861    -858     846      15
     828     822    -819     861      16     828     831     834     837      11
     828     831     834     840      11     828     831     861     858      13
     822     819     813     870       9     822     819    -861     831      17
     822     819     861     858      17     822     828     831     834      18
     822     828    -831     861      18     819     813     870     864      19
     819     813     870     876      19     819     822    -828     831      20
     819     861    -831     828      13     819     861     831     834      13
     819     861     858     846      15     813     810    -804     864      21
     813     810    -804     864      22     813     819     822     828      16
     813     819     861     831      17     813     819     861     858      17
     813     870     864     882      19     810     804    -864     870      19
     810     804     864     882       4     810     804    -864     882       5
     810     813     819     822      23     810     813    -819     822      24
     810     813    -819     822      25     810     813    -819     822      26
     810     813     819     861       9     810     813    -870     864      19
     810     813     870     876       4     810     813    -870     876       5
     804     810     813     819      27     804     810    -813     819      22
     804     810    -813     870      21     804     810    -813     870      22
     804     864    -870     813      28     804     864    -870     813      29
     804     864    -870     813      30     804     864     870     876      19
     804     864     882     885       6     795     804     810     813      21
     795     804    -810     813      22     795     804     864     870      28
     795     804    -864     870      29     795     804    -864     870      30
     795     804     864     882      19     792     795     804     810      19
     792     795     804     864      31     792     795    -804     864      32
     792     795    -804     864      33     789     783     792     795       7
     786     783     792     795       7     783     792     795     804       6
     972     975     984     987       1     972     975    -984     987       2
     972     975    -984     987       3     966     960     954     972       4
     966     960    -954     972       5     960     954     972     975       6
     954     972     975     978       7     954     972     975     981       7
     954     972     975     984       8     954     972    -975     984       7
     948     921     915     960       9     939     936     942     948      12
     936     942     948     951      12     930     924     921     948      34
     930     936    -942     948      12     924     921     915     960       9
     924     921     948     942      35     924     921     948     951      35
     924     930     936     939      36     924     930    -936     939      37
     924     930    -936     942      36     921     915     960     954      19
     921     915     960     966      19     921     924     930     936      38
     921     948    -942     936      12     915     912    -906     954      21
     915     912    -906     954      22     915     921     924     930      34
     915     921     948     942      35     915     921     948     951      35
     915     960     954     972      19     912     906    -954     960      19
     912     906     954     972       4     912     906    -954     972       5
     912     915     921     924      39     912     915    -921     924      40
     912     915    -921     924      41     912     915    -921     924      42
     912     915     921     948       9     912     915    -960     954      19
     912     915     960     966       4     912     915    -960     966       5
     906     912     915     921      27     906     912    -915     921      22
     906     912    -915     960      21     906     912    -915     960      22
     906     954    -960     915      28     906     954    -960     915      29
     906     954    -960     915      30     906     954     960     966      19
     906     954     972     975       6     897     906     912     915      21
     897     906    -912     915      22     897     906     954     960      28
     897     906    -954     960      29     897     906    -954     960      30
     897     906     954     972      19     894     897     906     912      19
     894     897     906     954      31     894     897    -906     954      32
     894     897    -906     954      33     891     885     894     897       7
     888     885     894     897       7     885     894     897     906       6
    1062    1065    1074    1077       1    1062    1065   -1074    1077       2
    1062    1065   -1074    1077       3    1056    1050    1044    1062       4
    1056    1050   -1044    1062       5    1050    1044    1062    1065       6
    1044    1062    1065    1068       7    1044    1062    1065    1071       7
    1044    1062    1065    1074       8    1044    1062   -1065    1074       7
    1038    1011    1005    1050       9    1029    1026    1032    1038      12
    1026    1032    1038    1041      12    1020    1014    1011    1038      34
    1020    1026   -1032    1038      12    1014    1011    1005    1050       9
    1014    1011    1038    1032      35    1014    1011    1038    1041      35
    1014    1020    1026    1029      36    1014    1020   -1026    1029      37
    1014    1020   -1026    1032      36    1011    1005    1050    1044      19
    1011    1005    1050    1056      19    1011    1014    1020    1026      38
    1011    1038   -1032    1026      12    1005    1002    -996    1044      21
    1005    1002    -996    1044      22    1005    1011    1014    1020      34
    1005    1011    1038    1032      35    1005    1011    1038    1041      35
    1005    1050    1044    1062      19    1002     996   -1044    1050      19
    1002     996    1044    1062       4    1002     996   -1044    1062       5
    1002    1005    1011    1014      39    1002    1005   -1011    1014      40
    1002    1005   -1011    1014      41    1002    1005   -1011    1014      42
    1002    1005    1011    1038       9    1002    1005   -1050    1044      19
    1002    1005    1050    1056       4    1002    1005   -1050    1056       5
     996    1002    1005    1011      27     996    1002   -1005    1011      22
     996    1002   -1005    1050      21     996    1002   -1005    1050      22
     996    1044   -1050    1005      28     996    1044   -1050    1005      29
     996    1044   -1050    1005      30     996    1044    1050    1056      19
     996    1044    1062    1065       6     987     996    1002    1005      21
     987     996   -1002    1005      22     987     996    1044    1050      28
     987     996   -1044    1050      29     987     996   -1044    1050      30
     987     996    1044    1062      19     984     987     996    1002      19
     984     987     996    1044      31     984     987    -996    1044      32
     984     987    -996    1044      33     981     975     984     987       7
     978     975     984     987       7     975     984     987     996       6
    1161    1164    1173    1176       1    1161    1164   -1173    1176       2
    1161    1164   -1173    1176       3    1155    1149    1143    1161       4
    1155    1149   -1143    1161       5    1149    1143    1161    1164       6
    1143    1161    1164    1167       7    1143    1161    1164    1170       7
    1143    1161    1164    1173       8    1143    1161   -1164    1173       7
    1140    1101    1095    1149       9    1128    1116    1113    1140      43
    1128    1131   -1137    1140      44    1119    1116    1113    1140      43
    1119    1116    1128    1131      10    1116    1113    1140    1137      13
    1116    1128   -1131    1137      44    1113    1116    1128    1131      10
    1113    1140   -1137    1131      15    1110    1104   -1101    1140      16
    1110    1113    1116    1119      43    1110    1113    1116    1128      43
    1110    1113    1140    1137      13    1104    1101    1095    1149       9
    1104    1101   -1140    1113      17    1104    1101    1140    1137      17
    1104    1110    1113    1116      18    1104    1110   -1113    1140      18
    1101    1095    1149    1143      19    1101    1095    1149    1155      19
    1101    1104   -1110    1113      20    1101    1140   -1113    1110      13
    1101    1140    1113    1116      13    1101    1140    1137    1131      15
    1095    1092   -1086    1143      21    1095    1092   -1086    1143      22
    1095    1101    1104    1110      16    1095    1101    1140    1113      17
    1095    1101    1140    1137      17    1095    1149    1143    1161      19
    1092    1086   -1143    1149      19    1092    1086    1143    1161       4
    1092    1086   -1143    1161       5    1092    1095    1101    1104      45
    1092    1095   -1101    1104      46    1092    1095   -1101    1104      47
    1092    1095   -1101    1104      48    1092    1095    1101    1140       9
    1092    1095   -1149    1143      19    1092    1095    1149    1155       4
    1092    1095   -1149    1155       5    1086    1092    1095    1101      27
    1086    1092   -1095    1101      22    1086    1092   -1095    1149      21
    1086    1092   -1095    1149      22    1086    1143   -1149    1095      28
    1086    1143   -1149    1095      29    1086    1143   -1149    1095      30
    1086    1143    1149    1155      19    1086    1143    1161    1164       6
    1077    1086    1092    1095      21    1077    1086   -1092    1095      22
    1077    1086    1143    1149      28    1077    1086   -1143    1149      29
    1077    1086   -1143    1149      30    1077    1086    1143    1161      19
    1074    1077    1086    1092      19    1074    1077    1086    1143      31
    1074    1077   -1086    1143      32    1074    1077   -1086    1143      33
    1071    1065    1074    1077       7    1068    1065    1074    1077       7
    1065    1074    1077    1086       6    1263    1266    1275    1278       1
    1263    1266   -1275    1278       2    1263    1266   -1275    1278       3
    1257    1251    1245    1263       4    1257    1251   -1245    1263       5
    1251    1245    1263    1266       6    1245    1263    1266    1269       7
    1245    1263    1266    1272       7    1245    1263    1266    1275       8
    1245    1263   -1266    1275       7    1242    1200    1194    1251       9
    1230    1227    1239    1242      10    1221    1215    1212    1242      11
    1221    1227   -1239    1242      10    1218    1215    1212    1242      11
    1218    1215    1221    1227      12    1215    1212    1242    1239      13
    1215    1221    1227    1230      14    1215    1221   -1227    1239      14
    1212    1215    1221    1227      12    1212    1242   -1239    1227      15
    1209    1203   -1200    1242      16    1209    1212    1215    1218      11
    1209    1212    1215    1221      11    1209    1212    1242    1239      13
    1203    1200    1194    1251       9    1203    1200   -1242    1212      17
    1203    1200    1242    1239      17    1203    1209    1212    1215      18
    1203    1209   -1212    1242      18    1200    1194    1251    1245      19
    1200    1194    1251    1257      19    1200    1203   -1209    1212      20
    1200    1242   -1212    1209      13    1200    1242    1212    1215      13
    1200    1242    1239    1227      15    1194    1191   -1185    1245      21
    1194    1191   -1185    1245      22    1194    1200    1203    1209      16
    1194    1200    1242    1212      17    1194    1200    1242    1239      17
    1194    1251    1245    1263      19    1191    1185   -1245    1251      19
    1191    1185    1245    1263       4    1191    1185   -1245    1263       5
    1191    1194    1200    1203      23    1191    1194   -1200    1203      24
    1191    1194   -1200    1203      25    1191    1194   -1200    1203      26
    1191    1194    1200    1242       9    1191    1194   -1251    1245      19
    1191    1194    1251    1257       4    1191    1194   -1251    1257       5
    1185    1191    1194    1200      27    1185    1191   -1194    1200      22
    1185    1191   -1194    1251      21    1185    1191   -1194    1251      22
    1185    1245   -1251    1194      28    1185    1245   -1251    1194      29
    1185    1245   -1251    1194      30    1185    1245    1251    1257      19
    1185    1245    1263    1266       6    1176    1185    1191    1194      21
    1176    1185   -1191    1194      22    1176    1185    1245    1251      28
    1176    1185   -1245    1251      29    1176    1185   -1245    1251      30
    1176    1185    1245    1263      19    1173    1176    1185    1191      19
    1173    1176    1185    1245      31    1173    1176   -1185    1245      32
    1173    1176   -1185    1245      33    1170    1164    1173    1176       7
    1167    1164    1173    1176       7    1164    1173    1176    1185       6
    1365    1368    1377    1380       1    1365    1368   -1377    1380       2
    1365    1368   -1377    1380       3    1359    1353    1347    1365       4
    1359    1353   -1347    1365       5    1353    1347    1365    1368       6
    1347    1365    1368    1371       7    1347    1365    1368    1374       7
    1347    1365    1368    1377       8    1347    1365   -1368    1377       7
    1344    1302    1296    1353       9    1332    1329    1341    1344      10
    1323    1317    1314    1344      11    1323    1329   -1341    1344      10
    1320    1317    1314    1344      11    1320    1317    1323    1329      12
    1317    1314    1344    1341      13    1317    1323    1329    1332      14
    1317    1323   -1329    1341      14    1314    1317    1323    1329      12
    1314    1344   -1341    1329      15    1311    1305   -1302    1344      16
    1311    1314    1317    1320      11    1311    1314    1317    1323      11
    1311    1314    1344    1341      13    1305    1302    1296    1353       9
    1305    1302   -1344    1314      17    1305    1302    1344    1341      17
    1305    1311    1314    1317      18    1305    1311   -1314    1344      18
    1302    1296    1353    1347      19    1302    1296    1353    1359      19
    1302    1305   -1311    1314      20    1302    1344   -1314    1311      13
    1302    1344    1314    1317      13    1302    1344    1341    1329      15
    1296    1293   -1287    1347      21    1296    1293   -1287    1347      22
    1296    1302    1305    1311      16    1296    1302    1344    1314      17
    1296    1302    1344    1341      17    1296    1353    1347    1365      19
    1293    1287   -1347    1353      19    1293    1287    1347    1365       4
    1293    1287   -1347    1365       5    1293    1296    1302    1305      23
    1293    1296   -1302    1305      24    1293    1296   -1302    1305      25
    1293    1296   -1302    1305      26    1293    1296    1302    1344       9
    1293    1296   -1353    1347      19    1293    1296    1353    1359       4
    1293    1296   -1353    1359       5    1287    1293    1296    1302      27
    1287    1293   -1296    1302      22    1287    1293   -1296    1353      21
    1287    1293   -1296    1353      22    1287    1347   -1353    1296      28
    1287    1347   -1353    1296      29    1287    1347   -1353    1296      30
    1287    1347    1353    1359      19    1287    1347    1365    1368       6
    1278    1287    1293    1296      21    1278    1287   -1293    1296      22
    1278    1287    1347    1353      28    1278    1287   -1347    1353      29
    1278    1287   -1347    1353      30    1278    1287    1347    1365      19
    1275    1278    1287    1293      19    1275    1278    1287    1347      31
    1275    1278   -1287    1347      32    1275    1278   -1287    1347      33
    1272    1266    1275    1278       7    1269    1266    1275    1278       7
    1266    1275    1278    1287       6    1467    1470    1479    1482       1
    1467    1470   -1479    1482       2    1467    1470   -1479    1482       3
    1461    1455    1449    1467       4    1461    1455   -1449    1467       5
    1455    1449    1467    1470       6    1449    1467    1470    1473       7
    1449    1467    1470    1476       7    1449    1467    1470    1479       8
    1449    1467   -1470    1479       7    1446    1404    1398    1455       9
    1434    1431    1443    1446      10    1425    1419    1416    1446      11
    1425    1431   -1443    1446      10    1422    1419    1416    1446      11
    1422    1419    1425    1431      12    1419    1416    1446    1443      13
    1419    1425    1431    1434      14    1419    1425   -1431    1443      14
    1416    1419    1425    1431      12    1416    1446   -1443    1431      15
    1413    1407   -1404    1446      16    1413    1416    1419    1422      11
    1413    1416    1419    1425      11    1413    1416    1446    1443      13
    1407    1404    1398    1455       9    1407    1404   -1446    1416      17
    1407    1404    1446    1443      17    1407    1413    1416    1419      18
    1407    1413   -1416    1446      18    1404    1398    1455    1449      19
    1404    1398    1455    1461      19    1404    1407   -1413    1416      20
    1404    1446   -1416    1413      13    1404    1446    1416    1419      13
    1404    1446    1443    1431      15    1398    1395   -1389    1449      21
    1398    1395   -1389    1449      22    1398    1404    1407    1413      16
    1398    1404    1446    1416      17    1398    1404    1446    1443      17
    1398    1455    1449    1467      19    1395    1389   -1449    1455      19
    1395    1389    1449    1467       4    1395    1389   -1449    1467       5
    1395    1398    1404    1407      23    1395    1398   -1404    1407      24
    1395    1398   -1404    1407      25    1395    1398   -1404    1407      26
    1395    1398    1404    1446       9    1395    1398   -1455    1449      19
    1395    1398    1455    1461       4    1395    1398   -1455    1461       5
    1389    1395    1398    1404      27    1389    1395   -1398    1404      22
    1389    1395   -1398    1455      21    1389    1395   -1398    1455      22
    1389    1449   -1455    1398      28    1389    1449   -1455    1398      29
    1389    1449   -1455    1398      30    1389    1449    1455    1461      19
    1389    1449    1467    1470       6    1380    1389    1395    1398      21
    1380    1389   -1395    1398      22    1380    1389    1449    1455      28
    1380    1389   -1449    1455      29    1380    1389   -1449    1455      30
    1380    1389    1449    1467      19    1377    1380    1389    1395      19
    1377    1380    1389    1449      31    1377    1380   -1389    1449      32
    1377    1380   -1389    1449      33    1374    1368    1377    1380       7
    1371    1368    1377    1380       7    1368    1377    1380    1389       6
    1557    1560    1569    1572       1    1557    1560   -1569    1572       2
    1557    1560   -1569    1572       3    1551    1545    1539    1557       4
    1551    1545   -1539    1557       5    1545    1539    1557    1560       6
    1539    1557    1560    1563       7    1539    1557    1560    1566       7
    1539    1557    1560    1569       8    1539    1557   -1560    1569       7
    1533    1506    1500    1545       9    1524    1521    1527    1533      12
    1521    1527    1533    1536      12    1515    1509    1506    1533      34
    1515    1521   -1527    1533      12    1509    1506    1500    1545       9
    1509    1506    1533    1527      35    1509    1506    1533    1536      35
    1509    1515    1521    1524      36    1509    1515   -1521    1524      37
    1509    1515   -1521    1527      36    1506    1500    1545    1539      19
    1506    1500    1545    1551      19    1506    1509    1515    1521      38
    1506    1533   -1527    1521      12    1500    1497   -1491    1539      21
    1500    1497   -1491    1539      22    1500    1506    1509    1515      34
    1500    1506    1533    1527      35    1500    1506    1533    1536      35
    1500    1545    1539    1557      19    1497    1491   -1539    1545      19
    1497    1491    1539    1557       4    1497    1491   -1539    1557       5
    1497    1500    1506    1509      39    1497    1500   -1506    1509      40
    1497    1500   -1506    1509      41    1497    1500   -1506    1509      42
    1497    1500    1506    1533       9    1497    1500   -1545    1539      19
    1497    1500    1545    1551       4    1497    1500   -1545    1551       5
    1491    1497    1500    1506      27    1491    1497   -1500    1506      22
    1491    1497   -1500    1545      21    1491    1497   -1500    1545      22
    1491    1539   -1545    1500      28    1491    1539   -1545    1500      29
    1491    1539   -1545    1500      30    1491    1539    1545    1551      19
    1491    1539    1557    1560       6    1482    1491    1497    1500      21
    1482    1491   -1497    1500      22    1482    1491    1539    1545      28
    1482    1491   -1539    1545      29    1482    1491   -1539    1545      30
    1482    1491    1539    1557      19    1479    1482    1491    1497      19
    1479    1482    1491    1539      31    1479    1482   -1491    1539      32
    1479    1482   -1491    1539      33    1476    1470    1479    1482       7
    1473    1470    1479    1482       7    1470    1479    1482    1491       6
    1647    1650    1659    1662       1    1647    1650   -1659    1662       2
    1647    1650   -1659    1662       3    1641    1635    1629    1647       4
    1641    1635   -1629    1647       5    1635    1629    1647    1650       6
    1629    1647    1650    1653       7    1629    1647    1650    1656       7
    1629    1647    1650    1659       8    1629    1647   -1650    1659       7
    1623    1596    1590    1635       9    1614    1611    1617    1623      12
    1611    1617    1623    1626      12    1605    1599    1596    1623      34
    1605    1611   -1617    1623      12    1599    1596    1590    1635       9
    1599    1596    1623    1617      35    1599    1596    1623    1626      35
    1599    1605    1611    1614      36    1599    1605   -1611    1614      37
    1599    1605   -1611    1617      36    1596    1590    1635    1629      19
    1596    1590    1635    1641      19    1596    1599    1605    1611      38
    1596    1623   -1617    1611      12    1590    1587   -1581    1629      21
    1590    1587   -1581    1629      22    1590    1596    1599    1605      34
    1590    1596    1623    1617      35    1590    1596    1623    1626      35
    1590    1635    1629    1647      19    1587    1581   -1629    1635      19
    1587    1581    1629    1647       4    1587    1581   -1629    1647       5
    1587    1590    1596    1599      39    1587    1590   -1596    1599      40
    1587    1590   -1596    1599      41    1587    1590   -1596    1599      42
    1587    1590    1596    1623       9    1587    1590   -1635    1629      19
    1587    1590    1635    1641       4    1587    1590   -1635    1641       5
    1581    1587    1590    1596      27    1581    1587   -1590    1596      22
    1581    1587   -1590    1635      21    1581    1587   -1590    1635      22
    1581    1629   -1635    1590      28    1581    1629   -1635    1590      29
    1581    1629   -1635    1590      30    1581    1629    1635    1641      19
    1581    1629    1647    1650       6    1572    1581    1587    1590      21
    1572    1581   -1587    1590      22    1572    1581    1629    1635      28
    1572    1581   -1629    1635      29    1572    1581   -1629    1635      30
    1572    1581    1629    1647      19    1569    1572    1581    1587      19
    1569    1572    1581    1629      31    1569    1572   -1581    1629      32
    1569    1572   -1581    1629      33    1566    1560    1569    1572       7
    1563    1560    1569    1572       7    1560    1569    1572    1581       6
    1746    1749    1758    1761       1    1746    1749   -1758    1761       2
    1746    1749   -1758    1761       3    1740    1734    1728    1746       4
    1740    1734   -1728    1746       5    1734    1728    1746    1749       6
    1728    1746    1749    1752       7    1728    1746    1749    1755       7
    1728    1746    1749    1758       8    1728    1746   -1749    1758       7
    1725    1686    1680    1734       9    1713    1701    1698    1725      43
    1713    1716   -1722    1725      44    1704    1701    1698    1725      43
    1704    1701    1713    1716      10    1701    1698    1725    1722      13
    1701    1713   -1716    1722      44    1698    1701    1713    1716      10
    1698    1725   -1722    1716      15    1695    1689   -1686    1725      16
    1695    1698    1701    1704      43    1695    1698    1701    1713      43
    1695    1698    1725    1722      13    1689    1686    1680    1734       9
    1689    1686   -1725    1698      17    1689    1686    1725    1722      17
    1689    1695    1698    1701      18    1689    1695   -1698    1725      18
    1686    1680    1734    1728      19    1686    1680    1734    1740      19
    1686    1689   -1695    1698      20    1686    1725   -1698    1695      13
    1686    1725    1698    1701      13    1686    1725    1722    1716      15
    1680    1677   -1671    1728      21    1680    1677   -1671    1728      22
    1680    1686    1689    1695      16    1680    1686    1725    1698      17
    1680    1686    1725    1722      17    1680    1734    1728    1746      19
    1677    1671   -1728    1734      19    1677    1671    1728    1746       4
    1677    1671   -1728    1746       5    1677    1680    1686    1689      45
    1677    1680   -1686    1689      46    1677    1680   -1686    1689      47
    1677    1680   -1686    1689      48    1677    1680    1686    1725       9
    1677    1680   -1734    1728      19    1677    1680    1734    1740       4
    1677    1680   -1734    1740       5    1671    1677    1680    1686      27
    1671    1677   -1680    1686      22    1671    1677   -1680    1734      21
    1671    1677   -1680    1734      22    1671    1728   -1734    1680      28
    1671    1728   -1734    1680      29    1671    1728   -1734    1680      30
    1671    1728    1734    1740      19    1671    1728    1746    1749       6
    1662    1671    1677    1680      21    1662    1671   -1677    1680      22
    1662    1671    1728    1734      28    1662    1671   -1728    1734      29
    1662    1671   -1728    1734      30    1662    1671    1728    1746      19
    1659    1662    1671    1677      19    1659    1662    1671    1728      31
    1659    1662   -1671    1728      32    1659    1662   -1671    1728      33
    1656    1650    1659    1662       7    1653    1650    1659    1662       7
    1650    1659    1662    1671       6    1848    1851    1860    1863       1
    1848    1851   -1860    1863       2    1848    1851   -1860    1863       3
    1842    1836    1830    1848       4    1842    1836   -1830    1848       5
    1836    1830    1848    1851       6    1830    1848    1851    1854       7
    1830    1848    1851    1857       7    1830    1848    1851    1860       8
    1830    1848   -1851    1860       7    1827    1785    1779    1836       9
    1815    1812    1824    1827      10    1806    1800    1797    1827      11
    1806    1812   -1824    1827      10    1803    1800    1797    1827      11
    1803    1800    1806    1812      12    1800    1797    1827    1824      13
    1800    1806    1812    1815      14    1800    1806   -1812    1824      14
    1797    1800    1806    1812      12    1797    1827   -1824    1812      15
    1794    1788   -1785    1827      16    1794    1797    1800    1803      11
    1794    1797    1800    1806      11    1794    1797    1827    1824      13
    1788    1785    1779    1836       9    1788    1785   -1827    1797      17
    1788    1785    1827    1824      17    1788    1794    1797    1800      18
    1788    1794   -1797    1827      18    1785    1779    1836    1830      19
    1785    1779    1836    1842      19    1785    1788   -1794    1797      20
    1785    1827   -1797    1794      13    1785    1827    1797    1800      13
    1785    1827    1824    1812      15    1779    1776   -1770    1830      21
    1779    1776   -1770    1830      22    1779    1785    1788    1794      16
    1779    1785    1827    1797      17    1779    1785    1827    1824      17
    1779    1836    1830    1848      19    1776    1770   -1830    1836      19
    1776    1770    1830    1848       4    1776    1770   -1830    1848       5
    1776    1779    1785    1788      23    1776    1779   -1785    1788      24
    1776    1779   -1785    1788      25    1776    1779   -1785    1788      26
    1776    1779    1785    1827       9    1776    1779   -1836    1830      19
    1776    1779    1836    1842       4    1776    1779   -1836    1842       5
    1770    1776    1779    1785      27    1770    1776   -1779    1785      22
    1770    1776   -1779    1836      21    1770    1776   -1779    1836      22
    1770    1830   -1836    1779      28    1770    1830   -1836    1779      29
    1770    1830   -1836    1779      30    1770    1830    1836    1842      19
    1770    1830    1848    1851       6    1761    1770    1776    1779      21
    1761    1770   -1776    1779      22    1761    1770    1830    1836      28
    1761    1770   -1830    1836      29    1761    1770   -1830    1836      30
    1761    1770    1830    1848      19    1758    1761    1770    1776      19
    1758    1761    1770    1830      31    1758    1761   -1770    1830      32
    1758    1761   -1770    1830      33    1755    1749    1758    1761       7
    1752    1749    1758    1761       7    1749    1758    1761    1770       6
    1950    1953    1962    1965       1    1950    1953   -1962    1965       2
    1950    1953   -1962    1965       3    1944    1938    1932    1950       4
    1944    1938   -1932    1950       5    1938    1932    1950    1953       6
    1932    1950    1953    1956       7    1932    1950    1953    1959       7
    1932    1950    1953    1962       8    1932    1950   -1953    1962       7
    1929    1887    1881    1938       9    1917    1914    1926    1929      10
    1908    1902    1899    1929      11    1908    1914   -1926    1929      10
    1905    1902    1899    1929      11    1905    1902    1908    1914      12
    1902    1899    1929    1926      13    1902    1908    1914    1917      14
    1902    1908   -1914    1926      14    1899    1902    1908    1914      12
    1899    1929   -1926    1914      15    1896    1890   -1887    1929      16
    1896    1899    1902    1905      11    1896    1899    1902    1908      11
    1896    1899    1929    1926      13    1890    1887    1881    1938       9
    1890    1887   -1929    1899      17    1890    1887    1929    1926      17
    1890    1896    1899    1902      18    1890    1896   -1899    1929      18
    1887    1881    1938    1932      19    1887    1881    1938    1944      19
    1887    1890   -1896    1899      20    1887    1929   -1899    1896      13
    1887    1929    1899    1902      13    1887    1929    1926    1914      15
    1881    1878   -1872    1932      21    1881    1878   -1872    1932      22
    1881    1887    1890    1896      16    1881    1887    1929    1899      17
    1881    1887    1929    1926      17    1881    1938    1932    1950      19
    1878    1872   -1932    1938      19    1878    1872    1932    1950       4
    1878    1872   -1932    1950       5    1878    1881    1887    1890      23
    1878    1881   -1887    1890      24    1878    1881   -1887    1890      25
    1878    1881   -1887    1890      26    1878    1881    1887    1929       9
    1878    1881   -1938    1932      19    1878    1881    1938    1944       4
    1878    1881   -1938    1944       5    1872    1878    1881    1887      27
    1872    1878   -1881    1887      22    1872    1878   -1881    1938      21
    1872    1878   -1881    1938      22    1872    1932   -1938    1881      28
    1872    1932   -1938    1881      29    1872    1932   -1938    1881      30
    1872    1932    1938    1944      19    1872    1932    1950    1953       6
    1863    1872    1878    1881      21    1863    1872   -1878    1881      22
    1863    1872    1932    1938      28    1863    1872   -1932    1938      29
    1863    1872   -1932    1938      30    1863    1872    1932    1950      19
    1860    1863    1872    1878      19    1860    1863    1872    1932      31
    1860    1863   -1872    1932      32    1860    1863   -1872    1932      33
    1857    1851    1860    1863       7    1854    1851    1860    1863       7
    1851    1860    1863    1872       6    2046    2040    2034    2052       4
    2046    2040   -2034    2052       5    2031    1989    1983    2040       9
    2019    2016    2028    2031      10    2010    2004    2001    2031      11
    2010    2016   -2028    2031      10    2007    2004    2001    2031      11
    2007    2004    2010    2016      12    2004    2001    2031    2028      13
    2004    2010    2016    2019      14    2004    2010   -2016    2028      14
    2001    2004    2010    2016      12    2001    2031   -2028    2016      15
    1998    1992   -1989    2031      16    1998    2001    2004    2007      11
    1998    2001    2004    2010      11    1998    2001    2031    2028      13
    1992    1989    1983    2040       9    1992    1989   -2031    2001      17
    1992    1989    2031    2028      17    1992    1998    2001    2004      18
    1992    1998   -2001    2031      18    1989    1983    2040    2034      19
    1989    1983    2040    2046      19    1989    1992   -1998    2001      20
    1989    2031   -2001    1998      13    1989    2031    2001    2004      13
    1989    2031    2028    2016      15    1983    1980   -1974    2034      21
    1983    1980   -1974    2034      22    1983    1989    1992    1998      16
    1983    1989    2031    2001      17    1983    1989    2031    2028      17
    1983    2040    2034    2052      19    1980    1974   -2034    2040      19
    1980    1974    2034    2052       4    1980    1974   -2034    2052       5
    1980    1983    1989    1992      23    1980    1983   -1989    1992      24
    1980    1983   -1989    1992      25    1980    1983   -1989    1992      26
    1980    1983    1989    2031       9    1980    1983   -2040    2034      19
    1980    1983    2040    2046       4    1980    1983   -2040    2046       5
    1974    1980    1983    1989      27    1974    1980   -1983    1989      22
    1974    1980   -1983    2040      21    1974    1980   -1983    2040      22
    1974    2034   -2040    1983      28    1974    2034   -2040    1983      29
    1974    2034   -2040    1983      30    1974    2034    2040    2046      19
    1965    1974    1980    1983      21    1965    1974   -1980    1983      22
    1965    1974    2034    2040      28    1965    1974   -2034    2040      29
    1965    1974   -2034    2040      30    1965    1974    2034    2052      19
    1962    1965    1974    1980      19    1962    1965    1974    2034      31
    1962    1965   -1974    2034      32    1962    1965   -1974    2034      33
    1959    1953    1962    1965       7    1956    1953    1962    1965       7
    1953    1962    1965    1974       6      30      42     -72     -69      49
      60      51     -57     -69      50      42      51     -45     -48      51
      39      45     -42     -72      49      72      33     -30     -24      52
     144     132    -174    -171      49     162     153    -159    -171      50
     144     153    -147    -150      51     147     174    -144    -141      49
     174     135    -132    -126      52     246     234    -276    -273      49
     264     255    -261    -273      50     246     255    -249    -252      51
     249     276    -246    -243      49     276     237    -234    -228      52
     336     357    -363    -366      51     345     357    -351    -354      51
     363     339    -336    -330      52     426     447    -453    -456      51
     435     447    -441    -444      51     453     429    -426    -420      52
     528     516    -555    -552      49     528     534    -531    -543      50
     525     531    -528    -555      49     555     519    -516    -510      52
     627     615    -657    -654      49     645     636    -642    -654      50
     627     636    -630    -633      51     630     657    -627    -624      49
     657     618    -615    -609      52     729     717    -759    -756      49
     747     738    -744    -756      50     729     738    -732    -735      51
     732     759    -729    -726      49     759     720    -717    -711      52
     831     819    -861    -858      49     849     840    -846    -858      50
     831     840    -834    -837      51     834     861    -831    -828      49
     861     822    -819    -813      52     921     942    -948    -951      51
     930     942    -936    -939      51     948     924    -921    -915      52
    1011    1032   -1038   -1041      51    1020    1032   -1026   -1029      51
    1038    1014   -1011   -1005      52    1113    1101   -1140   -1137      49
    1113    1119   -1116   -1128      50    1116    1140   -1113   -1110      49
    1104    1140   -1101   -1095      52    1212    1200   -1242   -1239      49
    1230    1221   -1227   -1239      50    1212    1221   -1215   -1218      51
    1215    1242   -1212   -1209      49    1242    1203   -1200   -1194      52
    1314    1302   -1344   -1341      49    1332    1323   -1329   -1341      50
    1314    1323   -1317   -1320      51    1317    1344   -1314   -1311      49
    1344    1305   -1302   -1296      52    1416    1404   -1446   -1443      49
    1434    1425   -1431   -1443      50    1416    1425   -1419   -1422      51
    1419    1446   -1416   -1413      49    1446    1407   -1404   -1398      52
    1506    1527   -1533   -1536      51    1515    1527   -1521   -1524      51
    1533    1509   -1506   -1500      52    1596    1617   -1623   -1626      51
    1605    1617   -1611   -1614      51    1623    1599   -1596   -1590      52
    1698    1686   -1725   -1722      49    1698    1704   -1701   -1713      50
    1701    1725   -1698   -1695      49    1689    1725   -1686   -1680      52
    1797    1785   -1827   -1824      49    1815    1806   -1812   -1824      50
    1797    1806   -1800   -1803      51    1800    1827   -1797   -1794      49
    1827    1788   -1785   -1779      52    1899    1887   -1929   -1926      49
    1917    1908   -1914   -1926      50    1899    1908   -1902   -1905      51
    1902    1929   -1899   -1896      49    1929    1890   -1887   -1881      52
    2001    1989   -2031   -2028      49    2019    2010   -2016   -2028      50
    2001    2010   -2004   -2007      51    2004    2031   -2001   -1998      49
    2031    1992   -1989   -1983      52
%FLAG EXCLUDED_ATOMS_LIST                                                       
%FORMAT(10I8)                                                                   
       2       3       4       5       6       3       4       5       6       7
       8      26       4       5       6       7       8       9      26      27
      28      32       5       6       7       8      26       6       7       8
      26       7       8       9      10      11      26      27      28      29
      30      32      33       8       9      26      27      28      32       9
      10      11      12      25      26      27      28      29      30      32
      10      11      12      13      14      15      24      25      26      27
      28      29      30      31      32      11      12      25      26      28
      29      30      12      13      14      15      16      20      24      25
      26      28      29      30      13      14      15      16      24      25
      28      14      15      25      15      16      17      18      24      25
      16      17      18      19      20      24      25      17      18      19
      20      21      24      25      18      19      20      25      19      20
      21      22      23      24      25      20      21      24      21      22
      23      24      25      22      23      24      25      23      24      24
      25      28      27      28      29      30      31      32      33      34
      35      36      28      29      30      32      33      29      30      31
      32      33      30      31      32      31      32       0      33      34
      35      36      37      34      35      36      37      38      39      40
      35      36      37      36      37      37      38      39      40      41
      42      60      38      39      40      41      42      43      60      61
      62      66      39      40      41      42      60      40      41      42
      60      41      42      43      44      45      60      61      62      63
      64      66      67      42      43      60      61      62      66      43
      44      45      46      59      60      61      62      63      64      66
      44      45      46      47      48      49      58      59      60      61
      62      63      64      65      66      45      46      59      60      62
      63      64      46      47      48      49      50      54      58      59
      60      62      63      64      47      48      49      50      58      59
      62      48      49      59      49      50      51      52      58      59
      50      51      52      53      54      58      59      51      52      53
      54      55      58      59      52      53      54      59      53      54
      55      56      57      58      59      54      55      58      55      56
      57      58      59      56      57      58      59      57      58      58
      59      62      61      62      63      64      65      66      67      68
      69      70      62      63      64      66      67      63      64      65
      66      67      64      65      66      65      66       0      67      68
      69      70      71      68      69      70      71      72      73      74
      69      70      71      70      71      71      72      73      74      75
      76      94      72      73      74      75      76      77      94      95
      96     100      73      74      75      76      94      74      75      76
      94      75      76      77      78      79      94      95      96      97
      98     100     101      76      77      94      95      96     100      77
      78      79      80      93      94      95      96      97      98     100
      78      79      80      81      82      83      92      93      94      95
      96      97      98      99     100      79      80      93      94      96
      97      98      80      81      82      83      84      88      92      93
      94      96      97      98      81      82      83      84      92      93
      96      82      83      93      83      84      85      86      92      93
      84      85      86      87      88      92      93      85      86      87
      88      89      92      93      86      87      88      93      87      88
      89      90      91      92      93      88      89      92      89      90
      91      92      93      90      91      92      93      91      92      92
      93      96      95      96      97      98      99     100     101     102
     103     104      96      97      98     100     101      97      98      99
     100     101      98      99     100      99     100       0     101     102
     103     104     105     102     103     104     105     106     107     108
     103     104     105     104     105     105     106     107     108     109
     110     124     106     107     108     109     110     111     124     125
     126     130     107     108     109     110     124     108     109     110
     124     109     110     111     112     113     124     125     126     127
     128     130     131     110     111     124     125     126     130     111
     112     113     114     122     124     125     126     127     128     130
     112     113     114     115     116     120     122     123     124     125
     126     127     128     129     130     113     114     122     124     126
     127     128     114     115     116     117     118     120     121     122
     123     124     126     127     128     115     116     117     118     119
     120     122     123     126     116     117     118     122     117     118
     119     120     121     122     118     119     120     119     120     121
     122     123     120     121     122     121     122     123     122     123
     123     126       0     125     126     127     128     129     130     131
     132     133     134     126     127     128     130     131     127     128
     129     130     131     128     129     130     129     130       0     131
     132     133     134     135     132     133     134     135     136     137
     138     133     134     135     134     135     135     136     137     138
     139     140     154     136     137     138     139     140     141     154
     155     156     160     137     138     139     140     154     138     139
     140     154     139     140     141     142     143     154     155     156
     157     158     160     161     140     141     154     155     156     160
     141     142     143     144     152     154     155     156     157     158
     160     142     143     144     145     146     150     152     153     154
     155     156     157     158     159     160     143     144     152     154
     156     157     158     144     145     146     147     148     150     151
     152     153     154     156     157     158     145     146     147     148
     149     150     152     153     156     146     147     148     152     147
     148     149     150     151     152     148     149     150     149     150
     151     152     153     150     151     152     151     152     153     152
     153     153     156       0     155     156     157     158     159     160
     161     162     163     164     156     157     158     160     161     157
     158     159     160     161     158     159     160     159     160       0
     161     162     163     164     165     162     163     164     165     166
     167     168     163     164     165     164     165     165     166     167
     168     169     170     187     166     167     168     169     170     171
     187     188     189     193     167     168     169     170     187     168
     169     170     187     169     170     171     172     173     187     188
     189     190     191     193     194     170     171     187     188     189
     193     171     172     173     174     186     187     188     189     190
     191     193     172     173     174     175     176     177     185     186
     187     188     189     190     191     192     193     173     174     186
     187     189     190     191     174     175     176     177     178     183
     185     186     187     189     190     191     175     176     177     178
     185     186     189     176     177     186     177     178     179     182
     185     186     178     179     180     181     182     183     185     186
     179     180     181     182     183     184     185     186     180     181
     182     183     186     181     182     182     183     184     185     186
     184     185     186     185     186     186     189     188     189     190
     191     192     193     194     195     196     197     189     190     191
     193     194     190     191     192     193     194     191     192     193
     192     193       0     194     195     196     197     198     195     196
     197     198     199     200     201     196     197     198     197     198
     198     199     200     201     202     203     221     199     200     201
     202     203     204     221     222     223     227     200     201     202
     203     221     201     202     203     221     202     203     204     205
     206     221     222     223     224     225     227     228     203     204
     221     222     223     227     204     205     206     207     220     221
     222     223     224     225     227     205     206     207     208     209
     210     219     220     221     222     223     224     225     226     227
     206     207     220     221     223     224     225     207     208     209
     210     211     215     219     220     221     223     224     225     208
     209     210     211     219     220     223     209     210     220     210
     211     212     213     219     220     211     212     213     214     215
     219     220     212     213     214     215     216     219     220     213
     214     215     220     214     215     216     217     218     219     220
     215     216     219     216     217     218     219     220     217     218
     219     220     218     219     219     220     223     222     223     224
     225     226     227     228     229     230     231     223     224     225
     227     228     224     225     226     227     228     225     226     227
     226     227       0     228     229     230     231     232     229     230
     231     232     233     234     235     230     231     232     231     232
     232     233     234     235     236     237     255     233     234     235
     236     237     238     255     256     257     261     234     235     236
     237     255     235     236     237     255     236     237     238     239
     240     255     256     257     258     259     261     262     237     238
     255     256     257     261     238     239     240     241     254     255
     256     257     258     259     261     239     240     241     242     243
     244     253     254     255     256     257     258     259     260     261
     240     241     254     255     257     258     259     241     242     243
     244     245     249     253     254     255     257     258     259     242
     243     244     245     253     254     257     243     244     254     244
     245     246     247     253     254     245     246     247     248     249
     253     254     246     247     248     249     250     253     254     247
     248     249     254     248     249     250     251     252     253     254
     249     250     253     250     251     252     253     254     251     252
     253     254     252     253     253     254     257     256     257     258
     259     260     261     262     263     264     265     257     258     259
     261     262     258     259     260     261     262     259     260     261
     260     261       0     262     263     264     265     266     263     264
     265     266     267     268     269     264     265     266     265     266
     266     267     268     269     270     271     289     267     268     269
     270     271     272     289     290     291     295     268     269     270
     271     289     269     270     271     289     270     271     272     273
     274     289     290     291     292     293     295     296     271     272
     289     290     291     295     272     273     274     275     288     289
     290     291     292     293     295     273     274     275     276     277
     278     287     288     289     290     291     292     293     294     295
     274     275     288     289     291     292     293     275     276     277
     278     279     283     287     288     289     291     292     293     276
     277     278     279     287     288     291     277     278     288     278
     279     280     281     287     288     279     280     281     282     283
     287     288     280     281     282     283     284     287     288     281
     282     283     288     282     283     284     285     286     287     288
     283     284     287     284     285     286     287     288     285     286
     287     288     286     287     287     288     291     290     291     292
     293     294     295     296     297     298     299     291     292     293
     295     296     292     293     294     295     296     293     294     295
     294     295       0     296     297     298     299     300     297     298
     299     300     301     302     303     298     299     300     299     300
     300     301     302     303     304     305     319     301     302     303
     304     305     306     319     320     321     325     302     303     304
     305     319     303     304     305     319     304     305     306     307
     308     319     320     321     322     323     325     326     305     306
     319     320     321     325     306     307     308     309     317     319
     320     321     322     323     325     307     308     309     310     311
     315     317     318     319     320     321     322     323     324     325
     308     309     317     319     321     322     323     309     310     311
     312     313     315     316     317     318     319     321     322     323
     310     311     312     313     314     315     317     318     321     311
     312     313     317     312     313     314     315     316     317     313
     314     315     314     315     316     317     318     315     316     317
     316     317     318     317     318     318     321       0     320     321
     322     323     324     325     326     327     328     329     321     322
     323     325     326     322     323     324     325     326     323     324
     325     324     325       0     326     327     328     329     330     327
     328     329     330     331     332     333     328     329     330     329
     330     330     331     332     333     334     335     349     331     332
     333     334     335     336     349     350     351     355     332     333
     334     335     349     333     334     335     349     334     335     336
     337     338     349     350     351     352     353     355     356     335
     336     349     350     351     355     336     337     338     339     347
     349     350     351     352     353     355     337     338     339     340
     341     345     347     348     349     350     351     352     353     354
     355     338     339     347     349     351     352     353     339     340
     341     342     343     345     346     347     348     349     351     352
     353     340     341     342     343     344     345     347     348     351
     341     342     343     347     342     343     344     345     346     347
     343     344     345     344     345     346     347     348     345     346
     347     346     347     348     347     348     348     351       0     350
     351     352     353     354     355     356     357     358     359     351
     352     353     355     356     352     353     354     355     356     353
     354     355     354     355       0     356     357     358     359     360
     357     358     359     360     361     362     363     358     359     360
     359     360     360     361     362     363     364     365     382     361
     362     363     364     365     366     382     383     384     388     362
     363     364     365     382     363     364     365     382     364     365
     366     367     368     382     383     384     385     386     388     389
     365     366     382     383     384     388     366     367     368     369
     381     382     383     384     385     386     388     367     368     369
     370     371     372     380     381     382     383     384     385     386
     387     388     368     369     381     382     384     385     386     369
     370     371     372     373     378     380     381     382     384     385
     386     370     371     372     373     380     381     384     371     372
     381     372     373     374     377     380     381     373     374     375
     376     377     378     380     381     374     375     376     377     378
     379     380     381     375     376     377     378     381     376     377
     377     378     379     380     381     379     380     381     380     381
     381     384     383     384     385     386     387     388     389     390
     391     392     384     385     386     388     389     385     386     387
     388     389     386     387     388     387     388       0     389     390
     391     392     393     390     391     392     393     394     395     396
     391     392     393     392     393     393     394     395     396     397
     398     416     394     395     396     397     398     399     416     417
     418     422     395     396     397     398     416     396     397     398
     416     397     398     399     400     401     416     417     418     419
     420     422     423     398     399     416     417     418     422     399
     400     401     402     415     416     417     418     419     420     422
     400     401     402     403     404     405     414     415     416     417
     418     419     420     421     422     401     402     415     416     418
     419     420     402     403     404     405     406     410     414     415
     416     418     419     420     403     404     405     406     414     415
     418     404     405     415     405     406     407     408     414     415
     406     407     408     409     410     414     415     407     408     409
     410     411     414     415     408     409     410     415     409     410
     411     412     413     414     415     410     411     414     411     412
     413     414     415     412     413     414     415     413     414     414
     415     418     417     418     419     420     421     422     423     424
     425     426     418     419     420     422     423     419     420     421
     422     423     420     421     422     421     422       0     423     424
     425     426     427     424     425     426     427     428     429     430
     425     426     427     426     427     427     428     429     430     431
     432     450     428     429     430     431     432     433     450     451
     452     456     429     430     431     432     450     430     431     432
     450     431     432     433     434     435     450     451     452     453
     454     456     457     432     433     450     451     452     456     433
     434     435     436     449     450     451     452     453     454     456
     434     435     436     437     438     439     448     449     450     451
     452     453     454     455     456     435     436     449     450     452
     453     454     436     437     438     439     440     444     448     449
     450     452     453     454     437     438     439     440     448     449
     452     438     439     449     439     440     441     442     448     449
     440     441     442     443     444     448     449     441     442     443
     444     445     448     449     442     443     444     449     443     444
     445     446     447     448     449     444     445     448     445     446
     447     448     449     446     447     448     449     447     448     448
     449     452     451     452     453     454     455     456     457     458
     459     460     452     453     454     456     457     453     454     455
     456     457     454     455     456     455     456       0     457     458
     459     460     461     458     459     460     461     462     463     464
     459     460     461     460     461     461     462     463     464     465
     466     484     462     463     464     465     466     467     484     485
     486     490     463     464     465     466     484     464     465     466
     484     465     466     467     468     469     484     485     486     487
     488     490     491     466     467     484     485     486     490     467
     468     469     470     483     484     485     486     487     488     490
     468     469     470     471     472     473     482     483     484     485
     486     487     488     489     490     469     470     483     484     486
     487     488     470     471     472     473     474     478     482     483
     484     486     487     488     471     472     473     474     482     483
     486     472     473     483     473     474     475     476     482     483
     474     475     476     477     478     482     483     475     476     477
     478     479     482     483     476     477     478     483     477     478
     479     480     481     482     483     478     479     482     479     480
     481     482     483     480     481     482     483     481     482     482
     483     486     485     486     487     488     489     490     491     492
     493     494     486     487     488     490     491     487     488     489
     490     491     488     489     490     489     490       0     491     492
     493     494     495     492     493     494     495     496     497     498
     493     494     495     494     495     495     496     497     498     499
     500     514     496     497     498     499     500     501     514     515
     516     520     497     498     499     500     514     498     499     500
     514     499     500     501     502     503     514     515     516     517
     518     520     521     500     501     514     515     516     520     501
     502     503     504     512     514     515     516     517     518     520
     502     503     504     505     506     510     512     513     514     515
     516     517     518     519     520     503     504     512     514     516
     517     518     504     505     506     507     508     510     511     512
     513     514     516     517     518     505     506     507     508     509
     510     512     513     516     506     507     508     512     507     508
     509     510     511     512     508     509     510     509     510     511
     512     513     510     511     512     511     512     513     512     513
     513     516       0     515     516     517     518     519     520     521
     522     523     524     516     517     518     520     521     517     518
     519     520     521     518     519     520     519     520       0     521
     522     523     524     525     522     523     524     525     526     527
     528     523     524     525     524     525     525     526     527     528
     529     530     544     526     527     528     529     530     531     544
     545     546     550     527     528     529     530     544     528     529
     530     544     529     530     531     532     533     544     545     546
     547     548     550     551     530     531     544     545     546     550
     531     532     533     534     542     544     545     546     547     548
     550     532     533     534     535     536     540     542     543     544
     545     546     547     548     549     550     533     534     542     544
     546     547     548     534     535     536     537     538     540     541
     542     543     544     546     547     548     535     536     537     538
     539     540     542     543     546     536     537     538     542     537
     538     539     540     541     542     538     539     540     539     540
     541     542     543     540     541     542     541     542     543     542
     543     543     546       0     545     546     547     548     549     550
     551     552     553     554     546     547     548     550     551     547
     548     549     550     551     548     549     550     549     550       0
     551     552     553     554     555     552     553     554     555     556
     557     558     553     554     555     554     555     555     556     557
     558     559     560     577     556     557     558     559     560     561
     577     578     579     583     557     558     559     560     577     558
     559     560     577     559     560     561     562     563     577     578
     579     580     581     583     584     560     561     577     578     579
     583     561     562     563     564     576     577     578     579     580
     581     583     562     563     564     565     566     567     575     576
     577     578     579     580     581     582     583     563     564     576
     577     579     580     581     564     565     566     567     568     573
     575     576     577     579     580     581     565     566     567     568
     575     576     579     566     567     576     567     568     569     572
     575     576     568     569     570     571     572     573     575     576
     569     570     571     572     573     574     575     576     570     571
     572     573     576     571     572     572     573     574     575     576
     574     575     576     575     576     576     579     578     579     580
     581     582     583     584     585     586     587     579     580     581
     583     584     580     581     582     583     584     581     582     583
     582     583       0     584     585     586     587     588     585     586
     587     588     589     590     591     586     587     588     587     588
     588     589     590     591     592     593     611     589     590     591
     592     593     594     611     612     613     617     590     591     592
     593     611     591     592     593     611     592     593     594     595
     596     611     612     613     614     615     617     618     593     594
     611     612     613     617     594     595     596     597     610     611
     612     613     614     615     617     595     596     597     598     599
     600     609     610     611     612     613     614     615     616     617
     596     597     610     611     613     614     615     597     598     599
     600     601     605     609     610     611     613     614     615     598
     599     600     601     609     610     613     599     600     610     600
     601     602     603     609     610     601     602     603     604     605
     609     610     602     603     604     605     606     609     610     603
     604     605     610     604     605     606     607     608     609     610
     605     606     609     606     607     608     609     610     607     608
     609     610     608     609     609     610     613     612     613     614
     615     616     617     618     619     620     621     613     614     615
     617     618     614     615     616     617     618     615     616     617
     616     617       0     618     619     620     621     622     619     620
     621     622     623     624     625     620     621     622     621     622
     622     623     624     625     626     627     645     623     624     625
     626     627     628     645     646     647     651     624     625     626
     627     645     625     626     627     645     626     627     628     629
     630     645     646     647     648     649     651     652     627     628
     645     646     647     651     628     629     630     631     644     645
     646     647     648     649     651     629     630     631     632     633
     634     643     644     645     646     647     648     649     650     651
     630     631     644     645     647     648     649     631     632     633
     634     635     639     643     644     645     647     648     649     632
     633     634     635     643     644     647     633     634     644     634
     635     636     637     643     644     635     636     637     638     639
     643     644     636     637     638     639     640     643     644     637
     638     639     644     638     639     640     641     642     643     644
     639     640     643     640     641     642     643     644     641     642
     643     644     642     643     643     644     647     646     647     648
     649     650     651     652     653     654     655     647     648     649
     651     652     648     649     650     651     652     649     650     651
     650     651       0     652     653     654     655     656     653     654
     655     656     657     658     659     654     655     656     655     656
     656     657     658     659     660     661     679     657     658     659
     660     661     662     679     680     681     685     658     659     660
     661     679     659     660     661     679     660     661     662     663
     664     679     680     681     682     683     685     686     661     662
     679     680     681     685     662     663     664     665     678     679
     680     681     682     683     685     663     664     665     666     667
     668     677     678     679     680     681     682     683     684     685
     664     665     678     679     681     682     683     665     666     667
     668     669     673     677     678     679     681     682     683     666
     667     668     669     677     678     681     667     668     678     668
     669     670     671     677     678     669     670     671     672     673
     677     678     670     671     672     673     674     677     678     671
     672     673     678     672     673     674     675     676     677     678
     673     674     677     674     675     676     677     678     675     676
     677     678     676     677     677     678     681     680     681     682
     683     684     685     686     681     682     683     685     686     682
     683     684     685     686     683     684     685     684     685       0
     686       0       0       0       0       0       0       0       0       0
       0       0       0       0       0       0       0       0       0       0
       0       0       0       0       0       0       0       0       0       0
       0       0       0       0       0       0       0       0       0       0
       0       0       0       0       0       0       0       0       0       0
       0       0       0       0       0       0       0       0       0       0
       0       0       0       0       0       0       0       0       0       0
       0       0       0       0       0       0       0       0       0       0
       0       0       0       0       0       0       0       0       0       0
       0       0       0       0       0       0       0       0       0       0
       0       0       0       0       0       0       0       0       0       0
       0       0       0       0       0       0       0       0       0       0
       0       0       0       0       0       0       0       0       0       0
       0       0       0       0       0       0       0       0       0       0
       0       0       0       0       0       0       0       0       0       0
       0       0       0       0       0       0       0       0       0       0
       0       0       0       0       0       0       0       0       0       0
       0       0       0       0       0       0       0       0       0       0
       0       0       0       0       0       0       0       0       0       0
       0       0
%FLAG HBOND_ACOEF                                                               
%FORMAT(5E16.8)                                                                 

%FLAG HBOND_BCOEF                                                               
%FORMAT(5E16.8)                                                                 

%FLAG HBCUT                                                                     
%FORMAT(5E16.8)                                                                 

%FLAG AMBER_ATOM_TYPE                                                           
%FORMAT(20a4)                                                                   
HO  OH  CI  H1  H1  CT  H1  OS  CT  H2  N*  CP  H5  NB  CB  C   O   NA  H   CA  
N2  H   H   NC  CB  CT  H1  CT  H1  OH  HO  OS  P   O2  O2  OS  CI  H1  H1  CT  
H1  OS  CT  H2  N*  CP  H5  NB  CB  C   O   NA  H   CA  N2  H   H   NC  CB  CT  
H1  CT  H1  OH  HO  OS  P   O2  O2  OS  CI  H1  H1  CT  H1  OS  CT  H2  N*  CP  
H5  NB  CB  C   O   NA  H   CA  N2  H   H   NC  CB  CT  H1  CT  H1  OH  HO  OS  
P   O2  O2  OS  CI  H1  H1  CT  H1  OS  CT  H2  N*  CS  H4  CS  HA  C   O   NA  
H   C   O   CT  H1  CT  H1  OH  HO  OS  P   O2  O2  OS  CI  H1  H1  CT  H1  OS  
CT  H2  N*  CS  H4  CS  HA  C   O   NA  H   C   O   CT  H1  CT  H1  OH  HO  OS  
P   O2  O2  OS  CI  H1  H1  CT  H1  OS  CT  H2  N*  C5  H5  NB  CB  CA  N2  H   
H   NC  CQ  H5  NC  CB  CT  H1  CT  H1  OH  HO  OS  P   O2  O2  OS  CI  H1  H1  
CT  H1  OS  CT  H2  N*  CP  H5  NB  CB  C   O   NA  H   CA  N2  H   H   NC  CB  
CT  H1  CT  H1  OH  HO  OS  P   O2  O2  OS  CI  H1  H1  CT  H1  OS  CT  H2  N*  
CP  H5  NB  CB  C   O   NA  H   CA  N2  H   H   NC  CB  CT  H1  CT  H1  OH  HO  
OS  P   O2  O2  OS  CI  H1  H1  CT  H1  OS  CT  H2  N*  CP  H5  NB  CB  C   O   
NA  H   CA  N2  H   H   NC  CB  CT  H1  CT  H1  OH  HO  OS  P   O2  O2  OS  CI  
H1  H1  CT  H1  OS  CT  H2  N*  CS  H4  CS  HA  C   O   NA  H   C   O   CT  H1  
CT  H1  OH  HO  OS  P   O2  O2  OS  CI  H1  H1  CT  H1  OS  CT  H2  N*  CS  H4  
CS  HA  C   O   NA  H   C   O   CT  H1  CT  H1  OH  HO  OS  P   O2  O2  OS  CI  
H1  H1  CT  H1  OS  CT  H2  N*  C5  H5  NB  CB  CA  N2  H   H   NC  CQ  H5  NC  
CB  CT  H1  CT  H1  OH  HO  OS  P   O2  O2  OS  CI  H1  H1  CT  H1  OS  CT  H2  
N*  CP  H5  NB  CB  C   O   NA  H   CA  N2  H   H   NC  CB  CT  H1  CT  H1  OH  
HO  OS  P   O2  O2  OS  CI  H1  H1  CT  H1  OS  CT  H2  N*  CP  H5  NB  CB  C   
O   NA  H   CA  N2  H   H   NC  CB  CT  H1  CT  H1  OH  HO  OS  P   O2  O2  OS  
CI  H1  H1  CT  H1  OS  CT  H2  N*  CP  H5  NB  CB  C   O   NA  H   CA  N2  H   
H   NC  CB  CT  H1  CT  H1  OH  HO  OS  P   O2  O2  OS  CI  H1  H1  CT  H1  OS  
CT  H2  N*  CS  H4  CS  HA  C   O   NA  H   C   O   CT  H1  CT  H1  OH  HO  OS  
P   O2  O2  OS  CI  H1  H1  CT  H1  OS  CT  H2  N*  CS  H4  CS  HA  C   O   NA  
H   C   O   CT  H1  CT  H1  OH  HO  OS  P   O2  O2  OS  CI  H1  H1  CT  H1  OS  
CT  H2  N*  C5  H5  NB  CB  CA  N2  H   H   NC  CQ  H5  NC  CB  CT  H1  CT  H1  
OH  HO  OS  P   O2  O2  OS  CI  H1  H1  CT  H1  OS  CT  H2  N*  CP  H5  NB  CB  
C   O   NA  H   CA  N2  H   H   NC  CB  CT  H1  CT  H1  OH  HO  OS  P   O2  O2  
OS  CI  H1  H1  CT  H1  OS  CT  H2  N*  CP  H5  NB  CB  C   O   NA  H   CA  N2  
H   H   NC  CB  CT  H1  CT  H1  OH  HO  OS  P   O2  O2  OS  CI  H1  H1  CT  H1  
OS  CT  H2  N*  CP  H5  NB  CB  C   O   NA  H   CA  N2  H   H   NC  CB  CT  H1  
CT  H1  OH  HO  OH  HO  Cl- Cl- Cl- Cl- Cl- Cl- Cl- Cl- Cl- Cl- Cl- Cl- Cl- Cl- 
Cl- Cl- Cl- Cl- Cl- Cl- Cl- Cl- Cl- Cl- Cl- Cl- Cl- Cl- Cl- Cl- Cl- Cl- Cl- Cl- 
Cl- Cl- Cl- Cl- Cl- Cl- Cl- Cl- Cl- Cl- Cl- Cl- Cl- Cl- Cl- Cl- Cl- Cl- Cl- Cl- 
Cl- Cl- Cl- Cl- Cl- Cl- Cl- Cl- Cl- Cl- Cl- Cl- Cl- Cl- Cl- Cl- Cl- Cl- Cl- Cl- 
Cl- Cl- Cl- Cl- Cl- Cl- Cl- Cl- Cl- Cl- Cl- K+  K+  K+  K+  K+  K+  K+  K+  K+  
K+  K+  K+  K+  K+  K+  K+  K+  K+  K+  K+  K+  K+  K+  K+  K+  K+  K+  K+  K+  
K+  K+  K+  K+  K+  K+  K+  K+  K+  K+  K+  K+  K+  K+  K+  K+  K+  K+  K+  K+  
K+  K+  K+  K+  K+  K+  K+  K+  K+  K+  K+  K+  K+  K+  K+  K+  K+  K+  K+  K+  
K+  K+  K+  K+  K+  K+  K+  K+  K+  K+  K+  K+  K+  K+  K+  K+  K+  K+  K+  K+  
K+  K+  K+  K+  K+  K+  K+  K+  K+  K+  K+  K+  K+  K+  K+  K+  
%FLAG TREE_CHAIN_CLASSIFICATION                                                 
%FORMAT(20a4)                                                                   
M   M   M   E   E   M   E   S   3   E   B   S   E   E   B   B   E   B   E   S   
B   E   E   E   B   M   E   B   E   S   E   M   M   E   E   M   M   E   E   M   
E   S   3   E   B   S   E   E   B   B   E   B   E   S   B   E   E   E   B   M   
E   B   E   S   E   M   M   E   E   M   M   E   E   M   E   S   3   E   B   S   
E   E   B   B   E   B   E   S   B   E   E   E   B   M   E   B   E   S   E   M   
M   E   E   M   M   E   E   M   E   S   3   E   B   S   E   S   E   B   E   B   
E   B   E   M   E   B   E   S   E   M   M   E   E   M   M   E   E   M   E   S   
3   E   B   S   E   S   E   B   E   B   E   B   E   M   E   B   E   S   E   M   
M   E   E   M   M   E   E   M   E   S   3   E   B   S   E   E   B   B   B   E   
E   S   S   E   E   B   M   E   B   E   S   E   M   M   E   E   M   M   E   E   
M   E   S   3   E   B   S   E   E   B   B   E   B   E   S   B   E   E   E   B   
M   E   B   E   S   E   M   M   E   E   M   M   E   E   M   E   S   3   E   B   
S   E   E   B   B   E   B   E   S   B   E   E   E   B   M   E   B   E   S   E   
M   M   E   E   M   M   E   E   M   E   S   3   E   B   S   E   E   B   B   E   
B   E   S   B   E   E   E   B   M   E   B   E   S   E   M   M   E   E   M   M   
E   E   M   E   S   3   E   B   S   E   S   E   B   E   B   E   B   E   M   E   
B   E   S   E   M   M   E   E   M   M   E   E   M   E   S   3   E   B   S   E   
S   E   B   E   B   E   B   E   M   E   B   E   S   E   M   M   E   E   M   M   
E   E   M   E   S   3   E   B   S   E   E   B   B   B   E   E   S   S   E   E   
B   M   E   B   E   S   E   M   M   E   E   M   M   E   E   M   E   S   3   E   
B   S   E   E   B   B   E   B   E   S   B   E   E   E   B   M   E   B   E   S   
E   M   M   E   E   M   M   E   E   M   E   S   3   E   B   S   E   E   B   B   
E   B   E   S   B   E   E   E   B   M   E   B   E   S   E   M   M   E   E   M   
M   E   E   M   E   S   3   E   B   S   E   E   B   B   E   B   E   S   B   E   
E   E   B   M   E   B   E   S   E   M   M   E   E   M   M   E   E   M   E   S   
3   E   B   S   E   S   E   B   E   B   E   B   E   M   E   B   E   S   E   M   
M   E   E   M   M   E   E   M   E   S   3   E   B   S   E   S   E   B   E   B   
E   B   E   M   E   B   E   S   E   M   M   E   E   M   M   E   E   M   E   S   
3   E   B   S   E   E   B   B   B   E   E   S   S   E   E   B   M   E   B   E   
S   E   M   M   E   E   M   M   E   E   M   E   S   3   E   B   S   E   E   B   
B   E   B   E   S   B   E   E   E   B   M   E   B   E   S   E   M   M   E   E   
M   M   E   E   M   E   S   3   E   B   S   E   E   B   B   E   B   E   S   B   
E   E   E   B   M   E   B   E   S   E   M   M   E   E   M   M   E   E   M   E   
S   3   E   B   S   E   E   B   B   E   B   E   S   B   E   E   E   B   M   E   
B   E   S   E   M   M   M   M   M   M   M   M   M   M   M   M   M   M   M   M   
M   M   M   M   M   M   M   M   M   M   M   M   M   M   M   M   M   M   M   M   
M   M   M   M   M   M   M   M   M   M   M   M   M   M   M   M   M   M   M   M   
M   M   M   M   M   M   M   M   M   M   M   M   M   M   M   M   M   M   M   M   
M   M   M   M   M   M   M   M   M   M   M   M   M   M   M   M   M   M   M   M   
M   M   M   M   M   M   M   M   M   M   M   M   M   M   M   M   M   M   M   M   
M   M   M   M   M   M   M   M   M   M   M   M   M   M   M   M   M   M   M   M   
M   M   M   M   M   M   M   M   M   M   M   M   M   M   M   M   M   M   M   M   
M   M   M   M   M   M   M   M   M   M   M   M   M   M   M   M   M   M   M   M   
M   M   M   M   M   M   M   M   M   M   M   M   M   M   M   M   
%FLAG JOIN_ARRAY                                                                
%FORMAT(10I8)                                                                   
       0       0       0       0       0       0       0       0       0       0
       0       0       0       0       0       0       0       0       0       0
       0       0       0       0       0       0       0       0       0       0
       0       0       0       0       0       0       0       0       0       0
       0       0       0       0       0       0       0       0       0       0
       0       0       0       0       0       0       0       0       0       0
       0       0       0       0       0       0       0       0       0       0
       0       0       0       0       0       0       0       0       0       0
       0       0       0       0       0       0       0       0       0       0
       0       0       0       0       0       0       0       0       0       0
       0       0       0       0       0       0       0       0       0       0
       0       0       0       0       0       0       0       0       0       0
       0       0       0       0       0       0       0       0       0       0
       0       0       0       0       0       0       0       0       0       0
       0       0       0       0       0       0       0       0       0       0
       0       0       0       0       0       0       0       0       0       0
       0       0       0       0       0       0       0       0       0       0
       0       0       0       0       0       0       0       0       0       0
       0       0       0       0       0       0       0       0       0       0
       0       0       0       0       0       0       0       0       0       0
       0       0       0       0       0       0       0       0       0       0
       0       0       0       0       0       0       0       0       0       0
       0       0       0       0       0       0       0       0       0       0
       0       0       0       0       0       0       0       0       0       0
       0       0       0       0       0       0       0       0       0       0
       0       0       0       0       0       0       0       0       0       0
       0       0       0       0       0       0       0       0       0       0
       0       0       0       0       0       0       0       0       0       0
       0       0       0       0       0       0       0       0       0       0
       0       0       0       0       0       0       0       0       0       0
       0       0       0       0       0       0       0       0       0       0
       0       0       0       0       0       0       0       0       0       0
       0       0       0       0       0       0       0       0       0       0
       0       0       0       0       0       0       0       0       0       0
       0       0       0       0       0       0       0       0       0       0
       0       0       0       0       0       0       0       0       0       0
       0       0       0       0       0       0       0       0       0       0
       0       0       0       0       0       0       0       0       0       0
       0       0       0       0       0       0       0       0       0       0
       0       0       0       0       0       0       0       0       0       0
       0       0       0       0       0       0       0       0       0       0
       0       0       0       0       0       0       0       0       0       0
       0       0       0       0       0       0       0       0       0       0
       0       0       0       0       0       0       0       0       0       0
       0       0       0       0       0       0       0       0       0       0
       0       0       0       0       0       0       0       0       0       0
       0       0       0       0       0       0       0       0       0       0
       0       0       0       0       0       0       0       0       0       0
       0       0       0       0       0       0       0       0       0       0
       0       0       0       0       0       0       0       0       0       0
       0       0       0       0       0       0       0       0       0       0
       0       0       0       0       0       0       0       0       0       0
       0       0       0       0       0       0       0       0       0       0
       0       0       0       0       0       0       0       0       0       0
       0       0       0       0       0       0       0       0       0       0
       0       0       0       0       0       0       0       0       0       0
       0       0       0       0       0       0       0       0       0       0
       0       0       0       0       0       0       0       0       0       0
       0       0       0       0       0       0       0       0       0       0
       0       0       0       0       0       0       0       0       0       0
       0       0       0       0       0       0       0       0       0       0
       0       0       0       0       0       0       0       0       0       0
       0       0       0       0       0       0       0       0       0       0
       0       0       0       0       0       0       0       0       0       0
       0       0       0       0       0       0       0       0       0       0
       0       0       0       0       0       0       0       0       0       0
       0       0       0       0       0       0       0       0       0       0
       0       0       0       0       0       0       0       0       0       0
       0       0       0       0       0       0       0       0       0       0
       0       0       0       0       0       0       0       0       0       0
       0       0       0       0       0       0       0       0       0       0
       0       0       0       0       0       0       0       0       0       0
       0       0       0       0       0       0       0       0       0       0
       0       0       0       0       0       0       0       0       0       0
       0       0       0       0       0       0       0       0       0       0
       0       0       0       0       0       0       0       0       0       0
       0       0       0       0       0       0       0       0       0       0
       0       0       0       0       0       0       0       0       0       0
       0       0       0       0       0       0       0       0       0       0
       0       0       0       0       0       0       0       0       0       0
       0       0       0       0       0       0       0       0       0       0
       0       0       0       0       0       0       0       0       0       0
       0       0       0       0       0       0       0       0       0       0
       0       0       0       0       0       0       0       0       0       0
       0       0       0       0       0       0       0       0       0       0
       0       0       0       0       0       0       0       0       0       0
       0       0       0       0       0       0       0       0       0       0
       0       0       0       0       0       0
%FLAG IROTAT                                                                    
%FORMAT(10I8)                                                                   
       0       0       0       0       0       0       0       0       0       0
       0       0       0       0       0       0       0       0       0       0
       0       0       0       0       0       0       0       0       0       0
       0       0       0       0       0       0       0       0       0       0
       0       0       0       0       0       0       0       0       0       0
       0       0       0       0       0       0       0       0       0       0
       0       0       0       0       0       0       0       0       0       0
       0       0       0       0       0       0       0       0       0       0
       0       0       0       0       0       0       0       0       0       0
       0       0       0       0       0       0       0       0       0       0
       0       0       0       0       0       0       0       0       0       0
       0       0       0       0       0       0       0       0       0       0
       0       0       0       0       0       0       0       0       0       0
       0       0       0       0       0       0       0       0       0       0
       0       0       0       0       0       0       0       0       0       0
       0       0       0       0       0       0       0       0       0       0
       0       0       0       0       0       0       0       0       0       0
       0       0       0       0       0       0       0       0       0       0
       0       0       0       0       0       0       0       0       0       0
       0       0       0       0       0       0       0       0       0       0
       0       0       0       0       0       0       0       0       0       0
       0       0       0       0       0       0       0       0       0       0
       0       0       0       0       0       0       0       0       0       0
       0       0       0       0       0       0       0       0       0       0
       0       0       0       0       0       0       0       0       0       0
       0       0       0       0       0       0       0       0       0       0
       0       0       0       0       0       0       0       0       0       0
       0       0       0       0       0       0       0       0       0       0
       0       0       0       0       0       0       0       0       0       0
       0       0       0       0       0       0       0       0       0       0
       0       0       0       0       0       0       0       0       0       0
       0       0       0       0       0       0       0       0       0       0
       0       0       0       0       0       0       0       0       0       0
       0       0       0       0       0       0       0       0       0       0
       0       0       0       0       0       0       0       0       0       0
       0       0       0       0       0       0       0       0       0       0
       0       0       0       0       0       0       0       0       0       0
       0       0       0       0       0       0       0       0       0       0
       0       0       0       0       0       0       0       0       0       0
       0       0       0       0       0       0       0       0       0       0
       0       0       0       0       0       0       0       0       0       0
       0       0       0       0       0       0       0       0       0       0
       0       0       0       0       0       0       0       0       0       0
       0       0       0       0       0       0       0       0       0       0
       0       0       0       0       0       0       0       0       0       0
       0       0       0       0       0       0       0       0       0       0
       0       0       0       0       0       0       0       0       0       0
       0       0       0       0       0       0       0       0       0       0
       0       0       0       0       0       0       0       0       0       0
       0       0       0       0       0       0       0       0       0       0
       0       0       0       0       0       0       0       0       0       0
       0       0       0       0       0       0       0       0       0       0
       0       0       0       0       0       0       0       0       0       0
       0       0       0       0       0       0       0       0       0       0
       0       0       0       0       0       0       0       0       0       0
       0       0       0       0       0       0       0       0       0       0
       0       0       0       0       0       0       0       0       0       0
       0       0       0       0       0       0       0       0       0       0
       0       0       0       0       0       0       0       0       0       0
       0       0       0       0       0       0       0       0       0       0
       0       0       0       0       0       0       0       0       0       0
       0       0       0       0       0       0       0       0       0       0
       0       0       0       0       0       0       0       0       0       0
       0       0       0       0       0       0       0       0       0       0
       0       0       0       0       0       0       0       0       0       0
       0       0       0       0       0       0       0       0       0       0
       0       0       0       0       0       0       0       0       0       0
       0       0       0       0       0       0       0       0       0       0
       0       0       0       0       0       0       0       0       0       0
       0       0       0       0       0       0       0       0       0       0
       0       0       0       0       0       0       0       0       0       0
       0       0       0       0       0       0       0       0       0       0
       0       0       0       0       0       0       0       0       0       0
       0       0       0       0       0       0       0       0       0       0
       0       0       0       0       0       0       0       0       0       0
       0       0       0       0       0       0       0       0       0       0
       0       0       0       0       0       0       0       0       0       0
       0       0       0       0       0       0       0       0       0       0
       0       0       0       0       0       0       0       0       0       0
       0       0       0       0       0       0       0       0       0       0
       0       0       0       0       0       0       0       0       0       0
       0       0       0       0       0       0       0       0       0       0
       0       0       0       0       0       0       0       0       0       0
       0       0       0       0       0       0       0       0       0       0
       0       0       0       0       0       0       0       0       0       0
       0       0       0       0       0       0       0       0       0       0
       0       0       0       0       0       0       0       0       0       0
       0       0       0       0       0       0
%FLAG SOLVENT_POINTERS                                                          
%FORMAT(3I8)                                                                    
     211     191     192
%FLAG ATOMS_PER_MOLECULE                                                        
%FORMAT(10I8)                                                                   
     686       1       1       1       1       1       1       1       1       1
       1       1       1       1       1       1       1       1       1       1
       1       1       1       1       1       1       1       1       1       1
       1       1       1       1       1       1       1       1       1       1
       1       1       1       1       1       1       1       1       1       1
       1       1       1       1       1       1       1       1       1       1
       1       1       1       1       1       1       1       1       1       1
       1       1       1       1       1       1       1       1       1       1
       1       1       1       1       1       1       1       1       1       1
       1       1       1       1       1       1       1       1       1       1
       1       1       1       1       1       1       1       1       1       1
       1       1       1       1       1       1       1       1       1       1
       1       1       1       1       1       1       1       1       1       1
       1       1       1       1       1       1       1       1       1       1
       1       1       1       1       1       1       1       1       1       1
       1       1       1       1       1       1       1       1       1       1
       1       1       1       1       1       1       1       1       1       1
       1       1       1       1       1       1       1       1       1       1
       1       1       1       1       1       1       1       1       1       1
       1
%FLAG BOX_DIMENSIONS                                                            
%FORMAT(5E16.8)                                                                 
  9.00000000E+01  9.88927875E+03  9.84380020E+03  9.89278525E+03
%FLAG RADIUS_SET                                                                
%FORMAT(1a80)                                                                   
modified Bondi radii (mbondi)                                                   
%FLAG RADII                                                                     
%FORMAT(5E16.8)                                                                 
  8.00000000E-01  1.50000000E+00  1.70000000E+00  1.30000000E+00  1.30000000E+00
  1.70000000E+00  1.30000000E+00  1.50000000E+00  1.70000000E+00  1.30000000E+00
  1.55000000E+00  1.70000000E+00  1.30000000E+00  1.55000000E+00  1.70000000E+00
  1.70000000E+00  1.50000000E+00  1.55000000E+00  1.30000000E+00  1.70000000E+00
  1.55000000E+00  1.30000000E+00  1.30000000E+00  1.55000000E+00  1.70000000E+00
  1.70000000E+00  1.30000000E+00  1.70000000E+00  1.30000000E+00  1.50000000E+00
  8.00000000E-01  1.50000000E+00  1.85000000E+00  1.50000000E+00  1.50000000E+00
  1.50000000E+00  1.70000000E+00  1.30000000E+00  1.30000000E+00  1.70000000E+00
  1.30000000E+00  1.50000000E+00  1.70000000E+00  1.30000000E+00  1.55000000E+00
  1.70000000E+00  1.30000000E+00  1.55000000E+00  1.70000000E+00  1.70000000E+00
  1.50000000E+00  1.55000000E+00  1.30000000E+00  1.70000000E+00  1.55000000E+00
  1.30000000E+00  1.30000000E+00  1.55000000E+00  1.70000000E+00  1.70000000E+00
  1.30000000E+00  1.70000000E+00  1.30000000E+00  1.50000000E+00  8.00000000E-01
  1.50000000E+00  1.85000000E+00  1.50000000E+00  1.50000000E+00  1.50000000E+00
  1.70000000E+00  1.30000000E+00  1.30000000E+00  1.70000000E+00  1.30000000E+00
  1.50000000E+00  1.70000000E+00  1.30000000E+00  1.55000000E+00  1.70000000E+00
  1.30000000E+00  1.55000000E+00  1.70000000E+00  1.70000000E+00  1.50000000E+00
  1.55000000E+00  1.30000000E+00  1.70000000E+00  1.55000000E+00  1.30000000E+00
  1.30000000E+00  1.55000000E+00  1.70000000E+00  1.70000000E+00  1.30000000E+00
  1.70000000E+00  1.30000000E+00  1.50000000E+00  8.00000000E-01  1.50000000E+00
  1.85000000E+00  1.50000000E+00  1.50000000E+00  1.50000000E+00  1.70000000E+00
  1.30000000E+00  1.30000000E+00  1.70000000E+00  1.30000000E+00  1.50000000E+00
  1.70000000E+00  1.30000000E+00  1.55000000E+00  1.70000000E+00  1.30000000E+00
  1.70000000E+00  1.30000000E+00  1.70000000E+00  1.50000000E+00  1.55000000E+00
  1.30000000E+00  1.70000000E+00  1.50000000E+00  1.70000000E+00  1.30000000E+00
  1.70000000E+00  1.30000000E+00  1.50000000E+00  8.00000000E-01  1.50000000E+00
  1.85000000E+00  1.50000000E+00  1.50000000E+00  1.50000000E+00  1.70000000E+00
  1.30000000E+00  1.30000000E+00  1.70000000E+00  1.30000000E+00  1.50000000E+00
  1.70000000E+00  1.30000000E+00  1.55000000E+00  1.70000000E+00  1.30000000E+00
  1.70000000E+00  1.30000000E+00  1.70000000E+00  1.50000000E+00  1.55000000E+00
  1.30000000E+00  1.70000000E+00  1.50000000E+00  1.70000000E+00  1.30000000E+00
  1.70000000E+00  1.30000000E+00  1.50000000E+00  8.00000000E-01  1.50000000E+00
  1.85000000E+00  1.50000000E+00  1.50000000E+00  1.50000000E+00  1.70000000E+00
  1.30000000E+00  1.30000000E+00  1.70000000E+00  1.30000000E+00  1.50000000E+00
  1.70000000E+00  1.30000000E+00  1.55000000E+00  1.70000000E+00  1.30000000E+00
  1.55000000E+00  1.70000000E+00  1.70000000E+00  1.55000000E+00  1.30000000E+00
  1.30000000E+00  1.55000000E+00  1.70000000E+00  1.30000000E+00  1.55000000E+00
  1.70000000E+00  1.70000000E+00  1.30000000E+00  1.70000000E+00  1.30000000E+00
  1.50000000E+00  8.00000000E-01  1.50000000E+00  1.85000000E+00  1.50000000E+00
  1.50000000E+00  1.50000000E+00  1.70000000E+00  1.30000000E+00  1.30000000E+00
  1.70000000E+00  1.30000000E+00  1.50000000E+00  1.70000000E+00  1.30000000E+00
  1.55000000E+00  1.70000000E+00  1.30000000E+00  1.55000000E+00  1.70000000E+00
  1.70000000E+00  1.50000000E+00  1.55000000E+00  1.30000000E+00  1.70000000E+00
  1.55000000E+00  1.30000000E+00  1.30000000E+00  1.55000000E+00  1.70000000E+00
  1.70000000E+00  1.30000000E+00  1.70000000E+00  1.30000000E+00  1.50000000E+00
  8.00000000E-01  1.50000000E+00  1.85000000E+00  1.50000000E+00  1.50000000E+00
  1.50000000E+00  1.70000000E+00  1.30000000E+00  1.30000000E+00  1.70000000E+00
  1.30000000E+00  1.50000000E+00  1.70000000E+00  1.30000000E+00  1.55000000E+00
  1.70000000E+00  1.30000000E+00  1.55000000E+00  1.70000000E+00  1.70000000E+00
  1.50000000E+00  1.55000000E+00  1.30000000E+00  1.70000000E+00  1.55000000E+00
  1.30000000E+00  1.30000000E+00  1.55000000E+00  1.70000000E+00  1.70000000E+00
  1.30000000E+00  1.70000000E+00  1.30000000E+00  1.50000000E+00  8.00000000E-01
  1.50000000E+00  1.85000000E+00  1.50000000E+00  1.50000000E+00  1.50000000E+00
  1.70000000E+00  1.30000000E+00  1.30000000E+00  1.70000000E+00  1.30000000E+00
  1.50000000E+00  1.70000000E+00  1.30000000E+00  1.55000000E+00  1.70000000E+00
  1.30000000E+00  1.55000000E+00  1.70000000E+00  1.70000000E+00  1.50000000E+00
  1.55000000E+00  1.30000000E+00  1.70000000E+00  1.55000000E+00  1.30000000E+00
  1.30000000E+00  1.55000000E+00  1.70000000E+00  1.70000000E+00  1.30000000E+00
  1.70000000E+00  1.30000000E+00  1.50000000E+00  8.00000000E-01  1.50000000E+00
  1.85000000E+00  1.50000000E+00  1.50000000E+00  1.50000000E+00  1.70000000E+00
  1.30000000E+00  1.30000000E+00  1.70000000E+00  1.30000000E+00  1.50000000E+00
  1.70000000E+00  1.30000000E+00  1.55000000E+00  1.70000000E+00  1.30000000E+00
  1.70000000E+00  1.30000000E+00  1.70000000E+00  1.50000000E+00  1.55000000E+00
  1.30000000E+00  1.70000000E+00  1.50000000E+00  1.70000000E+00  1.30000000E+00
  1.70000000E+00  1.30000000E+00  1.50000000E+00  8.00000000E-01  1.50000000E+00
  1.85000000E+00  1.50000000E+00  1.50000000E+00  1.50000000E+00  1.70000000E+00
  1.30000000E+00  1.30000000E+00  1.70000000E+00  1.30000000E+00  1.50000000E+00
  1.70000000E+00  1.30000000E+00  1.55000000E+00  1.70000000E+00  1.30000000E+00
  1.70000000E+00  1.30000000E+00  1.70000000E+00  1.50000000E+00  1.55000000E+00
  1.30000000E+00  1.70000000E+00  1.50000000E+00  1.70000000E+00  1.30000000E+00
  1.70000000E+00  1.30000000E+00  1.50000000E+00  8.00000000E-01  1.50000000E+00
  1.85000000E+00  1.50000000E+00  1.50000000E+00  1.50000000E+00  1.70000000E+00
  1.30000000E+00  1.30000000E+00  1.70000000E+00  1.30000000E+00  1.50000000E+00
  1.70000000E+00  1.30000000E+00  1.55000000E+00  1.70000000E+00  1.30000000E+00
  1.55000000E+00  1.70000000E+00  1.70000000E+00  1.55000000E+00  1.30000000E+00
  1.30000000E+00  1.55000000E+00  1.70000000E+00  1.30000000E+00  1.55000000E+00
  1.70000000E+00  1.70000000E+00  1.30000000E+00  1.70000000E+00  1.30000000E+00
  1.50000000E+00  8.00000000E-01  1.50000000E+00  1.85000000E+00  1.50000000E+00
  1.50000000E+00  1.50000000E+00  1.70000000E+00  1.30000000E+00  1.30000000E+00
  1.70000000E+00  1.30000000E+00  1.50000000E+00  1.70000000E+00  1.30000000E+00
  1.55000000E+00  1.70000000E+00  1.30000000E+00  1.55000000E+00  1.70000000E+00
  1.70000000E+00  1.50000000E+00  1.55000000E+00  1.30000000E+00  1.70000000E+00
  1.55000000E+00  1.30000000E+00  1.30000000E+00  1.55000000E+00  1.70000000E+00
  1.70000000E+00  1.30000000E+00  1.70000000E+00  1.30000000E+00  1.50000000E+00
  8.00000000E-01  1.50000000E+00  1.85000000E+00  1.50000000E+00  1.50000000E+00
  1.50000000E+00  1.70000000E+00  1.30000000E+00  1.30000000E+00  1.70000000E+00
  1.30000000E+00  1.50000000E+00  1.70000000E+00  1.30000000E+00  1.55000000E+00
  1.70000000E+00  1.30000000E+00  1.55000000E+00  1.70000000E+00  1.70000000E+00
  1.50000000E+00  1.55000000E+00  1.30000000E+00  1.70000000E+00  1.55000000E+00
  1.30000000E+00  1.30000000E+00  1.55000000E+00  1.70000000E+00  1.70000000E+00
  1.30000000E+00  1.70000000E+00  1.30000000E+00  1.50000000E+00  8.00000000E-01
  1.50000000E+00  1.85000000E+00  1.50000000E+00  1.50000000E+00  1.50000000E+00
  1.70000000E+00  1.30000000E+00  1.30000000E+00  1.70000000E+00  1.30000000E+00
  1.50000000E+00  1.70000000E+00  1.30000000E+00  1.55000000E+00  1.70000000E+00
  1.30000000E+00  1.55000000E+00  1.70000000E+00  1.70000000E+00  1.50000000E+00
  1.55000000E+00  1.30000000E+00  1.70000000E+00  1.55000000E+00  1.30000000E+00
  1.30000000E+00  1.55000000E+00  1.70000000E+00  1.70000000E+00  1.30000000E+00
  1.70000000E+00  1.30000000E+00  1.50000000E+00  8.00000000E-01  1.50000000E+00
  1.85000000E+00  1.50000000E+00  1.50000000E+00  1.50000000E+00  1.70000000E+00
  1.30000000E+00  1.30000000E+00  1.70000000E+00  1.30000000E+00  1.50000000E+00
  1.70000000E+00  1.30000000E+00  1.55000000E+00  1.70000000E+00  1.30000000E+00
  1.70000000E+00  1.30000000E+00  1.70000000E+00  1.50000000E+00  1.55000000E+00
  1.30000000E+00  1.70000000E+00  1.50000000E+00  1.70000000E+00  1.30000000E+00
  1.70000000E+00  1.30000000E+00  1.50000000E+00  8.00000000E-01  1.50000000E+00
  1.85000000E+00  1.50000000E+00  1.50000000E+00  1.50000000E+00  1.70000000E+00
  1.30000000E+00  1.30000000E+00  1.70000000E+00  1.30000000E+00  1.50000000E+00
  1.70000000E+00  1.30000000E+00  1.55000000E+00  1.70000000E+00  1.30000000E+00
  1.70000000E+00  1.30000000E+00  1.70000000E+00  1.50000000E+00  1.55000000E+00
  1.30000000E+00  1.70000000E+00  1.50000000E+00  1.70000000E+00  1.30000000E+00
  1.70000000E+00  1.30000000E+00  1.50000000E+00  8.00000000E-01  1.50000000E+00
  1.85000000E+00  1.50000000E+00  1.50000000E+00  1.50000000E+00  1.70000000E+00
  1.30000000E+00  1.30000000E+00  1.70000000E+00  1.30000000E+00  1.50000000E+00
  1.70000000E+00  1.30000000E+00  1.55000000E+00  1.70000000E+00  1.30000000E+00
  1.55000000E+00  1.70000000E+00  1.70000000E+00  1.55000000E+00  1.30000000E+00
  1.30000000E+00  1.55000000E+00  1.70000000E+00  1.30000000E+00  1.55000000E+00
  1.70000000E+00  1.70000000E+00  1.30000000E+00  1.70000000E+00  1.30000000E+00
  1.50000000E+00  8.00000000E-01  1.50000000E+00  1.85000000E+00  1.50000000E+00
  1.50000000E+00  1.50000000E+00  1.70000000E+00  1.30000000E+00  1.30000000E+00
  1.70000000E+00  1.30000000E+00  1.50000000E+00  1.70000000E+00  1.30000000E+00
  1.55000000E+00  1.70000000E+00  1.30000000E+00  1.55000000E+00  1.70000000E+00
  1.70000000E+00  1.50000000E+00  1.55000000E+00  1.30000000E+00  1.70000000E+00
  1.55000000E+00  1.30000000E+00  1.30000000E+00  1.55000000E+00  1.70000000E+00
  1.70000000E+00  1.30000000E+00  1.70000000E+00  1.30000000E+00  1.50000000E+00
  8.00000000E-01  1.50000000E+00  1.85000000E+00  1.50000000E+00  1.50000000E+00
  1.50000000E+00  1.70000000E+00  1.30000000E+00  1.30000000E+00  1.70000000E+00
  1.30000000E+00  1.50000000E+00  1.70000000E+00  1.30000000E+00  1.55000000E+00
  1.70000000E+00  1.30000000E+00  1.55000000E+00  1.70000000E+00  1.70000000E+00
  1.50000000E+00  1.55000000E+00  1.30000000E+00  1.70000000E+00  1.55000000E+00
  1.30000000E+00  1.30000000E+00  1.55000000E+00  1.70000000E+00  1.70000000E+00
  1.30000000E+00  1.70000000E+00  1.30000000E+00  1.50000000E+00  8.00000000E-01
  1.50000000E+00  1.85000000E+00  1.50000000E+00  1.50000000E+00  1.50000000E+00
  1.70000000E+00  1.30000000E+00  1.30000000E+00  1.70000000E+00  1.30000000E+00
  1.50000000E+00  1.70000000E+00  1.30000000E+00  1.55000000E+00  1.70000000E+00
  1.30000000E+00  1.55000000E+00  1.70000000E+00  1.70000000E+00  1.50000000E+00
  1.55000000E+00  1.30000000E+00  1.70000000E+00  1.55000000E+00  1.30000000E+00
  1.30000000E+00  1.55000000E+00  1.70000000E+00  1.70000000E+00  1.30000000E+00
  1.70000000E+00  1.30000000E+00  1.50000000E+00  8.00000000E-01  1.50000000E+00
  8.00000000E-01  1.50000000E+00  1.50000000E+00  1.50000000E+00  1.50000000E+00
  1.50000000E+00  1.50000000E+00  1.50000000E+00  1.50000000E+00  1.50000000E+00
  1.50000000E+00  1.50000000E+00  1.50000000E+00  1.50000000E+00  1.50000000E+00
  1.50000000E+00  1.50000000E+00  1.50000000E+00  1.50000000E+00  1.50000000E+00
  1.50000000E+00  1.50000000E+00  1.50000000E+00  1.50000000E+00  1.50000000E+00
  1.50000000E+00  1.50000000E+00  1.50000000E+00  1.50000000E+00  1.50000000E+00
  1.50000000E+00  1.50000000E+00  1.50000000E+00  1.50000000E+00  1.50000000E+00
  1.50000000E+00  1.50000000E+00  1.50000000E+00  1.50000000E+00  1.50000000E+00
  1.50000000E+00  1.50000000E+00  1.50000000E+00  1.50000000E+00  1.50000000E+00
  1.50000000E+00  1.50000000E+00  1.50000000E+00  1.50000000E+00  1.50000000E+00
  1.50000000E+00  1.50000000E+00  1.50000000E+00  1.50000000E+00  1.50000000E+00
  1.50000000E+00  1.50000000E+00  1.50000000E+00  1.50000000E+00  1.50000000E+00
  1.50000000E+00  1.50000000E+00  1.50000000E+00  1.50000000E+00  1.50000000E+00
  1.50000000E+00  1.50000000E+00  1.50000000E+00  1.50000000E+00  1.50000000E+00
  1.50000000E+00  1.50000000E+00  1.50000000E+00  1.50000000E+00  1.50000000E+00
  1.50000000E+00  1.50000000E+00  1.50000000E+00  1.50000000E+00  1.50000000E+00
  1.50000000E+00  1.50000000E+00  1.50000000E+00  1.50000000E+00  1.50000000E+00
  1.50000000E+00  1.50000000E+00  1.50000000E+00  1.50000000E+00  1.50000000E+00
  1.50000000E+00  1.50000000E+00  1.50000000E+00  1.50000000E+00  1.50000000E+00
  1.50000000E+00  1.50000000E+00  1.50000000E+00  1.50000000E+00  1.50000000E+00
  1.50000000E+00  1.50000000E+00  1.50000000E+00  1.50000000E+00  1.50000000E+00
  1.50000000E+00  1.50000000E+00  1.50000000E+00  1.50000000E+00  1.50000000E+00
  1.50000000E+00  1.50000000E+00  1.50000000E+00  1.50000000E+00  1.50000000E+00
  1.50000000E+00  1.50000000E+00  1.50000000E+00  1.50000000E+00  1.50000000E+00
  1.50000000E+00  1.50000000E+00  1.50000000E+00  1.50000000E+00  1.50000000E+00
  1.50000000E+00  1.50000000E+00  1.50000000E+00  1.50000000E+00  1.50000000E+00
  1.50000000E+00  1.50000000E+00  1.50000000E+00  1.50000000E+00  1.50000000E+00
  1.50000000E+00  1.50000000E+00  1.50000000E+00  1.50000000E+00  1.50000000E+00
  1.50000000E+00  1.50000000E+00  1.50000000E+00  1.50000000E+00  1.50000000E+00
  1.50000000E+00  1.50000000E+00  1.50000000E+00  1.50000000E+00  1.50000000E+00
  1.50000000E+00  1.50000000E+00  1.50000000E+00  1.50000000E+00  1.50000000E+00
  1.50000000E+00  1.50000000E+00  1.50000000E+00  1.50000000E+00  1.50000000E+00
  1.50000000E+00  1.50000000E+00  1.50000000E+00  1.50000000E+00  1.50000000E+00
  1.50000000E+00  1.50000000E+00  1.50000000E+00  1.50000000E+00  1.50000000E+00
  1.50000000E+00  1.50000000E+00  1.50000000E+00  1.50000000E+00  1.50000000E+00
  1.50000000E+00  1.50000000E+00  1.50000000E+00  1.50000000E+00  1.50000000E+00
  1.50000000E+00  1.50000000E+00  1.50000000E+00  1.50000000E+00  1.50000000E+00
  1.50000000E+00  1.50000000E+00  1.50000000E+00  1.50000000E+00  1.50000000E+00
  1.50000000E+00
%FLAG SCREEN                                                                    
%FORMAT(5E16.8)                                                                 
  8.50000000E-01  8.50000000E-01  7.20000000E-01  8.50000000E-01  8.50000000E-01
  7.20000000E-01  8.50000000E-01  8.50000000E-01  7.20000000E-01  8.50000000E-01
  7.90000000E-01  7.20000000E-01  8.50000000E-01  7.90000000E-01  7.20000000E-01
  7.20000000E-01  8.50000000E-01  7.90000000E-01  8.50000000E-01  7.20000000E-01
  7.90000000E-01  8.50000000E-01  8.50000000E-01  7.90000000E-01  7.20000000E-01
  7.20000000E-01  8.50000000E-01  7.20000000E-01  8.50000000E-01  8.50000000E-01
  8.50000000E-01  8.50000000E-01  8.60000000E-01  8.50000000E-01  8.50000000E-01
  8.50000000E-01  7.20000000E-01  8.50000000E-01  8.50000000E-01  7.20000000E-01
  8.50000000E-01  8.50000000E-01  7.20000000E-01  8.50000000E-01  7.90000000E-01
  7.20000000E-01  8.50000000E-01  7.90000000E-01  7.20000000E-01  7.20000000E-01
  8.50000000E-01  7.90000000E-01  8.50000000E-01  7.20000000E-01  7.90000000E-01
  8.50000000E-01  8.50000000E-01  7.90000000E-01  7.20000000E-01  7.20000000E-01
  8.50000000E-01  7.20000000E-01  8.50000000E-01  8.50000000E-01  8.50000000E-01
  8.50000000E-01  8.60000000E-01  8.50000000E-01  8.50000000E-01  8.50000000E-01
  7.20000000E-01  8.50000000E-01  8.50000000E-01  7.20000000E-01  8.50000000E-01
  8.50000000E-01  7.20000000E-01  8.50000000E-01  7.90000000E-01  7.20000000E-01
  8.50000000E-01  7.90000000E-01  7.20000000E-01  7.20000000E-01  8.50000000E-01
  7.90000000E-01  8.50000000E-01  7.20000000E-01  7.90000000E-01  8.50000000E-01
  8.50000000E-01  7.90000000E-01  7.20000000E-01  7.20000000E-01  8.50000000E-01
  7.20000000E-01  8.50000000E-01  8.50000000E-01  8.50000000E-01  8.50000000E-01
  8.60000000E-01  8.50000000E-01  8.50000000E-01  8.50000000E-01  7.20000000E-01
  8.50000000E-01  8.50000000E-01  7.20000000E-01  8.50000000E-01  8.50000000E-01
  7.20000000E-01  8.50000000E-01  7.90000000E-01  7.20000000E-01  8.50000000E-01
  7.20000000E-01  8.50000000E-01  7.20000000E-01  8.50000000E-01  7.90000000E-01
  8.50000000E-01  7.20000000E-01  8.50000000E-01  7.20000000E-01  8.50000000E-01
  7.20000000E-01  8.50000000E-01  8.50000000E-01  8.50000000E-01  8.50000000E-01
  8.60000000E-01  8.50000000E-01  8.50000000E-01  8.50000000E-01  7.20000000E-01
  8.50000000E-01  8.50000000E-01  7.20000000E-01  8.50000000E-01  8.50000000E-01
  7.20000000E-01  8.50000000E-01  7.90000000E-01  7.20000000E-01  8.50000000E-01
  7.20000000E-01  8.50000000E-01  7.20000000E-01  8.50000000E-01  7.90000000E-01
  8.50000000E-01  7.20000000E-01  8.50000000E-01  7.20000000E-01  8.50000000E-01
  7.20000000E-01  8.50000000E-01  8.50000000E-01  8.50000000E-01  8.50000000E-01
  8.60000000E-01  8.50000000E-01  8.50000000E-01  8.50000000E-01  7.20000000E-01
  8.50000000E-01  8.50000000E-01  7.20000000E-01  8.50000000E-01  8.50000000E-01
  7.20000000E-01  8.50000000E-01  7.90000000E-01  7.20000000E-01  8.50000000E-01
  7.90000000E-01  7.20000000E-01  7.20000000E-01  7.90000000E-01  8.50000000E-01
  8.50000000E-01  7.90000000E-01  7.20000000E-01  8.50000000E-01  7.90000000E-01
  7.20000000E-01  7.20000000E-01  8.50000000E-01  7.20000000E-01  8.50000000E-01
  8.50000000E-01  8.50000000E-01  8.50000000E-01  8.60000000E-01  8.50000000E-01
  8.50000000E-01  8.50000000E-01  7.20000000E-01  8.50000000E-01  8.50000000E-01
  7.20000000E-01  8.50000000E-01  8.50000000E-01  7.20000000E-01  8.50000000E-01
  7.90000000E-01  7.20000000E-01  8.50000000E-01  7.90000000E-01  7.20000000E-01
  7.20000000E-01  8.50000000E-01  7.90000000E-01  8.50000000E-01  7.20000000E-01
  7.90000000E-01  8.50000000E-01  8.50000000E-01  7.90000000E-01  7.20000000E-01
  7.20000000E-01  8.50000000E-01  7.20000000E-01  8.50000000E-01  8.50000000E-01
  8.50000000E-01  8.50000000E-01  8.60000000E-01  8.50000000E-01  8.50000000E-01
  8.50000000E-01  7.20000000E-01  8.50000000E-01  8.50000000E-01  7.20000000E-01
  8.50000000E-01  8.50000000E-01  7.20000000E-01  8.50000000E-01  7.90000000E-01
  7.20000000E-01  8.50000000E-01  7.90000000E-01  7.20000000E-01  7.20000000E-01
  8.50000000E-01  7.90000000E-01  8.50000000E-01  7.20000000E-01  7.90000000E-01
  8.50000000E-01  8.50000000E-01  7.90000000E-01  7.20000000E-01  7.20000000E-01
  8.50000000E-01  7.20000000E-01  8.50000000E-01  8.50000000E-01  8.50000000E-01
  8.50000000E-01  8.60000000E-01  8.50000000E-01  8.50000000E-01  8.50000000E-01
  7.20000000E-01  8.50000000E-01  8.50000000E-01  7.20000000E-01  8.50000000E-01
  8.50000000E-01  7.20000000E-01  8.50000000E-01  7.90000000E-01  7.20000000E-01
  8.50000000E-01  7.90000000E-01  7.20000000E-01  7.20000000E-01  8.50000000E-01
  7.90000000E-01  8.50000000E-01  7.20000000E-01  7.90000000E-01  8.50000000E-01
  8.50000000E-01  7.90000000E-01  7.20000000E-01  7.20000000E-01  8.50000000E-01
  7.20000000E-01  8.50000000E-01  8.50000000E-01  8.50000000E-01  8.50000000E-01
  8.60000000E-01  8.50000000E-01  8.50000000E-01  8.50000000E-01  7.20000000E-01
  8.50000000E-01  8.50000000E-01  7.20000000E-01  8.50000000E-01  8.50000000E-01
  7.20000000E-01  8.50000000E-01  7.90000000E-01  7.20000000E-01  8.50000000E-01
  7.20000000E-01  8.50000000E-01  7.20000000E-01  8.50000000E-01  7.90000000E-01
  8.50000000E-01  7.20000000E-01  8.50000000E-01  7.20000000E-01  8.50000000E-01
  7.20000000E-01  8.50000000E-01  8.50000000E-01  8.50000000E-01  8.50000000E-01
  8.60000000E-01  8.50000000E-01  8.50000000E-01  8.50000000E-01  7.20000000E-01
  8.50000000E-01  8.50000000E-01  7.20000000E-01  8.50000000E-01  8.50000000E-01
  7.20000000E-01  8.50000000E-01  7.90000000E-01  7.20000000E-01  8.50000000E-01
  7.20000000E-01  8.50000000E-01  7.20000000E-01  8.50000000E-01  7.90000000E-01
  8.50000000E-01  7.20000000E-01  8.50000000E-01  7.20000000E-01  8.50000000E-01
  7.20000000E-01  8.50000000E-01  8.50000000E-01  8.50000000E-01  8.50000000E-01
  8.60000000E-01  8.50000000E-01  8.50000000E-01  8.50000000E-01  7.20000000E-01
  8.50000000E-01  8.50000000E-01  7.20000000E-01  8.50000000E-01  8.50000000E-01
  7.20000000E-01  8.50000000E-01  7.90000000E-01  7.20000000E-01  8.50000000E-01
  7.90000000E-01  7.20000000E-01  7.20000000E-01  7.90000000E-01  8.50000000E-01
  8.50000000E-01  7.90000000E-01  7.20000000E-01  8.50000000E-01  7.90000000E-01
  7.20000000E-01  7.20000000E-01  8.50000000E-01  7.20000000E-01  8.50000000E-01
  8.50000000E-01  8.50000000E-01  8.50000000E-01  8.60000000E-01  8.50000000E-01
  8.50000000E-01  8.50000000E-01  7.20000000E-01  8.50000000E-01  8.50000000E-01
  7.20000000E-01  8.50000000E-01  8.50000000E-01  7.20000000E-01  8.50000000E-01
  7.90000000E-01  7.20000000E-01  8.50000000E-01  7.90000000E-01  7.20000000E-01
  7.20000000E-01  8.50000000E-01  7.90000000E-01  8.50000000E-01  7.20000000E-01
  7.90000000E-01  8.50000000E-01  8.50000000E-01  7.90000000E-01  7.20000000E-01
  7.20000000E-01  8.50000000E-01  7.20000000E-01  8.50000000E-01  8.50000000E-01
  8.50000000E-01  8.50000000E-01  8.60000000E-01  8.50000000E-01  8.50000000E-01
  8.50000000E-01  7.20000000E-01  8.50000000E-01  8.50000000E-01  7.20000000E-01
  8.50000000E-01  8.50000000E-01  7.20000000E-01  8.50000000E-01  7.90000000E-01
  7.20000000E-01  8.50000000E-01  7.90000000E-01  7.20000000E-01  7.20000000E-01
  8.50000000E-01  7.90000000E-01  8.50000000E-01  7.20000000E-01  7.90000000E-01
  8.50000000E-01  8.50000000E-01  7.90000000E-01  7.20000000E-01  7.20000000E-01
  8.50000000E-01  7.20000000E-01  8.50000000E-01  8.50000000E-01  8.50000000E-01
  8.50000000E-01  8.60000000E-01  8.50000000E-01  8.50000000E-01  8.50000000E-01
  7.20000000E-01  8.50000000E-01  8.50000000E-01  7.20000000E-01  8.50000000E-01
  8.50000000E-01  7.20000000E-01  8.50000000E-01  7.90000000E-01  7.20000000E-01
  8.50000000E-01  7.90000000E-01  7.20000000E-01  7.20000000E-01  8.50000000E-01
  7.90000000E-01  8.50000000E-01  7.20000000E-01  7.90000000E-01  8.50000000E-01
  8.50000000E-01  7.90000000E-01  7.20000000E-01  7.20000000E-01  8.50000000E-01
  7.20000000E-01  8.50000000E-01  8.50000000E-01  8.50000000E-01  8.50000000E-01
  8.60000000E-01  8.50000000E-01  8.50000000E-01  8.50000000E-01  7.20000000E-01
  8.50000000E-01  8.50000000E-01  7.20000000E-01  8.50000000E-01  8.50000000E-01
  7.20000000E-01  8.50000000E-01  7.90000000E-01  7.20000000E-01  8.50000000E-01
  7.20000000E-01  8.50000000E-01  7.20000000E-01  8.50000000E-01  7.90000000E-01
  8.50000000E-01  7.20000000E-01  8.50000000E-01  7.20000000E-01  8.50000000E-01
  7.20000000E-01  8.50000000E-01  8.50000000E-01  8.50000000E-01  8.50000000E-01
  8.60000000E-01  8.50000000E-01  8.50000000E-01  8.50000000E-01  7.20000000E-01
  8.50000000E-01  8.50000000E-01  7.20000000E-01  8.50000000E-01  8.50000000E-01
  7.20000000E-01  8.50000000E-01  7.90000000E-01  7.20000000E-01  8.50000000E-01
  7.20000000E-01  8.50000000E-01  7.20000000E-01  8.50000000E-01  7.90000000E-01
  8.50000000E-01  7.20000000E-01  8.50000000E-01  7.20000000E-01  8.50000000E-01
  7.20000000E-01  8.50000000E-01  8.50000000E-01  8.50000000E-01  8.50000000E-01
  8.60000000E-01  8.50000000E-01  8.50000000E-01  8.50000000E-01  7.20000000E-01
  8.50000000E-01  8.50000000E-01  7.20000000E-01  8.50000000E-01  8.50000000E-01
  7.20000000E-01  8.50000000E-01  7.90000000E-01  7.20000000E-01  8.50000000E-01
  7.90000000E-01  7.20000000E-01  7.20000000E-01  7.90000000E-01  8.50000000E-01
  8.50000000E-01  7.90000000E-01  7.20000000E-01  8.50000000E-01  7.90000000E-01
  7.20000000E-01  7.20000000E-01  8.50000000E-01  7.20000000E-01  8.50000000E-01
  8.50000000E-01  8.50000000E-01  8.50000000E-01  8.60000000E-01  8.50000000E-01
  8.50000000E-01  8.50000000E-01  7.20000000E-01  8.50000000E-01  8.50000000E-01
  7.20000000E-01  8.50000000E-01  8.50000000E-01  7.20000000E-01  8.50000000E-01
  7.90000000E-01  7.20000000E-01  8.50000000E-01  7.90000000E-01  7.20000000E-01
  7.20000000E-01  8.50000000E-01  7.90000000E-01  8.50000000E-01  7.20000000E-01
  7.90000000E-01  8.50000000E-01  8.50000000E-01  7.90000000E-01  7.20000000E-01
  7.20000000E-01  8.50000000E-01  7.20000000E-01  8.50000000E-01  8.50000000E-01
  8.50000000E-01  8.50000000E-01  8.60000000E-01  8.50000000E-01  8.50000000E-01
  8.50000000E-01  7.20000000E-01  8.50000000E-01  8.50000000E-01  7.20000000E-01
  8.50000000E-01  8.50000000E-01  7.20000000E-01  8.50000000E-01  7.90000000E-01
  7.20000000E-01  8.50000000E-01  7.90000000E-01  7.20000000E-01  7.20000000E-01
  8.50000000E-01  7.90000000E-01  8.50000000E-01  7.20000000E-01  7.90000000E-01
  8.50000000E-01  8.50000000E-01  7.90000000E-01  7.20000000E-01  7.20000000E-01
  8.50000000E-01  7.20000000E-01  8.50000000E-01  8.50000000E-01  8.50000000E-01
  8.50000000E-01  8.60000000E-01  8.50000000E-01  8.50000000E-01  8.50000000E-01
  7.20000000E-01  8.50000000E-01  8.50000000E-01  7.20000000E-01  8.50000000E-01
  8.50000000E-01  7.20000000E-01  8.50000000E-01  7.90000000E-01  7.20000000E-01
  8.50000000E-01  7.90000000E-01  7.20000000E-01  7.20000000E-01  8.50000000E-01
  7.90000000E-01  8.50000000E-01  7.20000000E-01  7.90000000E-01  8.50000000E-01
  8.50000000E-01  7.90000000E-01  7.20000000E-01  7.20000000E-01  8.50000000E-01
  7.20000000E-01  8.50000000E-01  8.50000000E-01  8.50000000E-01  8.50000000E-01
  8.50000000E-01  8.00000000E-01  8.00000000E-01  8.00000000E-01  8.00000000E-01
  8.00000000E-01  8.00000000E-01  8.00000000E-01  8.00000000E-01  8.00000000E-01
  8.00000000E-01  8.00000000E-01  8.00000000E-01  8.00000000E-01  8.00000000E-01
  8.00000000E-01  8.00000000E-01  8.00000000E-01  8.00000000E-01  8.00000000E-01
  8.00000000E-01  8.00000000E-01  8.00000000E-01  8.00000000E-01  8.00000000E-01
  8.00000000E-01  8.00000000E-01  8.00000000E-01  8.00000000E-01  8.00000000E-01
  8.00000000E-01  8.00000000E-01  8.00000000E-01  8.00000000E-01  8.00000000E-01
  8.00000000E-01  8.00000000E-01  8.00000000E-01  8.00000000E-01  8.00000000E-01
  8.00000000E-01  8.00000000E-01  8.00000000E-01  8.00000000E-01  8.00000000E-01
  8.00000000E-01  8.00000000E-01  8.00000000E-01  8.00000000E-01  8.00000000E-01
  8.00000000E-01  8.00000000E-01  8.00000000E-01  8.00000000E-01  8.00000000E-01
  8.00000000E-01  8.00000000E-01  8.00000000E-01  8.00000000E-01  8.00000000E-01
  8.00000000E-01  8.00000000E-01  8.00000000E-01  8.00000000E-01  8.00000000E-01
  8.00000000E-01  8.00000000E-01  8.00000000E-01  8.00000000E-01  8.00000000E-01
  8.00000000E-01  8.00000000E-01  8.00000000E-01  8.00000000E-01  8.00000000E-01
  8.00000000E-01  8.00000000E-01  8.00000000E-01  8.00000000E-01  8.00000000E-01
  8.00000000E-01  8.00000000E-01  8.00000000E-01  8.00000000E-01  8.00000000E-01
  8.00000000E-01  8.00000000E-01  8.00000000E-01  8.00000000E-01  8.00000000E-01
  8.00000000E-01  8.00000000E-01  8.00000000E-01  8.00000000E-01  8.00000000E-01
  8.00000000E-01  8.00000000E-01  8.00000000E-01  8.00000000E-01  8.00000000E-01
  8.00000000E-01  8.00000000E-01  8.00000000E-01  8.00000000E-01  8.00000000E-01
  8.00000000E-01  8.00000000E-01  8.00000000E-01  8.00000000E-01  8.00000000E-01
  8.00000000E-01  8.00000000E-01  8.00000000E-01  8.00000000E-01  8.00000000E-01
  8.00000000E-01  8.00000000E-01  8.00000000E-01  8.00000000E-01  8.00000000E-01
  8.00000000E-01  8.00000000E-01  8.00000000E-01  8.00000000E-01  8.00000000E-01
  8.00000000E-01  8.00000000E-01  8.00000000E-01  8.00000000E-01  8.00000000E-01
  8.00000000E-01  8.00000000E-01  8.00000000E-01  8.00000000E-01  8.00000000E-01
  8.00000000E-01  8.00000000E-01  8.00000000E-01  8.00000000E-01  8.00000000E-01
  8.00000000E-01  8.00000000E-01  8.00000000E-01  8.00000000E-01  8.00000000E-01
  8.00000000E-01  8.00000000E-01  8.00000000E-01  8.00000000E-01  8.00000000E-01
  8.00000000E-01  8.00000000E-01  8.00000000E-01  8.00000000E-01  8.00000000E-01
  8.00000000E-01  8.00000000E-01  8.00000000E-01  8.00000000E-01  8.00000000E-01
  8.00000000E-01  8.00000000E-01  8.00000000E-01  8.00000000E-01  8.00000000E-01
  8.00000000E-01  8.00000000E-01  8.00000000E-01  8.00000000E-01  8.00000000E-01
  8.00000000E-01  8.00000000E-01  8.00000000E-01  8.00000000E-01  8.00000000E-01
  8.00000000E-01  8.00000000E-01  8.00000000E-01  8.00000000E-01  8.00000000E-01
  8.00000000E-01  8.00000000E-01  8.00000000E-01  8.00000000E-01  8.00000000E-01
  8.00000000E-01  8.00000000E-01  8.00000000E-01  8.00000000E-01  8.00000000E-01
  8.00000000E-01
